VARIABLES="w (rad/s)"  
"abs(F   1   1)" "angle(F   1   1)"
"abs(F   1   2)" "angle(F   1   2)"
"abs(F   1   3)" "angle(F   1   3)"
"abs(F   1   4)" "angle(F   1   4)"
"abs(F   1   5)" "angle(F   1   5)"
"abs(F   1   6)" "angle(F   1   6)"
"abs(F   2   1)" "angle(F   2   1)"
"abs(F   2   2)" "angle(F   2   2)"
"abs(F   2   3)" "angle(F   2   3)"
"abs(F   2   4)" "angle(F   2   4)"
"abs(F   2   5)" "angle(F   2   5)"
"abs(F   2   6)" "angle(F   2   6)"
"abs(F   3   1)" "angle(F   3   1)"
"abs(F   3   2)" "angle(F   3   2)"
"abs(F   3   3)" "angle(F   3   3)"
"abs(F   3   4)" "angle(F   3   4)"
"abs(F   3   5)" "angle(F   3   5)"
"abs(F   3   6)" "angle(F   3   6)"
"abs(F   4   1)" "angle(F   4   1)"
"abs(F   4   2)" "angle(F   4   2)"
"abs(F   4   3)" "angle(F   4   3)"
"abs(F   4   4)" "angle(F   4   4)"
"abs(F   4   5)" "angle(F   4   5)"
"abs(F   4   6)" "angle(F   4   6)"
"abs(F   5   1)" "angle(F   5   1)"
"abs(F   5   2)" "angle(F   5   2)"
"abs(F   5   3)" "angle(F   5   3)"
"abs(F   5   4)" "angle(F   5   4)"
"abs(F   5   5)" "angle(F   5   5)"
"abs(F   5   6)" "angle(F   5   6)"
"abs(F   6   1)" "angle(F   6   1)"
"abs(F   6   2)" "angle(F   6   2)"
"abs(F   6   3)" "angle(F   6   3)"
"abs(F   6   4)" "angle(F   6   4)"
"abs(F   6   5)" "angle(F   6   5)"
"abs(F   6   6)" "angle(F   6   6)"
Zone t="Diffraction force - beta =   0.000 deg",I=    50,F=POINT
  0.1000000E+00  0.8883038E+01  0.1594699E+01  0.1054203E+01 -0.9830208E+00  0.4280515E+04 -0.3135411E+01  0.7462687E+01 -0.2767154E+01  0.2508814E+04 -0.1573074E+01  0.2129923E+00 -0.1815039E+00  0.4365132E+04 -0.1570862E+01  0.1764638E+01  0.7620602E+00  0.1507537E+04 -0.3141360E+01  0.1181751E+02 -0.1941069E+01  0.3449393E+04 -0.1571288E+01  0.1175529E+02  0.1571734E+01  0.8883038E+01  0.1594699E+01  0.1054203E+01 -0.9830208E+00  0.4280515E+04 -0.3135411E+01  0.7462687E+01 -0.2767154E+01  0.2508814E+04 -0.1573074E+01  0.2129923E+00 -0.1815039E+00  0.4365132E+04 -0.1570862E+01  0.1764638E+01  0.7620602E+00  0.1507537E+04 -0.3141360E+01  0.1181751E+02 -0.1941069E+01  0.3449393E+04 -0.1571288E+01  0.1175529E+02  0.1571734E+01  0.8883038E+01  0.1594699E+01  0.1054203E+01 -0.9830208E+00  0.4280515E+04 -0.3135411E+01  0.7462687E+01 -0.2767154E+01  0.2508814E+04 -0.1573074E+01  0.2129923E+00 -0.1815039E+00  0.4365132E+04 -0.1570862E+01  0.1764638E+01  0.7620602E+00  0.1507537E+04 -0.3141360E+01  0.1181751E+02 -0.1941069E+01  0.3449393E+04 -0.1571288E+01  0.1175529E+02  0.1571734E+01
  0.2204082E+00  0.3700308E+02  0.1597002E+01  0.4922157E+01 -0.9659969E+00  0.2132313E+05 -0.3110226E+01  0.3580195E+02 -0.2748482E+01  0.1173549E+05 -0.1573002E+01  0.1024712E+01 -0.1958387E+00  0.2039928E+05 -0.1570821E+01  0.8307762E+01  0.7839956E+00  0.6777438E+04  0.3141135E+01  0.5578314E+02 -0.1912427E+01  0.1756432E+05 -0.1571229E+01  0.5614528E+02  0.1571825E+01  0.3700308E+02  0.1597002E+01  0.4922157E+01 -0.9659969E+00  0.2132313E+05 -0.3110226E+01  0.3580195E+02 -0.2748482E+01  0.1173549E+05 -0.1573002E+01  0.1024712E+01 -0.1958387E+00  0.2039928E+05 -0.1570821E+01  0.8307762E+01  0.7839956E+00  0.6777438E+04  0.3141135E+01  0.5578314E+02 -0.1912427E+01  0.1756432E+05 -0.1571229E+01  0.5614528E+02  0.1571825E+01  0.3700308E+02  0.1597002E+01  0.4922157E+01 -0.9659969E+00  0.2132313E+05 -0.3110226E+01  0.3580195E+02 -0.2748482E+01  0.1173549E+05 -0.1573002E+01  0.1024712E+01 -0.1958387E+00  0.2039928E+05 -0.1570821E+01  0.8307762E+01  0.7839956E+00  0.6777438E+04  0.3141135E+01  0.5578314E+02 -0.1912427E+01  0.1756432E+05 -0.1571229E+01  0.5614528E+02  0.1571825E+01
  0.3408163E+00  0.6287333E+02  0.1586634E+01  0.1096616E+02 -0.9356450E+00  0.5225195E+05 -0.3066630E+01  0.8377688E+02 -0.2709069E+01  0.2622678E+05 -0.1571720E+01  0.2416818E+01 -0.2223156E+00  0.4561169E+05 -0.1570364E+01  0.1881902E+02  0.8249554E+00  0.1408034E+05  0.3134515E+01  0.1269890E+03 -0.1856885E+01  0.4498496E+05 -0.1570852E+01  0.1303371E+03  0.1572284E+01  0.6287333E+02  0.1586634E+01  0.1096616E+02 -0.9356450E+00  0.5225195E+05 -0.3066630E+01  0.8377688E+02 -0.2709069E+01  0.2622678E+05 -0.1571720E+01  0.2416818E+01 -0.2223156E+00  0.4561169E+05 -0.1570364E+01  0.1881902E+02  0.8249554E+00  0.1408034E+05  0.3134515E+01  0.1269890E+03 -0.1856885E+01  0.4498496E+05 -0.1570852E+01  0.1303371E+03  0.1572284E+01  0.6287333E+02  0.1586634E+01  0.1096616E+02 -0.9356450E+00  0.5225195E+05 -0.3066630E+01  0.8377688E+02 -0.2709069E+01  0.2622678E+05 -0.1571720E+01  0.2416818E+01 -0.2223156E+00  0.4561169E+05 -0.1570364E+01  0.1881902E+02  0.8249554E+00  0.1408034E+05  0.3134515E+01  0.1269890E+03 -0.1856885E+01  0.4498496E+05 -0.1570852E+01  0.1303371E+03  0.1572284E+01
  0.4612245E+00  0.5336412E+02  0.1411203E+01  0.1822233E+02 -0.8905158E+00  0.9690316E+05 -0.3008448E+01  0.1488506E+03 -0.2651882E+01  0.4340653E+05 -0.1565332E+01  0.4375633E+01 -0.2624695E+00  0.7601025E+05 -0.1568355E+01  0.3197647E+02  0.8910502E+00  0.2091271E+05  0.3111007E+01  0.2179027E+03 -0.1774741E+01  0.8874852E+05 -0.1569229E+01  0.2288367E+03  0.1574203E+01  0.5336412E+02  0.1411203E+01  0.1822233E+02 -0.8905158E+00  0.9690316E+05 -0.3008448E+01  0.1488506E+03 -0.2651882E+01  0.4340653E+05 -0.1565332E+01  0.4375633E+01 -0.2624695E+00  0.7601025E+05 -0.1568355E+01  0.3197647E+02  0.8910502E+00  0.2091271E+05  0.3111007E+01  0.2179027E+03 -0.1774741E+01  0.8874852E+05 -0.1569229E+01  0.2288367E+03  0.1574203E+01  0.5336412E+02  0.1411203E+01  0.1822233E+02 -0.8905158E+00  0.9690316E+05 -0.3008448E+01  0.1488506E+03 -0.2651882E+01  0.4340653E+05 -0.1565332E+01  0.4375633E+01 -0.2624695E+00  0.7601025E+05 -0.1568355E+01  0.3197647E+02  0.8910502E+00  0.2091271E+05  0.3111007E+01  0.2179027E+03 -0.1774741E+01  0.8874852E+05 -0.1569229E+01  0.2288367E+03  0.1574203E+01
  0.5816327E+00  0.6214386E+02 -0.4105252E+00  0.2552801E+02 -0.8273413E+00  0.1529462E+06 -0.2943193E+01  0.2278225E+03 -0.2578919E+01  0.5968576E+05 -0.1545668E+01  0.6763273E+01 -0.3251906E+00  0.1070457E+06 -0.1563051E+01  0.4643527E+02  0.9939429E+00  0.2520046E+05  0.3052643E+01  0.3215748E+03 -0.1657764E+01  0.1505027E+06 -0.1564695E+01  0.3440429E+03  0.1579167E+01  0.6214386E+02 -0.4105252E+00  0.2552801E+02 -0.8273413E+00  0.1529462E+06 -0.2943193E+01  0.2278225E+03 -0.2578919E+01  0.5968576E+05 -0.1545668E+01  0.6763273E+01 -0.3251906E+00  0.1070457E+06 -0.1563051E+01  0.4643527E+02  0.9939429E+00  0.2520046E+05  0.3052643E+01  0.3215748E+03 -0.1657764E+01  0.1505027E+06 -0.1564695E+01  0.3440429E+03  0.1579167E+01  0.6214386E+02 -0.4105252E+00  0.2552801E+02 -0.8273413E+00  0.1529462E+06 -0.2943193E+01  0.2278225E+03 -0.2578919E+01  0.5968576E+05 -0.1545668E+01  0.6763273E+01 -0.3251906E+00  0.1070457E+06 -0.1563051E+01  0.4643527E+02  0.9939429E+00  0.2520046E+05  0.3052643E+01  0.3215748E+03 -0.1657764E+01  0.1505027E+06 -0.1564695E+01  0.3440429E+03  0.1579167E+01
  0.7020409E+00  0.2586195E+03 -0.6711265E+00  0.3184478E+02 -0.7388851E+00  0.2161434E+06 -0.2879348E+01  0.3174745E+03 -0.2487691E+01  0.7013859E+05 -0.1498506E+01  0.9447733E+01 -0.4125921E+00  0.1342722E+06 -0.1553066E+01  0.6135904E+02  0.1147725E+01  0.2622605E+05  0.2934501E+01  0.4360828E+03 -0.1505087E+01  0.2283920E+06 -0.1555665E+01  0.4659253E+03  0.1588688E+01  0.2586195E+03 -0.6711265E+00  0.3184478E+02 -0.7388851E+00  0.2161434E+06 -0.2879348E+01  0.3174745E+03 -0.2487691E+01  0.7013859E+05 -0.1498506E+01  0.9447733E+01 -0.4125921E+00  0.1342722E+06 -0.1553066E+01  0.6135904E+02  0.1147725E+01  0.2622605E+05  0.2934501E+01  0.4360828E+03 -0.1505087E+01  0.2283920E+06 -0.1555665E+01  0.4659253E+03  0.1588688E+01  0.2586195E+03 -0.6711265E+00  0.3184478E+02 -0.7388851E+00  0.2161434E+06 -0.2879348E+01  0.3174745E+03 -0.2487691E+01  0.7013859E+05 -0.1498506E+01  0.9447733E+01 -0.4125921E+00  0.1342722E+06 -0.1553066E+01  0.6135904E+02  0.1147725E+01  0.2622605E+05  0.2934501E+01  0.4360828E+03 -0.1505087E+01  0.2283920E+06 -0.1555665E+01  0.4659253E+03  0.1588688E+01
  0.8224490E+00  0.5751415E+03 -0.4734213E+00  0.3601435E+02 -0.6146587E+00  0.2815743E+06 -0.2823243E+01  0.4159413E+03 -0.2358942E+01  0.6846830E+05 -0.1392838E+01  0.1287505E+02 -0.5041842E+00  0.1539290E+06 -0.1538587E+01  0.7721162E+02  0.1372470E+01  0.2497158E+05  0.2728488E+01  0.5717729E+03 -0.1317795E+01  0.3152173E+06 -0.1541948E+01  0.5815818E+03  0.1602795E+01  0.5751415E+03 -0.4734213E+00  0.3601435E+02 -0.6146587E+00  0.2815743E+06 -0.2823243E+01  0.4159413E+03 -0.2358942E+01  0.6846830E+05 -0.1392838E+01  0.1287505E+02 -0.5041842E+00  0.1539290E+06 -0.1538587E+01  0.7721162E+02  0.1372470E+01  0.2497158E+05  0.2728488E+01  0.5717729E+03 -0.1317795E+01  0.3152173E+06 -0.1541948E+01  0.5815818E+03  0.1602795E+01  0.5751415E+03 -0.4734213E+00  0.3601435E+02 -0.6146587E+00  0.2815743E+06 -0.2823243E+01  0.4159413E+03 -0.2358942E+01  0.6846830E+05 -0.1392838E+01  0.1287505E+02 -0.5041842E+00  0.1539290E+06 -0.1538587E+01  0.7721162E+02  0.1372470E+01  0.2497158E+05  0.2728488E+01  0.5717729E+03 -0.1317795E+01  0.3152173E+06 -0.1541948E+01  0.5815818E+03  0.1602795E+01
  0.9428571E+00  0.1006259E+04 -0.1149366E+00  0.3734491E+02 -0.4408574E+00  0.3447712E+06 -0.2778010E+01  0.5173281E+03 -0.2200054E+01  0.4893662E+05 -0.1097571E+01  0.1657520E+02 -0.6099629E+00  0.1635892E+06 -0.1522212E+01  0.9664067E+02  0.1665684E+01  0.2349254E+05  0.2423524E+01  0.7464034E+03 -0.1109893E+01  0.3988101E+06 -0.1525793E+01  0.6762861E+03  0.1619236E+01  0.1006259E+04 -0.1149366E+00  0.3734491E+02 -0.4408574E+00  0.3447712E+06 -0.2778010E+01  0.5173281E+03 -0.2200054E+01  0.4893662E+05 -0.1097571E+01  0.1657520E+02 -0.6099629E+00  0.1635892E+06 -0.1522212E+01  0.9664067E+02  0.1665684E+01  0.2349254E+05  0.2423524E+01  0.7464034E+03 -0.1109893E+01  0.3988101E+06 -0.1525793E+01  0.6762861E+03  0.1619236E+01  0.1006259E+04 -0.1149366E+00  0.3734491E+02 -0.4408574E+00  0.3447712E+06 -0.2778010E+01  0.5173281E+03 -0.2200054E+01  0.4893662E+05 -0.1097571E+01  0.1657520E+02 -0.6099629E+00  0.1635892E+06 -0.1522212E+01  0.9664067E+02  0.1665684E+01  0.2349254E+05  0.2423524E+01  0.7464034E+03 -0.1109893E+01  0.3988101E+06 -0.1525793E+01  0.6762861E+03  0.1619236E+01
  0.1063265E+01  0.1651312E+04  0.3592112E+00  0.3560128E+02 -0.1962652E+00  0.4020940E+06 -0.2744200E+01  0.6202292E+03 -0.2002229E+01  0.3378762E+05  0.2906388E+00  0.2065720E+02 -0.7171293E+00  0.1626560E+06 -0.1509146E+01  0.1240696E+03  0.1994355E+01  0.2359255E+05  0.2067112E+01  0.9817563E+03 -0.8994946E+00  0.4645255E+06 -0.1512253E+01  0.7360035E+03  0.1633373E+01  0.1651312E+04  0.3592112E+00  0.3560128E+02 -0.1962652E+00  0.4020940E+06 -0.2744200E+01  0.6202292E+03 -0.2002229E+01  0.3378762E+05  0.2906388E+00  0.2065720E+02 -0.7171293E+00  0.1626560E+06 -0.1509146E+01  0.1240696E+03  0.1994355E+01  0.2359255E+05  0.2067112E+01  0.9817563E+03 -0.8994946E+00  0.4645255E+06 -0.1512253E+01  0.7360035E+03  0.1633373E+01  0.1651312E+04  0.3592112E+00  0.3560128E+02 -0.1962652E+00  0.4020940E+06 -0.2744200E+01  0.6202292E+03 -0.2002229E+01  0.3378762E+05  0.2906388E+00  0.2065720E+02 -0.7171293E+00  0.1626560E+06 -0.1509146E+01  0.1240696E+03  0.1994355E+01  0.2359255E+05  0.2067112E+01  0.9817563E+03 -0.8994946E+00  0.4645255E+06 -0.1512253E+01  0.7360035E+03  0.1633373E+01
  0.1183674E+01  0.2803019E+04  0.8495803E+00  0.3170234E+02  0.1619119E+00  0.4505672E+06 -0.2720800E+01  0.7210491E+03 -0.1774081E+01  0.1038437E+06  0.1214375E+01  0.2490984E+02 -0.8244057E+00  0.1524477E+06 -0.1506826E+01  0.1624631E+03  0.2304107E+01  0.2548895E+05  0.1745346E+01  0.1285927E+04 -0.7048588E+00  0.5001754E+06 -0.1508874E+01  0.7508301E+03  0.1637770E+01  0.2803019E+04  0.8495803E+00  0.3170234E+02  0.1619119E+00  0.4505672E+06 -0.2720800E+01  0.7210491E+03 -0.1774081E+01  0.1038437E+06  0.1214375E+01  0.2490984E+02 -0.8244057E+00  0.1524477E+06 -0.1506826E+01  0.1624631E+03  0.2304107E+01  0.2548895E+05  0.1745346E+01  0.1285927E+04 -0.7048588E+00  0.5001754E+06 -0.1508874E+01  0.7508301E+03  0.1637770E+01  0.2803019E+04  0.8495803E+00  0.3170234E+02  0.1619119E+00  0.4505672E+06 -0.2720800E+01  0.7210491E+03 -0.1774081E+01  0.1038437E+06  0.1214375E+01  0.2490984E+02 -0.8244057E+00  0.1524477E+06 -0.1506826E+01  0.1624631E+03  0.2304107E+01  0.2548895E+05  0.1745346E+01  0.1285927E+04 -0.7048588E+00  0.5001754E+06 -0.1508874E+01  0.7508301E+03  0.1637770E+01
  0.1304082E+01  0.4817896E+04  0.1257683E+01  0.2878142E+02  0.6824315E+00  0.4877356E+06 -0.2706325E+01  0.8215435E+03 -0.1535634E+01  0.2203765E+06  0.1447745E+01  0.2881811E+02 -0.9407290E+00  0.1357449E+06 -0.1524060E+01  0.2105184E+03  0.2560102E+01  0.2811174E+05  0.1497344E+01  0.1645480E+04 -0.5361125E+00  0.5008093E+06 -0.1524862E+01  0.7187084E+03  0.1622951E+01  0.4817896E+04  0.1257683E+01  0.2878142E+02  0.6824315E+00  0.4877356E+06 -0.2706325E+01  0.8215435E+03 -0.1535634E+01  0.2203765E+06  0.1447745E+01  0.2881811E+02 -0.9407290E+00  0.1357449E+06 -0.1524060E+01  0.2105184E+03  0.2560102E+01  0.2811174E+05  0.1497344E+01  0.1645480E+04 -0.5361125E+00  0.5008093E+06 -0.1524862E+01  0.7187084E+03  0.1622951E+01  0.4817896E+04  0.1257683E+01  0.2878142E+02  0.6824315E+00  0.4877356E+06 -0.2706325E+01  0.8215435E+03 -0.1535634E+01  0.2203765E+06  0.1447745E+01  0.2881811E+02 -0.9407290E+00  0.1357449E+06 -0.1524060E+01  0.2105184E+03  0.2560102E+01  0.2811174E+05  0.1497344E+01  0.1645480E+04 -0.5361125E+00  0.5008093E+06 -0.1524862E+01  0.7187084E+03  0.1622951E+01
  0.1424490E+01  0.7902400E+04  0.1567370E+01  0.3143798E+02  0.1285616E+01  0.5114858E+06 -0.2699136E+01  0.9176157E+03 -0.1308869E+01  0.3671622E+06  0.1569874E+01  0.3164713E+02 -0.1080788E+01  0.1158350E+06 -0.1569988E+01  0.2627199E+03  0.2755257E+01  0.3042743E+05  0.1312503E+01  0.2025416E+04 -0.3966950E+00  0.4699756E+06 -0.1570146E+01  0.6454042E+03  0.1576512E+01  0.7902400E+04  0.1567370E+01  0.3143798E+02  0.1285616E+01  0.5114858E+06 -0.2699136E+01  0.9176157E+03 -0.1308869E+01  0.3671622E+06  0.1569874E+01  0.3164713E+02 -0.1080788E+01  0.1158350E+06 -0.1569988E+01  0.2627199E+03  0.2755257E+01  0.3042743E+05  0.1312503E+01  0.2025416E+04 -0.3966950E+00  0.4699756E+06 -0.1570146E+01  0.6454042E+03  0.1576512E+01  0.7902400E+04  0.1567370E+01  0.3143798E+02  0.1285616E+01  0.5114858E+06 -0.2699136E+01  0.9176157E+03 -0.1308869E+01  0.3671622E+06  0.1569874E+01  0.3164713E+02 -0.1080788E+01  0.1158350E+06 -0.1569988E+01  0.2627199E+03  0.2755257E+01  0.3042743E+05  0.1312503E+01  0.2025416E+04 -0.3966950E+00  0.4699756E+06 -0.1570146E+01  0.6454042E+03  0.1576512E+01
  0.1544898E+01  0.1207602E+05  0.1802819E+01  0.4163315E+02  0.1755735E+01  0.5201151E+06 -0.2697808E+01  0.1006349E+04 -0.1109826E+01  0.5336206E+06  0.1653213E+01  0.3353790E+02 -0.1258456E+01  0.9566128E+05 -0.1653123E+01  0.3125110E+03  0.2896240E+01  0.3181979E+05  0.1167647E+01  0.2381661E+04 -0.2869646E+00  0.4175747E+06 -0.1654898E+01  0.5432706E+03  0.1480615E+01  0.1207602E+05  0.1802819E+01  0.4163315E+02  0.1755735E+01  0.5201151E+06 -0.2697808E+01  0.1006349E+04 -0.1109826E+01  0.5336206E+06  0.1653213E+01  0.3353790E+02 -0.1258456E+01  0.9566128E+05 -0.1653123E+01  0.3125110E+03  0.2896240E+01  0.3181979E+05  0.1167647E+01  0.2381661E+04 -0.2869646E+00  0.4175747E+06 -0.1654898E+01  0.5432706E+03  0.1480615E+01  0.1207602E+05  0.1802819E+01  0.4163315E+02  0.1755735E+01  0.5201151E+06 -0.2697808E+01  0.1006349E+04 -0.1109826E+01  0.5336206E+06  0.1653213E+01  0.3353790E+02 -0.1258456E+01  0.9566128E+05 -0.1653123E+01  0.3125110E+03  0.2896240E+01  0.3181979E+05  0.1167647E+01  0.2381661E+04 -0.2869646E+00  0.4175747E+06 -0.1654898E+01  0.5432706E+03  0.1480615E+01
  0.1665306E+01  0.1719683E+05  0.1986510E+01  0.5635774E+02  0.2039335E+01  0.5123617E+06 -0.2701172E+01  0.1098837E+04 -0.9577611E+00  0.7074146E+06  0.1714637E+01  0.3525155E+02 -0.1489411E+01  0.7737839E+05 -0.1780580E+01  0.3534440E+03  0.2994372E+01  0.3220603E+05  0.1041104E+01  0.2667428E+04 -0.2035543E+00  0.3563765E+06 -0.1789000E+01  0.4292578E+03  0.1302323E+01  0.1719683E+05  0.1986510E+01  0.5635774E+02  0.2039335E+01  0.5123617E+06 -0.2701172E+01  0.1098837E+04 -0.9577611E+00  0.7074146E+06  0.1714637E+01  0.3525155E+02 -0.1489411E+01  0.7737839E+05 -0.1780580E+01  0.3534440E+03  0.2994372E+01  0.3220603E+05  0.1041104E+01  0.2667428E+04 -0.2035543E+00  0.3563765E+06 -0.1789000E+01  0.4292578E+03  0.1302323E+01  0.1719683E+05  0.1986510E+01  0.5635774E+02  0.2039335E+01  0.5123617E+06 -0.2701172E+01  0.1098837E+04 -0.9577611E+00  0.7074146E+06  0.1714637E+01  0.3525155E+02 -0.1489411E+01  0.7737839E+05 -0.1780580E+01  0.3534440E+03  0.2994372E+01  0.3220603E+05  0.1041104E+01  0.2667428E+04 -0.2035543E+00  0.3563765E+06 -0.1789000E+01  0.4292578E+03  0.1302323E+01
  0.1785714E+01  0.2297164E+05  0.2133990E+01  0.7337164E+02  0.2205418E+01  0.4877199E+06 -0.2708214E+01  0.1185049E+04 -0.8521471E+00  0.8748858E+06  0.1760476E+01  0.3701698E+02 -0.1802095E+01  0.6214944E+05 -0.1957634E+01  0.3807729E+03  0.3056795E+01  0.3154713E+05  0.9280425E+00  0.2844213E+04 -0.1458717E+00  0.2973581E+06 -0.1980593E+01  0.3278647E+03  0.9816845E+00  0.2297164E+05  0.2133990E+01  0.7337164E+02  0.2205418E+01  0.4877199E+06 -0.2708214E+01  0.1185049E+04 -0.8521471E+00  0.8748858E+06  0.1760476E+01  0.3701698E+02 -0.1802095E+01  0.6214944E+05 -0.1957634E+01  0.3807729E+03  0.3056795E+01  0.3154713E+05  0.9280425E+00  0.2844213E+04 -0.1458717E+00  0.2973581E+06 -0.1980593E+01  0.3278647E+03  0.9816845E+00  0.2297164E+05  0.2133990E+01  0.7337164E+02  0.2205418E+01  0.4877199E+06 -0.2708214E+01  0.1185049E+04 -0.8521471E+00  0.8748858E+06  0.1760476E+01  0.3701698E+02 -0.1802095E+01  0.6214944E+05 -0.1957634E+01  0.3807729E+03  0.3056795E+01  0.3154713E+05  0.9280425E+00  0.2844213E+04 -0.1458717E+00  0.2973581E+06 -0.1980593E+01  0.3278647E+03  0.9816845E+00
  0.1906122E+01  0.2898646E+05  0.2255759E+01  0.9243269E+02  0.2296292E+01  0.4464714E+06 -0.2718077E+01  0.1253292E+04 -0.7833547E+00  0.1021969E+07  0.1794271E+01  0.4204056E+02 -0.2157129E+01  0.5034558E+05 -0.2184476E+01  0.3907100E+03  0.3087758E+01  0.2998031E+05  0.8164808E+00  0.2885650E+04 -0.1146293E+00  0.2487862E+06 -0.2235014E+01  0.2762773E+03  0.4702034E+00  0.2898646E+05  0.2255759E+01  0.9243269E+02  0.2296292E+01  0.4464714E+06 -0.2718077E+01  0.1253292E+04 -0.7833547E+00  0.1021969E+07  0.1794271E+01  0.4204056E+02 -0.2157129E+01  0.5034558E+05 -0.2184476E+01  0.3907100E+03  0.3087758E+01  0.2998031E+05  0.8164808E+00  0.2885650E+04 -0.1146293E+00  0.2487862E+06 -0.2235014E+01  0.2762773E+03  0.4702034E+00  0.2898646E+05  0.2255759E+01  0.9243269E+02  0.2296292E+01  0.4464714E+06 -0.2718077E+01  0.1253292E+04 -0.7833547E+00  0.1021969E+07  0.1794271E+01  0.4204056E+02 -0.2157129E+01  0.5034558E+05 -0.2184476E+01  0.3907100E+03  0.3087758E+01  0.2998031E+05  0.8164808E+00  0.2885650E+04 -0.1146293E+00  0.2487862E+06 -0.2235014E+01  0.2762773E+03  0.4702034E+00
  0.2026531E+01  0.3473150E+05  0.2358857E+01  0.1103795E+03  0.2355767E+01  0.3899678E+06 -0.2730117E+01  0.1292958E+04 -0.7533202E+00  0.1135021E+07  0.1818471E+01  0.5200301E+02 -0.2489644E+01  0.4194140E+05 -0.2451148E+01  0.3825480E+03  0.3088413E+01  0.2772229E+05  0.7053004E+00  0.2786344E+04 -0.1108305E+00  0.2146055E+06 -0.2537582E+01  0.3013101E+03 -0.6278086E-01  0.3473150E+05  0.2358857E+01  0.1103795E+03  0.2355767E+01  0.3899678E+06 -0.2730117E+01  0.1292958E+04 -0.7533202E+00  0.1135021E+07  0.1818471E+01  0.5200301E+02 -0.2489644E+01  0.4194140E+05 -0.2451148E+01  0.3825480E+03  0.3088413E+01  0.2772229E+05  0.7053004E+00  0.2786344E+04 -0.1108305E+00  0.2146055E+06 -0.2537582E+01  0.3013101E+03 -0.6278086E-01  0.3473150E+05  0.2358857E+01  0.1103795E+03  0.2355767E+01  0.3899678E+06 -0.2730117E+01  0.1292958E+04 -0.7533202E+00  0.1135021E+07  0.1818471E+01  0.5200301E+02 -0.2489644E+01  0.4194140E+05 -0.2451148E+01  0.3825480E+03  0.3088413E+01  0.2772229E+05  0.7053004E+00  0.2786344E+04 -0.1108305E+00  0.2146055E+06 -0.2537582E+01  0.3013101E+03 -0.6278086E-01
  0.2146939E+01  0.3961963E+05  0.2449203E+01  0.1260709E+03  0.2380640E+01  0.3207169E+06 -0.2743634E+01  0.1284868E+04 -0.7499716E+00  0.1201462E+07  0.1835189E+01  0.6678506E+02 -0.2751478E+01  0.3619247E+05 -0.2744241E+01  0.3559724E+03  0.3055804E+01  0.2489133E+05  0.5881944E+00  0.2557590E+04 -0.1400812E+00  0.1950548E+06 -0.2864932E+01  0.3717272E+03 -0.4073772E+00  0.3961963E+05  0.2449203E+01  0.1260709E+03  0.2380640E+01  0.3207169E+06 -0.2743634E+01  0.1284868E+04 -0.7499716E+00  0.1201462E+07  0.1835189E+01  0.6678506E+02 -0.2751478E+01  0.3619247E+05 -0.2744241E+01  0.3559724E+03  0.3055804E+01  0.2489133E+05  0.5881944E+00  0.2557590E+04 -0.1400812E+00  0.1950548E+06 -0.2864932E+01  0.3717272E+03 -0.4073772E+00  0.3961963E+05  0.2449203E+01  0.1260709E+03  0.2380640E+01  0.3207169E+06 -0.2743634E+01  0.1284868E+04 -0.7499716E+00  0.1201462E+07  0.1835189E+01  0.6678506E+02 -0.2751478E+01  0.3619247E+05 -0.2744241E+01  0.3559724E+03  0.3055804E+01  0.2489133E+05  0.5881944E+00  0.2557590E+04 -0.1400812E+00  0.1950548E+06 -0.2864932E+01  0.3717272E+03 -0.4073772E+00
  0.2267347E+01  0.4303611E+05  0.2531198E+01  0.1340255E+03  0.2386896E+01  0.2424203E+06 -0.2758042E+01  0.1202770E+04 -0.7974105E+00  0.1211257E+07  0.1846066E+01  0.8499693E+02 -0.2930131E+01  0.3237014E+05 -0.3034857E+01  0.3150805E+03  0.2980537E+01  0.2171083E+05  0.4658191E+00  0.2226615E+04 -0.2114619E+00  0.1848978E+06  0.3102988E+01  0.4377926E+03 -0.5978885E+00  0.4303611E+05  0.2531198E+01  0.1340255E+03  0.2386896E+01  0.2424203E+06 -0.2758042E+01  0.1202770E+04 -0.7974105E+00  0.1211257E+07  0.1846066E+01  0.8499693E+02 -0.2930131E+01  0.3237014E+05 -0.3034857E+01  0.3150805E+03  0.2980537E+01  0.2171083E+05  0.4658191E+00  0.2226615E+04 -0.2114619E+00  0.1848978E+06  0.3102988E+01  0.4377926E+03 -0.5978885E+00  0.4303611E+05  0.2531198E+01  0.1340255E+03  0.2386896E+01  0.2424203E+06 -0.2758042E+01  0.1202770E+04 -0.7974105E+00  0.1211257E+07  0.1846066E+01  0.8499693E+02 -0.2930131E+01  0.3237014E+05 -0.3034857E+01  0.3150805E+03  0.2980537E+01  0.2171083E+05  0.4658191E+00  0.2226615E+04 -0.2114619E+00  0.1848978E+06  0.3102988E+01  0.4377926E+03 -0.5978885E+00
  0.2387755E+01  0.4440006E+05  0.2609617E+01  0.1303668E+03  0.2336997E+01  0.1598659E+06 -0.2772235E+01  0.1048190E+04 -0.9332882E+00  0.1158175E+07  0.1852723E+01  0.1033929E+03 -0.3043205E+01  0.2969970E+05  0.2965405E+01  0.2643374E+03  0.2839157E+01  0.1841278E+05  0.3322597E+00  0.1837577E+04 -0.3456006E+00  0.1801928E+06  0.2817368E+01  0.4690504E+03 -0.7174498E+00  0.4440006E+05  0.2609617E+01  0.1303668E+03  0.2336997E+01  0.1598659E+06 -0.2772235E+01  0.1048190E+04 -0.9332882E+00  0.1158175E+07  0.1852723E+01  0.1033929E+03 -0.3043205E+01  0.2969970E+05  0.2965405E+01  0.2643374E+03  0.2839157E+01  0.1841278E+05  0.3322597E+00  0.1837577E+04 -0.3456006E+00  0.1801928E+06  0.2817368E+01  0.4690504E+03 -0.7174498E+00  0.4440006E+05  0.2609617E+01  0.1303668E+03  0.2336997E+01  0.1598659E+06 -0.2772235E+01  0.1048190E+04 -0.9332882E+00  0.1158175E+07  0.1852723E+01  0.1033929E+03 -0.3043205E+01  0.2969970E+05  0.2965405E+01  0.2643374E+03  0.2839157E+01  0.1841278E+05  0.3322597E+00  0.1837577E+04 -0.3456006E+00  0.1801928E+06  0.2817368E+01  0.4690504E+03 -0.7174498E+00
  0.2508163E+01  0.4324151E+05  0.2689795E+01  0.1138414E+03  0.2180838E+01  0.7863056E+05 -0.2782620E+01  0.9071772E+03 -0.1245916E+01  0.1041360E+07  0.1856705E+01  0.1175527E+03 -0.3104635E+01  0.2738874E+05  0.2703150E+01  0.2166021E+03  0.2593360E+01  0.1499254E+05  0.1863437E+00  0.1468834E+04 -0.5836615E+00  0.1759292E+06  0.2561259E+01  0.4578729E+03 -0.8233843E+00  0.4324151E+05  0.2689795E+01  0.1138414E+03  0.2180838E+01  0.7863056E+05 -0.2782620E+01  0.9071772E+03 -0.1245916E+01  0.1041360E+07  0.1856705E+01  0.1175527E+03 -0.3104635E+01  0.2738874E+05  0.2703150E+01  0.2166021E+03  0.2593360E+01  0.1499254E+05  0.1863437E+00  0.1468834E+04 -0.5836615E+00  0.1759292E+06  0.2561259E+01  0.4578729E+03 -0.8233843E+00  0.4324151E+05  0.2689795E+01  0.1138414E+03  0.2180838E+01  0.7863056E+05 -0.2782620E+01  0.9071772E+03 -0.1245916E+01  0.1041360E+07  0.1856705E+01  0.1175527E+03 -0.3104635E+01  0.2738874E+05  0.2703150E+01  0.2166021E+03  0.2593360E+01  0.1499254E+05  0.1863437E+00  0.1468834E+04 -0.5836615E+00  0.1759292E+06  0.2561259E+01  0.4578729E+03 -0.8233843E+00
  0.2628571E+01  0.3930748E+05  0.2780410E+01  0.9665769E+02  0.1748741E+01  0.4748427E+04 -0.2583807E+01  0.9476841E+03 -0.1709834E+01  0.8665113E+06  0.1860087E+01  0.1227936E+03 -0.3124586E+01  0.2518985E+05  0.2460624E+01  0.1893919E+03  0.2231817E+01  0.1190245E+05  0.2932734E-01  0.1235691E+04 -0.9420784E+00  0.1700634E+06  0.2333774E+01  0.4150255E+03 -0.9466847E+00  0.3930748E+05  0.2780410E+01  0.9665769E+02  0.1748741E+01  0.4748427E+04 -0.2583807E+01  0.9476841E+03 -0.1709834E+01  0.8665113E+06  0.1860087E+01  0.1227936E+03 -0.3124586E+01  0.2518985E+05  0.2460624E+01  0.1893919E+03  0.2231817E+01  0.1190245E+05  0.2932734E-01  0.1235691E+04 -0.9420784E+00  0.1700634E+06  0.2333774E+01  0.4150255E+03 -0.9466847E+00  0.3930748E+05  0.2780410E+01  0.9665769E+02  0.1748741E+01  0.4748427E+04 -0.2583807E+01  0.9476841E+03 -0.1709834E+01  0.8665113E+06  0.1860087E+01  0.1227936E+03 -0.3124586E+01  0.2518985E+05  0.2460624E+01  0.1893919E+03  0.2231817E+01  0.1190245E+05  0.2932734E-01  0.1235691E+04 -0.9420784E+00  0.1700634E+06  0.2333774E+01  0.4150255E+03 -0.9466847E+00
  0.2748980E+01  0.3269447E+05  0.2898976E+01  0.1175903E+03  0.1128793E+01  0.5658442E+05  0.2901544E+00  0.1219827E+04 -0.2051458E+01  0.6465349E+06  0.1866644E+01  0.1146141E+03 -0.3115185E+01  0.2302497E+05  0.2229223E+01  0.1897652E+03  0.1855749E+01  0.8951025E+04 -0.1575973E+00  0.1189093E+04 -0.1338046E+01  0.1622952E+06  0.2125809E+01  0.3563842E+03 -0.1094182E+01  0.3269447E+05  0.2898976E+01  0.1175903E+03  0.1128793E+01  0.5658442E+05  0.2901544E+00  0.1219827E+04 -0.2051458E+01  0.6465349E+06  0.1866644E+01  0.1146141E+03 -0.3115185E+01  0.2302497E+05  0.2229223E+01  0.1897652E+03  0.1855749E+01  0.8951025E+04 -0.1575973E+00  0.1189093E+04 -0.1338046E+01  0.1622952E+06  0.2125809E+01  0.3563842E+03 -0.1094182E+01  0.3269447E+05  0.2898976E+01  0.1175903E+03  0.1128793E+01  0.5658442E+05  0.2901544E+00  0.1219827E+04 -0.2051458E+01  0.6465349E+06  0.1866644E+01  0.1146141E+03 -0.3115185E+01  0.2302497E+05  0.2229223E+01  0.1897652E+03  0.1855749E+01  0.8951025E+04 -0.1575973E+00  0.1189093E+04 -0.1338046E+01  0.1622952E+06  0.2125809E+01  0.3563842E+03 -0.1094182E+01
  0.2869388E+01  0.2407169E+05  0.3092168E+01  0.1797388E+03  0.8119938E+00  0.1003835E+06  0.2799830E+00  0.1563033E+04 -0.2218628E+01  0.4012432E+06  0.1887682E+01  0.9263372E+02 -0.3092628E+01  0.2058343E+05  0.2011451E+01  0.2020970E+03  0.1582636E+01  0.6442795E+04 -0.3632552E+00  0.1239636E+04 -0.1645523E+01  0.1517337E+06  0.1934351E+01  0.2882374E+03 -0.1261310E+01  0.2407169E+05  0.3092168E+01  0.1797388E+03  0.8119938E+00  0.1003835E+06  0.2799830E+00  0.1563033E+04 -0.2218628E+01  0.4012432E+06  0.1887682E+01  0.9263372E+02 -0.3092628E+01  0.2058343E+05  0.2011451E+01  0.2020970E+03  0.1582636E+01  0.6442795E+04 -0.3632552E+00  0.1239636E+04 -0.1645523E+01  0.1517337E+06  0.1934351E+01  0.2882374E+03 -0.1261310E+01  0.2407169E+05  0.3092168E+01  0.1797388E+03  0.8119938E+00  0.1003835E+06  0.2799830E+00  0.1563033E+04 -0.2218628E+01  0.4012432E+06  0.1887682E+01  0.9263372E+02 -0.3092628E+01  0.2058343E+05  0.2011451E+01  0.2020970E+03  0.1582636E+01  0.6442795E+04 -0.3632552E+00  0.1239636E+04 -0.1645523E+01  0.1517337E+06  0.1934351E+01  0.2882374E+03 -0.1261310E+01
  0.2989796E+01  0.1540653E+05 -0.2767967E+01  0.2481535E+03  0.7060353E+00  0.1239958E+06  0.2637967E+00  0.1863041E+04 -0.2301060E+01  0.1564516E+06  0.1997162E+01  0.6281145E+02 -0.3045453E+01  0.1820964E+05  0.1812974E+01  0.2139538E+03  0.1376294E+01  0.4424823E+04 -0.6204796E+00  0.1313415E+04 -0.1871408E+01  0.1396133E+06  0.1764518E+01  0.2352625E+03 -0.1471882E+01  0.1540653E+05 -0.2767967E+01  0.2481535E+03  0.7060353E+00  0.1239958E+06  0.2637967E+00  0.1863041E+04 -0.2301060E+01  0.1564516E+06  0.1997162E+01  0.6281145E+02 -0.3045453E+01  0.1820964E+05  0.1812974E+01  0.2139538E+03  0.1376294E+01  0.4424823E+04 -0.6204796E+00  0.1313415E+04 -0.1871408E+01  0.1396133E+06  0.1764518E+01  0.2352625E+03 -0.1471882E+01  0.1540653E+05 -0.2767967E+01  0.2481535E+03  0.7060353E+00  0.1239958E+06  0.2637967E+00  0.1863041E+04 -0.2301060E+01  0.1564516E+06  0.1997162E+01  0.6281145E+02 -0.3045453E+01  0.1820964E+05  0.1812974E+01  0.2139538E+03  0.1376294E+01  0.4424823E+04 -0.6204796E+00  0.1313415E+04 -0.1871408E+01  0.1396133E+06  0.1764518E+01  0.2352625E+03 -0.1471882E+01
  0.3110204E+01  0.1263675E+05 -0.1865400E+01  0.2996921E+03  0.6211665E+00  0.1269764E+06  0.2454362E+00  0.2083025E+04 -0.2343348E+01  0.7331755E+05 -0.1768498E+01  0.3175128E+02 -0.2729753E+01  0.1576540E+05  0.1628689E+01  0.1907331E+03  0.1147012E+01  0.2860962E+04 -0.9868078E+00  0.1146379E+04 -0.2143043E+01  0.1259723E+06  0.1614444E+01  0.1408772E+03 -0.1870264E+01  0.1263675E+05 -0.1865400E+01  0.2996921E+03  0.6211665E+00  0.1269764E+06  0.2454362E+00  0.2083025E+04 -0.2343348E+01  0.7331755E+05 -0.1768498E+01  0.3175128E+02 -0.2729753E+01  0.1576540E+05  0.1628689E+01  0.1907331E+03  0.1147012E+01  0.2860962E+04 -0.9868078E+00  0.1146379E+04 -0.2143043E+01  0.1259723E+06  0.1614444E+01  0.1408772E+03 -0.1870264E+01  0.1263675E+05 -0.1865400E+01  0.2996921E+03  0.6211665E+00  0.1269764E+06  0.2454362E+00  0.2083025E+04 -0.2343348E+01  0.7331755E+05 -0.1768498E+01  0.3175128E+02 -0.2729753E+01  0.1576540E+05  0.1628689E+01  0.1907331E+03  0.1147012E+01  0.2860962E+04 -0.9868078E+00  0.1146379E+04 -0.2143043E+01  0.1259723E+06  0.1614444E+01  0.1408772E+03 -0.1870264E+01