 VARIABLES="Time (s)"
"IRF    1"
"IRF    2"
"IRF    3"
"IRF    4"
"IRF    5"
"IRF    6"
"IRF    7"
"IRF    8"
"IRF    9"
"IRF   10"
"IRF   11"
"IRF   12"
"IRF   13"
"IRF   14"
"IRF   15"
"IRF   16"
"IRF   17"
"IRF   18"
"IRF   19"
"IRF   20"
"IRF   21"
"IRF   22"
"IRF   23"
"IRF   24"
"IRF   25"
"IRF   26"
"IRF   27"
"IRF   28"
"IRF   29"
"IRF   30"
"IRF   31"
"IRF   32"
"IRF   33"
"IRF   34"
"IRF   35"
"IRF   36"
Zone t="beta  0.0000000E+00",I=   199,F=POINT
 -0.9800000E+01  0.7043632E+03  0.8459340E+01 -0.2120600E+05 -0.9985798E+01 -0.2322989E+04 -0.3475713E+00 -0.5964982E+03  0.2250189E+01 -0.1771713E+03 -0.1140820E+02 -0.2511105E+03  0.6286109E+00  0.7043632E+03  0.8459340E+01 -0.2120600E+05 -0.9985798E+01 -0.2322989E+04 -0.3475713E+00 -0.5964982E+03  0.2250189E+01 -0.1771713E+03 -0.1140820E+02 -0.2511105E+03  0.6286109E+00  0.7043632E+03  0.8459340E+01 -0.2120600E+05 -0.9985798E+01 -0.2322989E+04 -0.3475713E+00 -0.5964982E+03  0.2250189E+01 -0.1771713E+03 -0.1140820E+02 -0.2511105E+03  0.6286109E+00
 -0.9700000E+01  0.7850284E+03  0.7957420E+01 -0.2134136E+05 -0.4477419E+01 -0.2420833E+04 -0.4961034E+01 -0.6174974E+03  0.2327370E+01 -0.1861661E+03 -0.1086911E+02 -0.2800028E+03  0.1048338E+01  0.7850284E+03  0.7957420E+01 -0.2134136E+05 -0.4477419E+01 -0.2420833E+04 -0.4961034E+01 -0.6174974E+03  0.2327370E+01 -0.1861661E+03 -0.1086911E+02 -0.2800028E+03  0.1048338E+01  0.7850284E+03  0.7957420E+01 -0.2134136E+05 -0.4477419E+01 -0.2420833E+04 -0.4961034E+01 -0.6174974E+03  0.2327370E+01 -0.1861661E+03 -0.1086911E+02 -0.2800028E+03  0.1048338E+01
 -0.9600000E+01  0.5820930E+03  0.4594501E+01 -0.2141978E+05  0.3068945E+01 -0.1955044E+04 -0.8140889E+01 -0.6297280E+03  0.1643524E+01 -0.1966475E+03 -0.6868223E+01 -0.2594739E+03  0.1322335E+01  0.5820930E+03  0.4594501E+01 -0.2141978E+05  0.3068945E+01 -0.1955044E+04 -0.8140889E+01 -0.6297280E+03  0.1643524E+01 -0.1966475E+03 -0.6868223E+01 -0.2594739E+03  0.1322335E+01  0.5820930E+03  0.4594501E+01 -0.2141978E+05  0.3068945E+01 -0.1955044E+04 -0.8140889E+01 -0.6297280E+03  0.1643524E+01 -0.1966475E+03 -0.6868223E+01 -0.2594739E+03  0.1322335E+01
 -0.9500000E+01  0.1482415E+03 -0.6404143E+00 -0.2145549E+05  0.1031509E+02 -0.1055179E+04 -0.8679366E+01 -0.6352455E+03  0.3244922E+00 -0.2059263E+03 -0.1047496E+00 -0.1994218E+03  0.1436016E+01  0.1482415E+03 -0.6404143E+00 -0.2145549E+05  0.1031509E+02 -0.1055179E+04 -0.8679366E+01 -0.6352455E+03  0.3244922E+00 -0.2059263E+03 -0.1047496E+00 -0.1994218E+03  0.1436016E+01  0.1482415E+03 -0.6404143E+00 -0.2145549E+05  0.1031509E+02 -0.1055179E+04 -0.8679366E+01 -0.6352455E+03  0.3244922E+00 -0.2059263E+03 -0.1047496E+00 -0.1994218E+03  0.1436016E+01
 -0.9400001E+01 -0.3790338E+03 -0.6043562E+01 -0.2147860E+05  0.1480896E+02 -0.1372669E+02 -0.6212014E+01 -0.6386375E+03 -0.1271088E+01 -0.2117970E+03  0.7685890E+01 -0.1214943E+03  0.1441205E+01 -0.3790338E+03 -0.6043562E+01 -0.2147860E+05  0.1480896E+02 -0.1372669E+02 -0.6212014E+01 -0.6386375E+03 -0.1271088E+01 -0.2117970E+03  0.7685890E+01 -0.1214943E+03  0.1441205E+01 -0.3790338E+03 -0.6043562E+01 -0.2147860E+05  0.1480896E+02 -0.1372669E+02 -0.6212014E+01 -0.6386375E+03 -0.1271088E+01 -0.2117970E+03  0.7685890E+01 -0.1214943E+03  0.1441205E+01
 -0.9300000E+01 -0.8201383E+03 -0.9746279E+01 -0.2152591E+05  0.1480568E+02  0.8043335E+03 -0.1396867E+01 -0.6455034E+03 -0.2657248E+01 -0.2131092E+03  0.1423214E+02 -0.5170868E+02  0.1434173E+01 -0.8201383E+03 -0.9746279E+01 -0.2152591E+05  0.1480568E+02  0.8043335E+03 -0.1396867E+01 -0.6455034E+03 -0.2657248E+01 -0.2131092E+03  0.1423214E+02 -0.5170868E+02  0.1434173E+01 -0.8201383E+03 -0.9746279E+01 -0.2152591E+05  0.1480568E+02  0.8043335E+03 -0.1396867E+01 -0.6455034E+03 -0.2657248E+01 -0.2131092E+03  0.1423214E+02 -0.5170868E+02  0.1434173E+01
 -0.9200000E+01 -0.1013350E+04 -0.1035146E+02 -0.2162850E+05  0.9913264E+01  0.1083378E+04  0.4248871E+01 -0.6605997E+03 -0.3376159E+01 -0.2100497E+03  0.1744254E+02 -0.1196395E+02  0.1517839E+01 -0.1013350E+04 -0.1035146E+02 -0.2162850E+05  0.9913264E+01  0.1083378E+04  0.4248871E+01 -0.6605997E+03 -0.3376159E+01 -0.2100497E+03  0.1744254E+02 -0.1196395E+02  0.1517839E+01 -0.1013350E+04 -0.1035146E+02 -0.2162850E+05  0.9913264E+01  0.1083378E+04  0.4248871E+01 -0.6605997E+03 -0.3376159E+01 -0.2100497E+03  0.1744254E+02 -0.1196395E+02  0.1517839E+01
 -0.9100000E+01 -0.8725352E+03 -0.7445170E+01 -0.2180051E+05  0.1339509E+01  0.6710648E+03  0.8818267E+01 -0.6861724E+03 -0.3154100E+01 -0.2040206E+03  0.1610967E+02 -0.1271252E+02  0.1760657E+01 -0.8725352E+03 -0.7445170E+01 -0.2180051E+05  0.1339509E+01  0.6710648E+03  0.8818267E+01 -0.6861724E+03 -0.3154100E+01 -0.2040206E+03  0.1610967E+02 -0.1271252E+02  0.1760657E+01 -0.8725352E+03 -0.7445170E+01 -0.2180051E+05  0.1339509E+01  0.6710648E+03  0.8818267E+01 -0.6861724E+03 -0.3154100E+01 -0.2040206E+03  0.1610967E+02 -0.1271252E+02  0.1760657E+01
 -0.9000000E+01 -0.4224133E+03 -0.1800685E+01 -0.2203273E+05 -0.8378026E+01 -0.3566769E+03  0.1064745E+02 -0.7212877E+03 -0.2004676E+01 -0.1971670E+03  0.1036374E+02 -0.5007383E+02  0.2167368E+01 -0.4224133E+03 -0.1800685E+01 -0.2203273E+05 -0.8378026E+01 -0.3566769E+03  0.1064745E+02 -0.7212877E+03 -0.2004676E+01 -0.1971670E+03  0.1036374E+02 -0.5007383E+02  0.2167368E+01 -0.4224133E+03 -0.1800685E+01 -0.2203273E+05 -0.8378026E+01 -0.3566769E+03  0.1064745E+02 -0.7212877E+03 -0.2004676E+01 -0.1971670E+03  0.1036374E+02 -0.5007383E+02  0.2167368E+01
 -0.8900001E+01  0.2022405E+03  0.4811907E+01 -0.2229374E+05 -0.1610704E+02 -0.1703450E+04  0.8904456E+01 -0.7620002E+03 -0.2408872E+00 -0.1917334E+03  0.1705797E+01 -0.1070293E+03  0.2669892E+01  0.2022405E+03  0.4811907E+01 -0.2229374E+05 -0.1610704E+02 -0.1703450E+04  0.8904456E+01 -0.7620002E+03 -0.2408872E+00 -0.1917334E+03  0.1705797E+01 -0.1070293E+03  0.2669892E+01  0.2022405E+03  0.4811907E+01 -0.2229374E+05 -0.1610704E+02 -0.1703450E+04  0.8904456E+01 -0.7620002E+03 -0.2408872E+00 -0.1917334E+03  0.1705797E+01 -0.1070293E+03  0.2669892E+01
 -0.8800000E+01  0.7955364E+03  0.1016834E+02 -0.2253881E+05 -0.1911071E+02 -0.2937189E+04  0.3930305E+01 -0.8027483E+03  0.1612229E+01 -0.1894094E+03 -0.7408876E+01 -0.1593687E+03  0.3144246E+01  0.7955364E+03  0.1016834E+02 -0.2253881E+05 -0.1911071E+02 -0.2937189E+04  0.3930305E+01 -0.8027483E+03  0.1612229E+01 -0.1894094E+03 -0.7408876E+01 -0.1593687E+03  0.3144246E+01  0.7955364E+03  0.1016834E+02 -0.2253881E+05 -0.1911071E+02 -0.2937189E+04  0.3930305E+01 -0.8027483E+03  0.1612229E+01 -0.1894094E+03 -0.7408876E+01 -0.1593687E+03  0.3144246E+01
 -0.8700000E+01  0.1146591E+04  0.1232128E+02 -0.2272401E+05 -0.1599168E+02 -0.3627712E+04 -0.2798724E+01 -0.8382686E+03  0.2980967E+01 -0.1908517E+03 -0.1432499E+02 -0.1840780E+03  0.3447627E+01  0.1146591E+04  0.1232128E+02 -0.2272401E+05 -0.1599168E+02 -0.3627712E+04 -0.2798724E+01 -0.8382686E+03  0.2980967E+01 -0.1908517E+03 -0.1432499E+02 -0.1840780E+03  0.3447627E+01  0.1146591E+04  0.1232128E+02 -0.2272401E+05 -0.1599168E+02 -0.3627712E+04 -0.2798724E+01 -0.8382686E+03  0.2980967E+01 -0.1908517E+03 -0.1432499E+02 -0.1840780E+03  0.3447627E+01
 -0.8600000E+01  0.1112102E+04  0.1028378E+02 -0.2282136E+05 -0.7264448E+01 -0.3494550E+04 -0.9098408E+01 -0.8656033E+03  0.3430212E+01 -0.1955247E+03 -0.1703768E+02 -0.1674373E+03  0.3465647E+01  0.1112102E+04  0.1028378E+02 -0.2282136E+05 -0.7264448E+01 -0.3494550E+04 -0.9098408E+01 -0.8656033E+03  0.3430212E+01 -0.1955247E+03 -0.1703768E+02 -0.1674373E+03  0.3465647E+01  0.1112102E+04  0.1028378E+02 -0.2282136E+05 -0.7264448E+01 -0.3494550E+04 -0.9098408E+01 -0.8656033E+03  0.3430212E+01 -0.1955247E+03 -0.1703768E+02 -0.1674373E+03  0.3465647E+01
 -0.8500000E+01  0.6709684E+03  0.4431800E+01 -0.2282986E+05  0.4648548E+01 -0.2515315E+04 -0.1277239E+02 -0.8852935E+03  0.2814382E+01 -0.2018949E+03 -0.1486896E+02 -0.1099161E+03  0.3152609E+01  0.6709684E+03  0.4431800E+01 -0.2282986E+05  0.4648548E+01 -0.2515315E+04 -0.1277239E+02 -0.8852935E+03  0.2814382E+01 -0.2018949E+03 -0.1486896E+02 -0.1099161E+03  0.3152609E+01  0.6709684E+03  0.4431800E+01 -0.2282986E+05  0.4648548E+01 -0.2515315E+04 -0.1277239E+02 -0.8852935E+03  0.2814382E+01 -0.2018949E+03 -0.1486896E+02 -0.1099161E+03  0.3152609E+01
 -0.8400001E+01 -0.5895846E+02 -0.3526899E+01 -0.2277829E+05  0.1605077E+02 -0.9558376E+03 -0.1235787E+02 -0.9015291E+03  0.1337875E+01 -0.2079026E+03 -0.8727285E+01 -0.2666345E+02  0.2553037E+01 -0.5895846E+02 -0.3526899E+01 -0.2277829E+05  0.1605077E+02 -0.9558376E+03 -0.1235787E+02 -0.9015291E+03  0.1337875E+01 -0.2079026E+03 -0.8727285E+01 -0.2666345E+02  0.2553037E+01 -0.5895846E+02 -0.3526899E+01 -0.2277829E+05  0.1605077E+02 -0.9558376E+03 -0.1235787E+02 -0.9015291E+03  0.1337875E+01 -0.2079026E+03 -0.8727285E+01 -0.2666345E+02  0.2553037E+01
 -0.8300000E+01 -0.8503062E+03 -0.1103547E+02 -0.2271860E+05  0.2307590E+02  0.6947194E+03 -0.7673341E+01 -0.9210424E+03 -0.4985725E+00 -0.2115593E+03 -0.8509549E+00  0.5735367E+02  0.1795316E+01 -0.8503062E+03 -0.1103547E+02 -0.2271860E+05  0.2307590E+02  0.6947194E+03 -0.7673341E+01 -0.9210424E+03 -0.4985725E+00 -0.2115593E+03 -0.8509549E+00  0.5735367E+02  0.1795316E+01 -0.8503062E+03 -0.1103547E+02 -0.2271860E+05  0.2307590E+02  0.6947194E+03 -0.7673341E+01 -0.9210424E+03 -0.4985725E+00 -0.2115593E+03 -0.8509549E+00  0.5735367E+02  0.1795316E+01
 -0.8200000E+01 -0.1435039E+04 -0.1548734E+02 -0.2271054E+05  0.2293784E+02  0.1869106E+04  0.2882590E-01 -0.9509092E+03 -0.2053900E+01 -0.2115309E+03  0.5904221E+01  0.1160849E+03  0.1058241E+01 -0.1435039E+04 -0.1548734E+02 -0.2271054E+05  0.2293784E+02  0.1869106E+04  0.2882590E-01 -0.9509092E+03 -0.2053900E+01 -0.2115309E+03  0.5904221E+01  0.1160849E+03  0.1058241E+01 -0.1435039E+04 -0.1548734E+02 -0.2271054E+05  0.2293784E+02  0.1869106E+04  0.2882590E-01 -0.9509092E+03 -0.2053900E+01 -0.2115309E+03  0.5904221E+01  0.1160849E+03  0.1058241E+01
 -0.8100000E+01 -0.1592473E+04 -0.1509843E+02 -0.2280266E+05  0.1493978E+02  0.2104730E+04  0.8380834E+01 -0.9962479E+03 -0.2758118E+01 -0.2074815E+03  0.9016860E+01  0.1314816E+03  0.5210188E+00 -0.1592473E+04 -0.1509843E+02 -0.2280266E+05  0.1493978E+02  0.2104730E+04  0.8380834E+01 -0.9962479E+03 -0.2758118E+01 -0.2074815E+03  0.9016860E+01  0.1314816E+03  0.5210188E+00 -0.1592473E+04 -0.1509843E+02 -0.2280266E+05  0.1493978E+02  0.2104730E+04  0.8380834E+01 -0.9962479E+03 -0.2758118E+01 -0.2074815E+03  0.9016860E+01  0.1314816E+03  0.5210188E+00
 -0.8000000E+01 -0.1228117E+04 -0.9566318E+01 -0.2301524E+05  0.8889827E+00  0.1207718E+04  0.1461307E+02 -0.1058195E+04 -0.2310606E+01 -0.2001134E+03  0.7180821E+01  0.1013287E+03  0.3103749E+00 -0.1228117E+04 -0.9566318E+01 -0.2301524E+05  0.8889827E+00  0.1207718E+04  0.1461307E+02 -0.1058195E+04 -0.2310606E+01 -0.2001134E+03  0.7180821E+01  0.1013287E+03  0.3103749E+00 -0.1228117E+04 -0.9566318E+01 -0.2301524E+05  0.8889827E+00  0.1207718E+04  0.1461307E+02 -0.1058195E+04 -0.2310606E+01 -0.2001134E+03  0.7180821E+01  0.1013287E+03  0.3103749E+00
 -0.7900000E+01 -0.4163208E+03 -0.2848460E+00 -0.2333081E+05 -0.1525508E+02 -0.6586042E+03  0.1644994E+02 -0.1133208E+04 -0.7985526E+00 -0.1909154E+03  0.8186100E+00  0.4162702E+02  0.4632831E+00 -0.4163208E+03 -0.2848460E+00 -0.2333081E+05 -0.1525508E+02 -0.6586042E+03  0.1644994E+02 -0.1133208E+04 -0.7985526E+00 -0.1909154E+03  0.8186100E+00  0.4162702E+02  0.4632831E+00 -0.4163208E+03 -0.2848460E+00 -0.2333081E+05 -0.1525508E+02 -0.6586042E+03  0.1644994E+02 -0.1133208E+04 -0.7985526E+00 -0.1909154E+03  0.8186100E+00  0.4162702E+02  0.4632831E+00
 -0.7800000E+01  0.6102352E+03  0.9986013E+01 -0.2369583E+05 -0.2845946E+02 -0.2994226E+04  0.1290415E+02 -0.1213772E+04  0.1309155E+01 -0.1816611E+03 -0.7968885E+01 -0.1646001E+02  0.9160188E+00  0.6102352E+03  0.9986013E+01 -0.2369583E+05 -0.2845946E+02 -0.2994226E+04  0.1290415E+02 -0.1213772E+04  0.1309155E+01 -0.1816611E+03 -0.7968885E+01 -0.1646001E+02  0.9160188E+00  0.6102352E+03  0.9986013E+01 -0.2369583E+05 -0.2845946E+02 -0.2994226E+04  0.1290415E+02 -0.1213772E+04  0.1309155E+01 -0.1816611E+03 -0.7968885E+01 -0.1646001E+02  0.9160188E+00
 -0.7700000E+01  0.1524584E+04  0.1792334E+02 -0.2403467E+05 -0.3413192E+02 -0.5095453E+04  0.4699422E+01 -0.1290629E+04  0.3296851E+01 -0.1738053E+03 -0.1602362E+02 -0.3557385E+02  0.1525750E+01  0.1524584E+04  0.1792334E+02 -0.2403467E+05 -0.3413192E+02 -0.5095453E+04  0.4699422E+01 -0.1290629E+04  0.3296851E+01 -0.1738053E+03 -0.1602362E+02 -0.3557385E+02  0.1525750E+01  0.1524584E+04  0.1792334E+02 -0.2403467E+05 -0.3413192E+02 -0.5095453E+04  0.4699422E+01 -0.1290629E+04  0.3296851E+01 -0.1738053E+03 -0.1602362E+02 -0.3557385E+02  0.1525750E+01
 -0.7600000E+01  0.2006113E+04  0.2068637E+02 -0.2427139E+05 -0.2962923E+02 -0.6263738E+04 -0.5840902E+01 -0.1355730E+04  0.4429420E+01 -0.1680018E+03 -0.2015450E+02  0.1644404E+02  0.2116691E+01  0.2006113E+04  0.2068637E+02 -0.2427139E+05 -0.2962923E+02 -0.6263738E+04 -0.5840902E+01 -0.1355730E+04  0.4429420E+01 -0.1680018E+03 -0.2015450E+02  0.1644404E+02  0.2116691E+01  0.2006113E+04  0.2068637E+02 -0.2427139E+05 -0.2962923E+02 -0.6263738E+04 -0.5840902E+01 -0.1355730E+04  0.4429420E+01 -0.1680018E+03 -0.2015450E+02  0.1644404E+02  0.2116691E+01
 -0.7500000E+01  0.1847235E+04  0.1688163E+02 -0.2435375E+05 -0.1528298E+02 -0.6031955E+04 -0.1543680E+02 -0.1405255E+04  0.4200593E+01 -0.1638019E+03 -0.1823675E+02  0.1549451E+03  0.2539184E+01  0.1847235E+04  0.1688163E+02 -0.2435375E+05 -0.1528298E+02 -0.6031955E+04 -0.1543680E+02 -0.1405255E+04  0.4200593E+01 -0.1638019E+03 -0.1823675E+02  0.1549451E+03  0.2539184E+01  0.1847235E+04  0.1688163E+02 -0.2435375E+05 -0.1528298E+02 -0.6031955E+04 -0.1543680E+02 -0.1405255E+04  0.4200593E+01 -0.1638019E+03 -0.1823675E+02  0.1549451E+03  0.2539184E+01
 -0.7400000E+01  0.1032023E+04  0.7130159E+01 -0.2427193E+05  0.5420519E+01 -0.4334359E+04 -0.2085163E+02 -0.1441386E+04  0.2522589E+01 -0.1597046E+03 -0.1003335E+02  0.3719316E+03  0.2719957E+01  0.1032023E+04  0.7130159E+01 -0.2427193E+05  0.5420519E+01 -0.4334359E+04 -0.2085163E+02 -0.1441386E+04  0.2522589E+01 -0.1597046E+03 -0.1003335E+02  0.3719316E+03  0.2719957E+01  0.1032023E+04  0.7130159E+01 -0.2427193E+05  0.5420519E+01 -0.4334359E+04 -0.2085163E+02 -0.1441386E+04  0.2522589E+01 -0.1597046E+03 -0.1003335E+02  0.3719316E+03  0.2719957E+01
 -0.7300000E+01 -0.2412514E+03 -0.5972446E+01 -0.2406595E+05  0.2663479E+02 -0.1565417E+04 -0.1994698E+02 -0.1472621E+04 -0.2105825E+00 -0.1534418E+03  0.2560150E+01  0.6350501E+03  0.2690136E+01 -0.2412514E+03 -0.5972446E+01 -0.2406595E+05  0.2663479E+02 -0.1565417E+04 -0.1994698E+02 -0.1472621E+04 -0.2105825E+00 -0.1534418E+03  0.2560150E+01  0.6350501E+03  0.2690136E+01 -0.2412514E+03 -0.5972446E+01 -0.2406595E+05  0.2663479E+02 -0.1565417E+04 -0.1994698E+02 -0.1472621E+04 -0.2105825E+00 -0.1534418E+03  0.2560150E+01  0.6350501E+03  0.2690136E+01
 -0.7200000E+01 -0.1604821E+04 -0.1853026E+02 -0.2381816E+05  0.4175090E+02  0.1502118E+04 -0.1245578E+02 -0.1511942E+04 -0.3213533E+01 -0.1425354E+03  0.1595728E+02  0.8950891E+03  0.2577741E+01 -0.1604821E+04 -0.1853026E+02 -0.2381816E+05  0.4175090E+02  0.1502118E+04 -0.1245578E+02 -0.1511942E+04 -0.3213533E+01 -0.1425354E+03  0.1595728E+02  0.8950891E+03  0.2577741E+01 -0.1604821E+04 -0.1853026E+02 -0.2381816E+05  0.4175090E+02  0.1502118E+04 -0.1245578E+02 -0.1511942E+04 -0.3213533E+01 -0.1425354E+03  0.1595728E+02  0.8950891E+03  0.2577741E+01
 -0.7100000E+01 -0.2624616E+04 -0.2648598E+02 -0.2363238E+05  0.4538353E+02  0.3922268E+04 -0.2073653E+00 -0.1573454E+04 -0.5535961E+01 -0.1248657E+03  0.2591912E+02  0.1098700E+04  0.2567510E+01 -0.2624616E+04 -0.2648598E+02 -0.2363238E+05  0.4538353E+02  0.3922268E+04 -0.2073653E+00 -0.1573454E+04 -0.5535961E+01 -0.1248657E+03  0.2591912E+02  0.1098700E+04  0.2567510E+01 -0.2624616E+04 -0.2648598E+02 -0.2363238E+05  0.4538353E+02  0.3922268E+04 -0.2073653E+00 -0.1573454E+04 -0.5535961E+01 -0.1248657E+03  0.2591912E+02  0.1098700E+04  0.2567510E+01
 -0.7000000E+01 -0.2932917E+04 -0.2689201E+02 -0.2360495E+05  0.3515157E+02  0.4850886E+04  0.1330080E+02 -0.1668333E+04 -0.6358049E+01 -0.9917259E+02  0.2887818E+02  0.1204283E+04  0.2837315E+01 -0.2932917E+04 -0.2689201E+02 -0.2360495E+05  0.3515157E+02  0.4850886E+04  0.1330080E+02 -0.1668333E+04 -0.6358049E+01 -0.9917259E+02  0.2887818E+02  0.1204283E+04  0.2837315E+01 -0.2932917E+04 -0.2689201E+02 -0.2360495E+05  0.3515157E+02  0.4850886E+04  0.1330080E+02 -0.1668333E+04 -0.6358049E+01 -0.9917259E+02  0.2887818E+02  0.1204283E+04  0.2837315E+01
 -0.6900000E+01 -0.2351286E+04 -0.1892626E+02 -0.2379573E+05  0.1270341E+02  0.3810858E+04  0.2389036E+02 -0.1801195E+04 -0.5265856E+01 -0.6530643E+02  0.2314785E+02  0.1195673E+04  0.3491716E+01 -0.2351286E+04 -0.1892626E+02 -0.2379573E+05  0.1270341E+02  0.3810858E+04  0.2389036E+02 -0.1801195E+04 -0.5265856E+01 -0.6530643E+02  0.2314785E+02  0.1195673E+04  0.3491716E+01 -0.2351286E+04 -0.1892626E+02 -0.2379573E+05  0.1270341E+02  0.3810858E+04  0.2389036E+02 -0.1801195E+04 -0.5265856E+01 -0.6530643E+02  0.2314785E+02  0.1195673E+04  0.3491716E+01
 -0.6800000E+01 -0.9640947E+03 -0.4315913E+01 -0.2420709E+05 -0.1639433E+02  0.8671142E+03  0.2796869E+02 -0.1967981E+04 -0.2415843E+01 -0.2420675E+02  0.9613923E+01  0.1090541E+04  0.4512249E+01 -0.9640947E+03 -0.4315913E+01 -0.2420709E+05 -0.1639433E+02  0.8671142E+03  0.2796869E+02 -0.1967981E+04 -0.2415843E+01 -0.2420675E+02  0.9613923E+01  0.1090541E+04  0.4512249E+01 -0.9640947E+03 -0.4315913E+01 -0.2420709E+05 -0.1639433E+02  0.8671142E+03  0.2796869E+02 -0.1967981E+04 -0.2415843E+01 -0.2420675E+02  0.9613923E+01  0.1090541E+04  0.4512249E+01
 -0.6700000E+01  0.8837065E+03  0.1299964E+02 -0.2477853E+05 -0.4396424E+02 -0.3347900E+04  0.2369451E+02 -0.2156301E+04  0.1470645E+01  0.2244441E+02 -0.8344576E+01  0.9391335E+03  0.5742850E+01  0.8837065E+03  0.1299964E+02 -0.2477853E+05 -0.4396424E+02 -0.3347900E+04  0.2369451E+02 -0.2156301E+04  0.1470645E+01  0.2244441E+02 -0.8344576E+01  0.9391335E+03  0.5742850E+01  0.8837065E+03  0.1299964E+02 -0.2477853E+05 -0.4396424E+02 -0.3347900E+04  0.2369451E+02 -0.2156301E+04  0.1470645E+01  0.2244441E+02 -0.8344576E+01  0.9391335E+03  0.5742850E+01
 -0.6600000E+01  0.2669381E+04  0.2791222E+02 -0.2539828E+05 -0.6142817E+02 -0.7773005E+04  0.1167271E+02 -0.2347956E+04  0.5291606E+01  0.7274326E+02 -0.2572743E+02  0.8147869E+03  0.6916362E+01  0.2669381E+04  0.2791222E+02 -0.2539828E+05 -0.6142817E+02 -0.7773005E+04  0.1167271E+02 -0.2347956E+04  0.5291606E+01  0.7274326E+02 -0.2572743E+02  0.8147869E+03  0.6916362E+01  0.2669381E+04  0.2791222E+02 -0.2539828E+05 -0.6142817E+02 -0.7773005E+04  0.1167271E+02 -0.2347956E+04  0.5291606E+01  0.7274326E+02 -0.2572743E+02  0.8147869E+03  0.6916362E+01
 -0.6500000E+01  0.3836109E+04  0.3561842E+02 -0.2592995E+05 -0.6233735E+02 -0.1119181E+05 -0.5063756E+01 -0.2523573E+04  0.7880936E+01  0.1252078E+03 -0.3735716E+02  0.7961597E+03  0.7718760E+01  0.3836109E+04  0.3561842E+02 -0.2592995E+05 -0.6233735E+02 -0.1119181E+05 -0.5063756E+01 -0.2523573E+04  0.7880936E+01  0.1252078E+03 -0.3735716E+02  0.7961597E+03  0.7718760E+01  0.3836109E+04  0.3561842E+02 -0.2592995E+05 -0.6233735E+02 -0.1119181E+05 -0.5063756E+01 -0.2523573E+04  0.7880936E+01  0.1252078E+03 -0.3735716E+02  0.7961597E+03  0.7718760E+01
 -0.6400000E+01  0.3958322E+04  0.3310215E+02 -0.2624814E+05 -0.4449672E+02 -0.1256763E+05 -0.2181971E+02 -0.2667831E+04  0.8365890E+01  0.1793255E+03 -0.3947260E+02  0.9466761E+03  0.7874494E+01  0.3958322E+04  0.3310215E+02 -0.2624814E+05 -0.4449672E+02 -0.1256763E+05 -0.2181971E+02 -0.2667831E+04  0.8365890E+01  0.1793255E+03 -0.3947260E+02  0.9466761E+03  0.7874494E+01  0.3958322E+04  0.3310215E+02 -0.2624814E+05 -0.4449672E+02 -0.1256763E+05 -0.2181971E+02 -0.2667831E+04  0.8365890E+01  0.1793255E+03 -0.3947260E+02  0.9466761E+03  0.7874494E+01
 -0.6300000E+01  0.2880336E+04  0.2017666E+02 -0.2627217E+05 -0.1102744E+02 -0.1134649E+05 -0.3355454E+02 -0.2774102E+04  0.6457056E+01  0.2359388E+03 -0.3098707E+02  0.1295573E+04  0.7230309E+01  0.2880336E+04  0.2017666E+02 -0.2627217E+05 -0.1102744E+02 -0.1134649E+05 -0.3355454E+02 -0.2774102E+04  0.6457056E+01  0.2359388E+03 -0.3098707E+02  0.1295573E+04  0.7230309E+01  0.2880336E+04  0.2017666E+02 -0.2627217E+05 -0.1102744E+02 -0.1134649E+05 -0.3355454E+02 -0.2774102E+04  0.6457056E+01  0.2359388E+03 -0.3098707E+02  0.1295573E+04  0.7230309E+01
 -0.6200000E+01  0.7853682E+03 -0.2517764E+00 -0.2599038E+05  0.3002661E+02 -0.7641373E+04 -0.3637855E+02 -0.2847144E+04  0.2577344E+01  0.2973557E+03 -0.1399940E+02  0.1825661E+04  0.5814099E+01  0.7853682E+03 -0.2517764E+00 -0.2599038E+05  0.3002661E+02 -0.7641373E+04 -0.3637855E+02 -0.2847144E+04  0.2577344E+01  0.2973557E+03 -0.1399940E+02  0.1825661E+04  0.5814099E+01  0.7853682E+03 -0.2517764E+00 -0.2599038E+05  0.3002661E+02 -0.7641373E+04 -0.3637855E+02 -0.2847144E+04  0.2577344E+01  0.2973557E+03 -0.1399940E+02  0.1825661E+04  0.5814099E+01
 -0.6100000E+01 -0.1829626E+04 -0.2282323E+02 -0.2546696E+05  0.6755346E+02 -0.2240824E+04 -0.2878421E+02 -0.2903030E+04 -0.2218689E+01  0.3671685E+03  0.6641429E+01  0.2471275E+04  0.3851519E+01 -0.1829626E+04 -0.2282323E+02 -0.2546696E+05  0.6755346E+02 -0.2240824E+04 -0.2878421E+02 -0.2903030E+04 -0.2218689E+01  0.3671685E+03  0.6641429E+01  0.2471275E+04  0.3851519E+01 -0.1829626E+04 -0.2282323E+02 -0.2546696E+05  0.6755346E+02 -0.2240824E+04 -0.2878421E+02 -0.2903030E+04 -0.2218689E+01  0.3671685E+03  0.6641429E+01  0.2471275E+04  0.3851519E+01
 -0.6000000E+01 -0.4271663E+04 -0.4112568E+02 -0.2483002E+05  0.9026553E+02  0.3565430E+04 -0.1222975E+02 -0.2966240E+04 -0.6522414E+01  0.4498434E+03  0.2464252E+02  0.3126999E+04  0.1734374E+01 -0.4271663E+04 -0.4112568E+02 -0.2483002E+05  0.9026553E+02  0.3565430E+04 -0.1222975E+02 -0.2966240E+04 -0.6522414E+01  0.4498434E+03  0.2464252E+02  0.3126999E+04  0.1734374E+01 -0.4271663E+04 -0.4112568E+02 -0.2483002E+05  0.9026553E+02  0.3565430E+04 -0.1222975E+02 -0.2966240E+04 -0.6522414E+01  0.4498434E+03  0.2464252E+02  0.3126999E+04  0.1734374E+01
 -0.5900000E+01 -0.5833265E+04 -0.4948933E+02 -0.2424330E+05  0.8988818E+02  0.8301702E+04  0.9128277E+01 -0.3064406E+04 -0.8972066E+01  0.5501238E+03  0.3409184E+02  0.3666260E+04 -0.5447551E-01 -0.5833265E+04 -0.4948933E+02 -0.2424330E+05  0.8988818E+02  0.8301702E+04  0.9128277E+01 -0.3064406E+04 -0.8972066E+01  0.5501238E+03  0.3409184E+02  0.3666260E+04 -0.5447551E-01 -0.5833265E+04 -0.4948933E+02 -0.2424330E+05  0.8988818E+02  0.8301702E+04  0.9128277E+01 -0.3064406E+04 -0.8972066E+01  0.5501238E+03  0.3409184E+02  0.3666260E+04 -0.5447551E-01
 -0.5800000E+01 -0.5989424E+04 -0.4466886E+02 -0.2386915E+05  0.6376812E+02  0.1067839E+05  0.2950906E+02 -0.3222025E+04 -0.8663969E+01  0.6723599E+03  0.3128543E+02  0.3965450E+04 -0.1040589E+01 -0.5989424E+04 -0.4466886E+02 -0.2386915E+05  0.6376812E+02  0.1067839E+05  0.2950906E+02 -0.3222025E+04 -0.8663969E+01  0.6723599E+03  0.3128543E+02  0.3965450E+04 -0.1040589E+01 -0.5989424E+04 -0.4466886E+02 -0.2386915E+05  0.6376812E+02  0.1067839E+05  0.2950906E+02 -0.3222025E+04 -0.8663969E+01  0.6723599E+03  0.3128543E+02  0.3965450E+04 -0.1040589E+01
 -0.5700000E+01 -0.4555354E+04 -0.2692147E+02 -0.2383147E+05  0.1612490E+02  0.9921947E+04  0.4310238E+02 -0.3454655E+04 -0.5450879E+01  0.8198904E+03  0.1600011E+02  0.3928199E+04 -0.8598484E+00 -0.4555354E+04 -0.2692147E+02 -0.2383147E+05  0.1612490E+02  0.9921947E+04  0.4310238E+02 -0.3454655E+04 -0.5450879E+01  0.8198904E+03  0.1600011E+02  0.3928199E+04 -0.8598484E+00 -0.4555354E+04 -0.2692147E+02 -0.2383147E+05  0.1612490E+02  0.9921947E+04  0.4310238E+02 -0.3454655E+04 -0.5450879E+01  0.8198904E+03  0.1600011E+02  0.3928199E+04 -0.8598484E+00
 -0.5600000E+01 -0.1759451E+04 -0.1438662E+00 -0.2418844E+05 -0.4249156E+02  0.5975062E+04  0.4573504E+02 -0.3764793E+04 -0.3536486E-01  0.9945157E+03 -0.8187970E+01  0.3505366E+04  0.6608825E+00 -0.1759451E+04 -0.1438662E+00 -0.2418844E+05 -0.4249156E+02  0.5975062E+04  0.4573504E+02 -0.3764793E+04 -0.3536486E-01  0.9945157E+03 -0.8187970E+01  0.3505366E+04  0.6608825E+00 -0.1759451E+04 -0.1438662E+00 -0.2418844E+05 -0.4249156E+02  0.5975062E+04  0.4573504E+02 -0.3764793E+04 -0.3536486E-01  0.9945157E+03 -0.8187970E+01  0.3505366E+04  0.6608825E+00
 -0.5500000E+01  0.1791865E+04  0.2901007E+02 -0.2492039E+05 -0.9750842E+02 -0.4848278E+03  0.3612485E+02 -0.4140562E+04  0.6179616E+01  0.1196134E+04 -0.3468910E+02  0.2705959E+04  0.3461339E+01  0.1791865E+04  0.2901007E+02 -0.2492039E+05 -0.9750842E+02 -0.4848278E+03  0.3612485E+02 -0.4140562E+04  0.6179616E+01  0.1196134E+04 -0.3468910E+02  0.2705959E+04  0.3461339E+01  0.1791865E+04  0.2901007E+02 -0.2492039E+05 -0.9750842E+02 -0.4848278E+03  0.3612485E+02 -0.4140562E+04  0.6179616E+01  0.1196134E+04 -0.3468910E+02  0.2705959E+04  0.3461339E+01
 -0.5400000E+01  0.5251777E+04  0.5282369E+02 -0.2593526E+05 -0.1338961E+03 -0.8210883E+04  0.1634621E+02 -0.4557423E+04  0.1145041E+02  0.1422637E+04 -0.5561808E+02  0.1596925E+04  0.7251499E+01  0.5251777E+04  0.5282369E+02 -0.2593526E+05 -0.1338961E+03 -0.8210883E+04  0.1634621E+02 -0.4557423E+04  0.1145041E+02  0.1422637E+04 -0.5561808E+02  0.1596925E+04  0.7251499E+01  0.5251777E+04  0.5282369E+02 -0.2593526E+05 -0.1338961E+03 -0.8210883E+04  0.1634621E+02 -0.4557423E+04  0.1145041E+02  0.1422637E+04 -0.5561808E+02  0.1596925E+04  0.7251499E+01
 -0.5300000E+01  0.7739055E+04  0.6457351E+02 -0.2708841E+05 -0.1400977E+03 -0.1568681E+05 -0.8648078E+01 -0.4982326E+04  0.1416726E+02  0.1669958E+04 -0.6398964E+02  0.2929223E+03  0.1155612E+02  0.7739055E+04  0.6457351E+02 -0.2708841E+05 -0.1400977E+03 -0.1568681E+05 -0.8648078E+01 -0.4982326E+04  0.1416726E+02  0.1669958E+04 -0.6398964E+02  0.2929223E+03  0.1155612E+02  0.7739055E+04  0.6457351E+02 -0.2708841E+05 -0.1400977E+03 -0.1568681E+05 -0.8648078E+01 -0.4982326E+04  0.1416726E+02  0.1669958E+04 -0.6398964E+02  0.2929223E+03  0.1155612E+02
 -0.5200000E+01  0.8559690E+04  0.6038822E+02 -0.2821150E+05 -0.1113054E+03 -0.2148031E+05 -0.3233246E+02 -0.5379450E+04  0.1331440E+02  0.1932445E+04 -0.5579363E+02 -0.1062907E+04  0.1578916E+02  0.8559690E+04  0.6038822E+02 -0.2821150E+05 -0.1113054E+03 -0.2148031E+05 -0.3233246E+02 -0.5379450E+04  0.1331440E+02  0.1932445E+04 -0.5579363E+02 -0.1062907E+04  0.1578916E+02  0.8559690E+04  0.6038822E+02 -0.2821150E+05 -0.1113054E+03 -0.2148031E+05 -0.3233246E+02 -0.5379450E+04  0.1331440E+02  0.1932445E+04 -0.5579363E+02 -0.1062907E+04  0.1578916E+02
 -0.5100000E+01  0.7386746E+04  0.4039020E+02 -0.2914150E+05 -0.5117958E+02 -0.2455494E+05 -0.4838520E+02 -0.5716151E+04  0.8785651E+01  0.2203401E+04 -0.3135607E+02 -0.2322471E+04  0.1934029E+02  0.7386746E+04  0.4039020E+02 -0.2914150E+05 -0.5117958E+02 -0.2455494E+05 -0.4838520E+02 -0.5716151E+04  0.8785651E+01  0.2203401E+04 -0.3135607E+02 -0.2322471E+04  0.1934029E+02  0.7386746E+04  0.4039020E+02 -0.2914150E+05 -0.5117958E+02 -0.2455494E+05 -0.4838520E+02 -0.5716151E+04  0.8785651E+01  0.2203401E+04 -0.3135607E+02 -0.2322471E+04  0.1934029E+02
 -0.5000000E+01  0.4351789E+04  0.8790942E+01 -0.2974491E+05  0.2851125E+02 -0.2446364E+05 -0.5243749E+02 -0.5968016E+04  0.1464038E+01  0.2475929E+04  0.4417390E+01 -0.3357408E+04  0.2165783E+02  0.4351789E+04  0.8790942E+01 -0.2974491E+05  0.2851125E+02 -0.2446364E+05 -0.5243749E+02 -0.5968016E+04  0.1464038E+01  0.2475929E+04  0.4417390E+01 -0.3357408E+04  0.2165783E+02  0.4351789E+04  0.8790942E+01 -0.2974491E+05  0.2851125E+02 -0.2446364E+05 -0.5243749E+02 -0.5968016E+04  0.1464038E+01  0.2475929E+04  0.4417390E+01 -0.3357408E+04  0.2165783E+02
 -0.4900000E+01  0.2479771E+02 -0.2710496E+02 -0.2993134E+05  0.1103300E+03 -0.2138269E+05 -0.4329935E+02 -0.6121985E+04 -0.6962363E+01  0.2743939E+04  0.4302536E+02 -0.4080412E+04  0.2231653E+02  0.2479771E+02 -0.2710496E+02 -0.2993134E+05  0.1103300E+03 -0.2138269E+05 -0.4329935E+02 -0.6121985E+04 -0.6962363E+01  0.2743939E+04  0.4302536E+02 -0.4080412E+04  0.2231653E+02  0.2479771E+02 -0.2710496E+02 -0.2993134E+05  0.1103300E+03 -0.2138269E+05 -0.4329935E+02 -0.6121985E+04 -0.6962363E+01  0.2743939E+04  0.4302536E+02 -0.4080412E+04  0.2231653E+02
 -0.4800000E+01 -0.4711696E+04 -0.5872988E+02 -0.2965754E+05  0.1751399E+03 -0.1599238E+05 -0.2331075E+02 -0.6177490E+04 -0.1440290E+02  0.3003302E+04  0.7435084E+02 -0.4461979E+04  0.2106677E+02 -0.4711696E+04 -0.5872988E+02 -0.2965754E+05  0.1751399E+03 -0.1599238E+05 -0.2331075E+02 -0.6177490E+04 -0.1440290E+02  0.3003302E+04  0.7435084E+02 -0.4461979E+04  0.2106677E+02 -0.4711696E+04 -0.5872988E+02 -0.2965754E+05  0.1751399E+03 -0.1599238E+05 -0.2331075E+02 -0.6177490E+04 -0.1440290E+02  0.3003302E+04  0.7435084E+02 -0.4461979E+04  0.2106677E+02
 -0.4700000E+01 -0.8861461E+04 -0.7842971E+02 -0.2892358E+05  0.2066447E+03 -0.9252825E+04  0.2285855E+01 -0.6145678E+04 -0.1888058E+02  0.3253040E+04  0.8913976E+02 -0.4540290E+04  0.1786562E+02 -0.8861461E+04 -0.7842971E+02 -0.2892358E+05  0.2066447E+03 -0.9252825E+04  0.2285855E+01 -0.6145678E+04 -0.1888058E+02  0.3253040E+04  0.8913976E+02 -0.4540290E+04  0.1786562E+02 -0.8861461E+04 -0.7842971E+02 -0.2892358E+05  0.2066447E+03 -0.9252825E+04  0.2285855E+01 -0.6145678E+04 -0.1888058E+02  0.3253040E+04  0.8913976E+02 -0.4540290E+04  0.1786562E+02
 -0.4600000E+01 -0.1153633E+05 -0.8140427E+02 -0.2776688E+05  0.1953740E+03 -0.2149068E+04  0.2677846E+02 -0.6047275E+04 -0.1902660E+02  0.3496391E+04  0.8134168E+02 -0.4424989E+04  0.1289580E+02 -0.1153633E+05 -0.8140427E+02 -0.2776688E+05  0.1953740E+03 -0.2149068E+04  0.2677846E+02 -0.6047275E+04 -0.1902660E+02  0.3496391E+04  0.8134168E+02 -0.4424989E+04  0.1289580E+02 -0.1153633E+05 -0.8140427E+02 -0.2776688E+05  0.1953740E+03 -0.2149068E+04  0.2677846E+02 -0.6047275E+04 -0.1902660E+02  0.3496391E+04  0.8134168E+02 -0.4424989E+04  0.1289580E+02