 VARIABLES="X" "Y" "Z" "abs(p) (Pa)" "angle(p) (rad)"
ZONE N=   2709,E =    2358, F=FEPOINT, ET=QUADRILATERAL
   0.00000000      -5.48999977     -0.157000005       114.744446      -1.57154024    
   0.00000000      -4.76741982     -0.246999994       114.744446      -1.57154024    
  0.930077016      -4.67581606     -0.246999994       114.744446      -1.57154024    
   1.07104599      -5.38451099     -0.157000005       114.744446      -1.57154024    
  -1.07104599      -5.38451099     -0.157000005       120.099617       1.57197618    
 -0.930077016      -4.67581606     -0.246999994       120.099617       1.57197618    
   0.00000000      -4.76741982     -0.246999994       120.099617       1.57197618    
   0.00000000      -5.48999977     -0.157000005       120.099617       1.57197618    
  -2.10093188      -5.07209921     -0.157000005       352.735504       1.57135415    
  -1.82441294      -4.40452194     -0.246999994       352.735504       1.57135415    
 -0.930077016      -4.67581606     -0.246999994       352.735504       1.57135415    
  -1.07104599      -5.38451099     -0.157000005       352.735504       1.57135415    
  -3.05008101      -4.56476784     -0.157000005       566.333252       1.57123542    
  -2.64863706      -3.96396494     -0.246999994       566.333252       1.57123542    
  -1.82441294      -4.40452194     -0.246999994       566.333252       1.57123542    
  -2.10093188      -5.07209921     -0.157000005       566.333252       1.57123542    
  -3.88201594      -3.88201594     -0.157000005       761.840515       1.57118368    
  -3.37107491      -3.37107491     -0.246999994       761.840515       1.57118368    
  -2.64863706      -3.96396494     -0.246999994       761.840515       1.57118368    
  -3.05008101      -4.56476784     -0.157000005       761.840515       1.57118368    
  -4.56476784      -3.05008101     -0.157000005       935.826477       1.57115364    
  -3.96396494      -2.64863706     -0.246999994       935.826477       1.57115364    
  -3.37107491      -3.37107491     -0.246999994       935.826477       1.57115364    
  -3.88201594      -3.88201594     -0.157000005       935.826477       1.57115364    
  -5.07209921      -2.10093188     -0.157000005       1058.08728       1.57114208    
  -4.40452194      -1.82441294     -0.246999994       1058.08728       1.57114208    
  -3.96396494      -2.64863706     -0.246999994       1058.08728       1.57114208    
  -4.56476784      -3.05008101     -0.157000005       1058.08728       1.57114208    
  -5.38451099      -1.07104599     -0.157000005       1146.95203       1.57113397    
  -4.67581606     -0.930077016     -0.246999994       1146.95203       1.57113397    
  -4.40452194      -1.82441294     -0.246999994       1146.95203       1.57113397    
  -5.07209921      -2.10093188     -0.157000005       1146.95203       1.57113397    
  -5.48999977       0.00000000     -0.157000005       1202.37109       1.57112718    
  -4.76741982       0.00000000     -0.246999994       1202.37109       1.57112718    
  -4.67581606     -0.930077016     -0.246999994       1202.37109       1.57112718    
  -5.38451099      -1.07104599     -0.157000005       1202.37109       1.57112718    
  -5.38451099       1.07104599     -0.157000005       1203.77197       1.57112670    
  -4.67581606      0.930077016     -0.246999994       1203.77197       1.57112670    
  -4.76741982       0.00000000     -0.246999994       1203.77197       1.57112670    
  -5.48999977       0.00000000     -0.157000005       1203.77197       1.57112670    
  -5.07209921       2.10093188     -0.157000005       1157.30078       1.57113028    
  -4.40452194       1.82441294     -0.246999994       1157.30078       1.57113028    
  -4.67581606      0.930077016     -0.246999994       1157.30078       1.57113028    
  -5.38451099       1.07104599     -0.157000005       1157.30078       1.57113028    
  -4.56476784       3.05008101     -0.157000005       1065.11926       1.57113886    
  -3.96396494       2.64863706     -0.246999994       1065.11926       1.57113886    
  -4.40452194       1.82441294     -0.246999994       1065.11926       1.57113886    
  -5.07209921       2.10093188     -0.157000005       1065.11926       1.57113886    
  -3.88201594       3.88201594     -0.157000005       925.974304       1.57115674    
  -3.37107491       3.37107491     -0.246999994       925.974304       1.57115674    
  -3.96396494       2.64863706     -0.246999994       925.974304       1.57115674    
  -4.56476784       3.05008101     -0.157000005       925.974304       1.57115674    
  -3.05008101       4.56476784     -0.157000005       763.843994       1.57118070    
  -2.64863706       3.96396494     -0.246999994       763.843994       1.57118070    
  -3.37107491       3.37107491     -0.246999994       763.843994       1.57118070    
  -3.88201594       3.88201594     -0.157000005       763.843994       1.57118070    
  -2.10093188       5.07209921     -0.157000005       563.896729       1.57123435    
  -1.82441294       4.40452194     -0.246999994       563.896729       1.57123435    
  -2.64863706       3.96396494     -0.246999994       563.896729       1.57123435    
  -3.05008101       4.56476784     -0.157000005       563.896729       1.57123435    
  -1.07104599       5.38451099     -0.157000005       348.777924       1.57135558    
 -0.930077016       4.67581606     -0.246999994       348.777924       1.57135558    
  -1.82441294       4.40452194     -0.246999994       348.777924       1.57135558    
  -2.10093188       5.07209921     -0.157000005       348.777924       1.57135558    
   0.00000000       5.48999977     -0.157000005       116.294632       1.57199883    
   0.00000000       4.76741982     -0.246999994       116.294632       1.57199883    
 -0.930077016       4.67581606     -0.246999994       116.294632       1.57199883    
  -1.07104599       5.38451099     -0.157000005       116.294632       1.57199883    
   1.07104599       5.38451099     -0.157000005       120.026649      -1.57149220    
  0.930077016       4.67581606     -0.246999994       120.026649      -1.57149220    
   0.00000000       4.76741982     -0.246999994       120.026649      -1.57149220    
   0.00000000       5.48999977     -0.157000005       120.026649      -1.57149220    
   2.10093188       5.07209921     -0.157000005       349.112457      -1.57087755    
   1.82441294       4.40452194     -0.246999994       349.112457      -1.57087755    
  0.930077016       4.67581606     -0.246999994       349.112457      -1.57087755    
   1.07104599       5.38451099     -0.157000005       349.112457      -1.57087755    
   3.05008101       4.56476784     -0.157000005       566.308044      -1.57075500    
   2.64863706       3.96396494     -0.246999994       566.308044      -1.57075500    
   1.82441294       4.40452194     -0.246999994       566.308044      -1.57075500    
   2.10093188       5.07209921     -0.157000005       566.308044      -1.57075500    
   3.88201594       3.88201594     -0.157000005       768.227966      -1.57070541    
   3.37107491       3.37107491     -0.246999994       768.227966      -1.57070541    
   2.64863706       3.96396494     -0.246999994       768.227966      -1.57070541    
   3.05008101       4.56476784     -0.157000005       768.227966      -1.57070541    
   4.56476784       3.05008101     -0.157000005       934.497742      -1.57067907    
   3.96396494       2.64863706     -0.246999994       934.497742      -1.57067907    
   3.37107491       3.37107491     -0.246999994       934.497742      -1.57067907    
   3.88201594       3.88201594     -0.157000005       934.497742      -1.57067907    
   5.07209921       2.10093188     -0.157000005       1067.05444      -1.57066453    
   4.40452194       1.82441294     -0.246999994       1067.05444      -1.57066453    
   3.96396494       2.64863706     -0.246999994       1067.05444      -1.57066453    
   4.56476784       3.05008101     -0.157000005       1067.05444      -1.57066453    
   5.38451099       1.07104599     -0.157000005       1146.09888      -1.57065463    
   4.67581606      0.930077016     -0.246999994       1146.09888      -1.57065463    
   4.40452194       1.82441294     -0.246999994       1146.09888      -1.57065463    
   5.07209921       2.10093188     -0.157000005       1146.09888      -1.57065463    
   5.48999977       0.00000000     -0.157000005       1188.81982      -1.57065070    
   4.76741982       0.00000000     -0.246999994       1188.81982      -1.57065070    
   4.67581606      0.930077016     -0.246999994       1188.81982      -1.57065070    
   5.38451099       1.07104599     -0.157000005       1188.81982      -1.57065070    
   5.38451099      -1.07104599     -0.157000005       1187.68884      -1.57065070    
   4.67581606     -0.930077016     -0.246999994       1187.68884      -1.57065070    
   4.76741982       0.00000000     -0.246999994       1187.68884      -1.57065070    
   5.48999977       0.00000000     -0.157000005       1187.68884      -1.57065070    
   5.07209921      -2.10093188     -0.157000005       1141.34485      -1.57065463    
   4.40452194      -1.82441294     -0.246999994       1141.34485      -1.57065463    
   4.67581606     -0.930077016     -0.246999994       1141.34485      -1.57065463    
   5.38451099      -1.07104599     -0.157000005       1141.34485      -1.57065463    
   4.56476784      -3.05008101     -0.157000005       1051.22034      -1.57066321    
   3.96396494      -2.64863706     -0.246999994       1051.22034      -1.57066321    
   4.40452194      -1.82441294     -0.246999994       1051.22034      -1.57066321    
   5.07209921      -2.10093188     -0.157000005       1051.22034      -1.57066321    
   3.88201594      -3.88201594     -0.157000005       921.442932      -1.57067871    
   3.37107491      -3.37107491     -0.246999994       921.442932      -1.57067871    
   3.96396494      -2.64863706     -0.246999994       921.442932      -1.57067871    
   4.56476784      -3.05008101     -0.157000005       921.442932      -1.57067871    
   3.05008101      -4.56476784     -0.157000005       761.273560      -1.57070637    
   2.64863706      -3.96396494     -0.246999994       761.273560      -1.57070637    
   3.37107491      -3.37107491     -0.246999994       761.273560      -1.57070637    
   3.88201594      -3.88201594     -0.157000005       761.273560      -1.57070637    
   2.10093188      -5.07209921     -0.157000005       561.653198      -1.57075751    
   1.82441294      -4.40452194     -0.246999994       561.653198      -1.57075751    
   2.64863706      -3.96396494     -0.246999994       561.653198      -1.57075751    
   3.05008101      -4.56476784     -0.157000005       561.653198      -1.57075751    
   1.07104599      -5.38451099     -0.157000005       344.626282      -1.57088363    
  0.930077016      -4.67581606     -0.246999994       344.626282      -1.57088363    
   1.82441294      -4.40452194     -0.246999994       344.626282      -1.57088363    
   2.10093188      -5.07209921     -0.157000005       344.626282      -1.57088363    
   0.00000000      -1.87709999     -0.606999993       60.7799568      -1.57250237    
   0.00000000      -1.36500001     -0.606999993       60.7799568      -1.57250237    
  0.266297996      -1.33877206     -0.606999993       60.7799568      -1.57250237    
  0.366203994      -1.84103203     -0.606999993       60.7799568      -1.57250237    
   0.00000000      -1.87709999     -0.606999993       95.4813919       1.57209206    
   0.00000000      -2.59967995     -0.517000020       95.4813919       1.57209206    
 -0.507171988      -2.54972792     -0.517000020       95.4813919       1.57209206    
 -0.366203994      -1.84103203     -0.606999993       95.4813919       1.57209206    
 -0.366203994      -1.84103203     -0.606999993       58.2785912       1.57281041    
 -0.266297996      -1.33877206     -0.606999993       58.2785912       1.57281041    
   0.00000000      -1.36500001     -0.606999993       58.2785912       1.57281041    
   0.00000000      -1.87709999     -0.606999993       58.2785912       1.57281041    
 -0.366203994      -1.84103203     -0.606999993       280.999878       1.57132685    
 -0.507171988      -2.54972792     -0.517000020       280.999878       1.57132685    
 -0.994853973      -2.40179110     -0.517000020       280.999878       1.57132685    
 -0.718334973      -1.73421395     -0.606999993       280.999878       1.57132685    
 -0.718334973      -1.73421395     -0.606999993       175.002853       1.57154238    
 -0.522363007      -1.26109600     -0.606999993       175.002853       1.57154238    
 -0.266297996      -1.33877206     -0.606999993       175.002853       1.57154238    
 -0.366203994      -1.84103203     -0.606999993       175.002853       1.57154238    
 -0.718334973      -1.73421395     -0.606999993       454.687622       1.57117462    
 -0.994853973      -2.40179110     -0.517000020       454.687622       1.57117462    
  -1.44430494      -2.16155505     -0.517000020       454.687622       1.57117462    
  -1.04286098      -1.56075203     -0.606999993       454.687622       1.57117462    
  -1.04286098      -1.56075203     -0.606999993       285.065979       1.57129633    
 -0.758352995      -1.13495600     -0.606999993       285.065979       1.57129633    
 -0.522363007      -1.26109600     -0.606999993       285.065979       1.57129633    
 -0.718334973      -1.73421395     -0.606999993       285.065979       1.57129633    
  -1.04286098      -1.56075203     -0.606999993       611.859314       1.57111037    
  -1.44430494      -2.16155505     -0.517000020       611.859314       1.57111037    
  -1.83825099      -1.83825099     -0.517000020       611.859314       1.57111037    
  -1.32730997      -1.32730997     -0.606999993       611.859314       1.57111037    
  -1.32730997      -1.32730997     -0.606999993       384.960999       1.57119381    
 -0.965201020     -0.965201020     -0.606999993       384.960999       1.57119381    
 -0.758352995      -1.13495600     -0.606999993       384.960999       1.57119381    
  -1.04286098      -1.56075203     -0.606999993       384.960999       1.57119381    
  -1.32730997      -1.32730997     -0.606999993       747.876831       1.57107639    
  -1.83825099      -1.83825099     -0.517000020       747.876831       1.57107639    
  -2.16155505      -1.44430494     -0.517000020       747.876831       1.57107639    
  -1.56075203      -1.04286098     -0.606999993       747.876831       1.57107639    
  -1.56075203      -1.04286098     -0.606999993       471.167542       1.57113993    
  -1.13495600     -0.758352995     -0.606999993       471.167542       1.57113993    
 -0.965201020     -0.965201020     -0.606999993       471.167542       1.57113993    
  -1.32730997      -1.32730997     -0.606999993       471.167542       1.57113993    
  -1.56075203      -1.04286098     -0.606999993       855.873413       1.57105756    
  -2.16155505      -1.44430494     -0.517000020       855.873413       1.57105756    
  -2.40179110     -0.994853973     -0.517000020       855.873413       1.57105756    
  -1.73421395     -0.718334973     -0.606999993       855.873413       1.57105756    
  -1.73421395     -0.718334973     -0.606999993       539.464722       1.57111001    
  -1.26109600     -0.522363007     -0.606999993       539.464722       1.57111001    
  -1.13495600     -0.758352995     -0.606999993       539.464722       1.57111001    
  -1.56075203      -1.04286098     -0.606999993       539.464722       1.57111001    
  -1.73421395     -0.718334973     -0.606999993       929.164368       1.57104778    
  -2.40179110     -0.994853973     -0.517000020       929.164368       1.57104778    
  -2.54972792     -0.507171988     -0.517000020       929.164368       1.57104778    
  -1.84103203     -0.366203994     -0.606999993       929.164368       1.57104778    
  -1.84103203     -0.366203994     -0.606999993       586.289062       1.57109380    
  -1.33877206     -0.266297996     -0.606999993       586.289062       1.57109380    
  -1.26109600     -0.522363007     -0.606999993       586.289062       1.57109380    
  -1.73421395     -0.718334973     -0.606999993       586.289062       1.57109380    
  -1.84103203     -0.366203994     -0.606999993       965.463867       1.57104385    
  -2.54972792     -0.507171988     -0.517000020       965.463867       1.57104385    
  -2.59967995       0.00000000     -0.517000020       965.463867       1.57104385    
  -1.87709999       0.00000000     -0.606999993       965.463867       1.57104385    
  -1.87709999       0.00000000     -0.606999993       610.005371       1.57108688    
  -1.36500001       0.00000000     -0.606999993       610.005371       1.57108688    
  -1.33877206     -0.266297996     -0.606999993       610.005371       1.57108688    
  -1.84103203     -0.366203994     -0.606999993       610.005371       1.57108688    
  -1.87709999       0.00000000     -0.606999993       965.754578       1.57104373    
  -2.59967995       0.00000000     -0.517000020       965.754578       1.57104373    
  -2.54972792      0.507171988     -0.517000020       965.754578       1.57104373    
  -1.84103203      0.366203994     -0.606999993       965.754578       1.57104373    
  -1.84103203      0.366203994     -0.606999993       610.529480       1.57108665    
  -1.33877206      0.266297996     -0.606999993       610.529480       1.57108665    
  -1.36500001       0.00000000     -0.606999993       610.529480       1.57108665    
  -1.87709999       0.00000000     -0.606999993       610.529480       1.57108665    
  -1.84103203      0.366203994     -0.606999993       930.421448       1.57104743    
  -2.54972792      0.507171988     -0.517000020       930.421448       1.57104743    
  -2.40179110      0.994853973     -0.517000020       930.421448       1.57104743    
  -1.73421395      0.718334973     -0.606999993       930.421448       1.57104743    
  -1.73421395      0.718334973     -0.606999993       587.992004       1.57109296    
  -1.26109600      0.522363007     -0.606999993       587.992004       1.57109296    
  -1.33877206      0.266297996     -0.606999993       587.992004       1.57109296    
  -1.84103203      0.366203994     -0.606999993       587.992004       1.57109296    
  -1.73421395      0.718334973     -0.606999993       858.519104       1.57105637    
  -2.40179110      0.994853973     -0.517000020       858.519104       1.57105637    
  -2.16155505       1.44430494     -0.517000020       858.519104       1.57105637    
  -1.56075203       1.04286098     -0.606999993       858.519104       1.57105637    
  -1.56075203       1.04286098     -0.606999993       542.486450       1.57110798    
  -1.13495600      0.758352995     -0.606999993       542.486450       1.57110798    
  -1.26109600      0.522363007     -0.606999993       542.486450       1.57110798    
  -1.73421395      0.718334973     -0.606999993       542.486450       1.57110798    
  -1.56075203       1.04286098     -0.606999993       751.336670       1.57107437    
  -2.16155505       1.44430494     -0.517000020       751.336670       1.57107437    
  -1.83825099       1.83825099     -0.517000020       751.336670       1.57107437    
  -1.32730997       1.32730997     -0.606999993       751.336670       1.57107437    
  -1.32730997       1.32730997     -0.606999993       475.292633       1.57113647    
 -0.965201020      0.965201020     -0.606999993       475.292633       1.57113647    
  -1.13495600      0.758352995     -0.606999993       475.292633       1.57113647    
  -1.56075203       1.04286098     -0.606999993       475.292633       1.57113647    
  -1.32730997       1.32730997     -0.606999993       614.934998       1.57110727    
  -1.83825099       1.83825099     -0.517000020       614.934998       1.57110727    
  -1.44430494       2.16155505     -0.517000020       614.934998       1.57110727    
  -1.04286098       1.56075203     -0.606999993       614.934998       1.57110727    
  -1.04286098       1.56075203     -0.606999993       389.617584       1.57118821    
 -0.758352995       1.13495600     -0.606999993       389.617584       1.57118821    
 -0.965201020      0.965201020     -0.606999993       389.617584       1.57118821    
  -1.32730997       1.32730997     -0.606999993       389.617584       1.57118821    
  -1.04286098       1.56075203     -0.606999993       456.737976       1.57117057    
  -1.44430494       2.16155505     -0.517000020       456.737976       1.57117057    
 -0.994853973       2.40179110     -0.517000020       456.737976       1.57117057    
 -0.718334973       1.73421395     -0.606999993       456.737976       1.57117057    
 -0.718334973       1.73421395     -0.606999993       289.632629       1.57128716    
 -0.522363007       1.26109600     -0.606999993       289.632629       1.57128716    
 -0.758352995       1.13495600     -0.606999993       289.632629       1.57128716    
  -1.04286098       1.56075203     -0.606999993       289.632629       1.57128716    
 -0.718334973       1.73421395     -0.606999993       282.047058       1.57132125    
 -0.994853973       2.40179110     -0.517000020       282.047058       1.57132125    
 -0.507171988       2.54972792     -0.517000020       282.047058       1.57132125    
 -0.366203994       1.84103203     -0.606999993       282.047058       1.57132125    
 -0.366203994       1.84103203     -0.606999993       179.035614       1.57152450    
 -0.266297996       1.33877206     -0.606999993       179.035614       1.57152450    
 -0.522363007       1.26109600     -0.606999993       179.035614       1.57152450    
 -0.718334973       1.73421395     -0.606999993       179.035614       1.57152450    
 -0.366203994       1.84103203     -0.606999993       95.6943817       1.57208097    
 -0.507171988       2.54972792     -0.517000020       95.6943817       1.57208097    
   0.00000000       2.59967995     -0.517000020       95.6943817       1.57208097    
   0.00000000       1.87709999     -0.606999993       95.6943817       1.57208097    
   0.00000000       1.87709999     -0.606999993       61.5185890       1.57270265    
   0.00000000       1.36500001     -0.606999993       61.5185890       1.57270265    
 -0.266297996       1.33877206     -0.606999993       61.5185890       1.57270265    
 -0.366203994       1.84103203     -0.606999993       61.5185890       1.57270265    
   0.00000000       1.87709999     -0.606999993       95.0314255      -1.57181501    
   0.00000000       2.59967995     -0.517000020       95.0314255      -1.57181501    
  0.507171988       2.54972792     -0.517000020       95.0314255      -1.57181501    
  0.366203994       1.84103203     -0.606999993       95.0314255      -1.57181501    
  0.366203994       1.84103203     -0.606999993       58.4793015      -1.57257235    
  0.266297996       1.33877206     -0.606999993       58.4793015      -1.57257235    
   0.00000000       1.36500001     -0.606999993       58.4793015      -1.57257235    
   0.00000000       1.87709999     -0.606999993       58.4793015      -1.57257235    
  0.366203994       1.84103203     -0.606999993       281.325592      -1.57105100    
  0.507171988       2.54972792     -0.517000020       281.325592      -1.57105100    
  0.994853973       2.40179110     -0.517000020       281.325592      -1.57105100    
  0.718334973       1.73421395     -0.606999993       281.325592      -1.57105100    
  0.718334973       1.73421395     -0.606999993       175.973602      -1.57131255    
  0.522363007       1.26109600     -0.606999993       175.973602      -1.57131255    
  0.266297996       1.33877206     -0.606999993       175.973602      -1.57131255    
  0.366203994       1.84103203     -0.606999993       175.973602      -1.57131255    
  0.718334973       1.73421395     -0.606999993       455.900238      -1.57090342    
  0.994853973       2.40179110     -0.517000020       455.900238      -1.57090342    
   1.44430494       2.16155505     -0.517000020       455.900238      -1.57090342    
   1.04286098       1.56075203     -0.606999993       455.900238      -1.57090342    
   1.04286098       1.56075203     -0.606999993       286.567322      -1.57107198    
  0.758352995       1.13495600     -0.606999993       286.567322      -1.57107198    
  0.522363007       1.26109600     -0.606999993       286.567322      -1.57107198    
  0.718334973       1.73421395     -0.606999993       286.567322      -1.57107198    
   1.04286098       1.56075203     -0.606999993       613.900513      -1.57084310    
   1.44430494       2.16155505     -0.517000020       613.900513      -1.57084310    
   1.83825099       1.83825099     -0.517000020       613.900513      -1.57084310    
   1.32730997       1.32730997     -0.606999993       613.900513      -1.57084310    
   1.32730997       1.32730997     -0.606999993       386.537811      -1.57097363    
  0.965201020      0.965201020     -0.606999993       386.537811      -1.57097363    
  0.758352995       1.13495600     -0.606999993       386.537811      -1.57097363    
   1.04286098       1.56075203     -0.606999993       386.537811      -1.57097363    
   1.32730997       1.32730997     -0.606999993       750.030762      -1.57081127    
   1.83825099       1.83825099     -0.517000020       750.030762      -1.57081127    
   2.16155505       1.44430494     -0.517000020       750.030762      -1.57081127    
   1.56075203       1.04286098     -0.606999993       750.030762      -1.57081127    
   1.56075203       1.04286098     -0.606999993       472.244385      -1.57092237    
   1.13495600      0.758352995     -0.606999993       472.244385      -1.57092237    
  0.965201020      0.965201020     -0.606999993       472.244385      -1.57092237    
   1.32730997       1.32730997     -0.606999993       472.244385      -1.57092237    
   1.56075203       1.04286098     -0.606999993       856.905945      -1.57079279    
   2.16155505       1.44430494     -0.517000020       856.905945      -1.57079279    
   2.40179110      0.994853973     -0.517000020       856.905945      -1.57079279    
   1.73421395      0.718334973     -0.606999993       856.905945      -1.57079279    
   1.73421395      0.718334973     -0.606999993       539.681274      -1.57089281    
   1.26109600      0.522363007     -0.606999993       539.681274      -1.57089281    
   1.13495600      0.758352995     -0.606999993       539.681274      -1.57089281    
   1.56075203       1.04286098     -0.606999993       539.681274      -1.57089281    
   1.73421395      0.718334973     -0.606999993       928.525391      -1.57078207    
   2.40179110      0.994853973     -0.517000020       928.525391      -1.57078207    
   2.54972792      0.507171988     -0.517000020       928.525391      -1.57078207    
   1.84103203      0.366203994     -0.606999993       928.525391      -1.57078207    
   1.84103203      0.366203994     -0.606999993       585.499756      -1.57087624    
   1.33877206      0.266297996     -0.606999993       585.499756      -1.57087624    
   1.26109600      0.522363007     -0.606999993       585.499756      -1.57087624    
   1.73421395      0.718334973     -0.606999993       585.499756      -1.57087624    
   1.84103203      0.366203994     -0.606999993       963.652466      -1.57077718    
   2.54972792      0.507171988     -0.517000020       963.652466      -1.57077718    
   2.59967995       0.00000000     -0.517000020       963.652466      -1.57077718    
   1.87709999       0.00000000     -0.606999993       963.652466      -1.57077718    
   1.87709999       0.00000000     -0.606999993       608.381775      -1.57086849    
   1.36500001       0.00000000     -0.606999993       608.381775      -1.57086849    
   1.33877206      0.266297996     -0.606999993       608.381775      -1.57086849    
   1.84103203      0.366203994     -0.606999993       608.381775      -1.57086849    
   1.87709999       0.00000000     -0.606999993       963.261047      -1.57077730    
   2.59967995       0.00000000     -0.517000020       963.261047      -1.57077730    
   2.54972792     -0.507171988     -0.517000020       963.261047      -1.57077730    
   1.84103203     -0.366203994     -0.606999993       963.261047      -1.57077730    
   1.84103203     -0.366203994     -0.606999993       608.305359      -1.57086861    
   1.33877206     -0.266297996     -0.606999993       608.305359      -1.57086861    
   1.36500001       0.00000000     -0.606999993       608.305359      -1.57086861    
   1.87709999       0.00000000     -0.606999993       608.305359      -1.57086861    
   1.84103203     -0.366203994     -0.606999993       927.004761      -1.57078242    
   2.54972792     -0.507171988     -0.517000020       927.004761      -1.57078242    
   2.40179110     -0.994853973     -0.517000020       927.004761      -1.57078242    
   1.73421395     -0.718334973     -0.606999993       927.004761      -1.57078242    
   1.73421395     -0.718334973     -0.606999993       585.114624      -1.57087624    
   1.26109600     -0.522363007     -0.606999993       585.114624      -1.57087624    
   1.33877206     -0.266297996     -0.606999993       585.114624      -1.57087624    
   1.84103203     -0.366203994     -0.606999993       585.114624      -1.57087624    
   1.73421395     -0.718334973     -0.606999993       853.856506      -1.57079315    
   2.40179110     -0.994853973     -0.517000020       853.856506      -1.57079315    
   2.16155505      -1.44430494     -0.517000020       853.856506      -1.57079315    
   1.56075203      -1.04286098     -0.606999993       853.856506      -1.57079315    
   1.56075203      -1.04286098     -0.606999993       538.879456      -1.57089305    
   1.13495600     -0.758352995     -0.606999993       538.879456      -1.57089305    
   1.26109600     -0.522363007     -0.606999993       538.879456      -1.57089305    