 VARIABLES="X" "Y" "Z" "abs(p) (Pa)" "angle(p) (rad)"
ZONE N=   2709,E =    2358, F=FEPOINT, ET=QUADRILATERAL
   0.00000000      -5.48999977     -0.157000005       472.626007      -1.62967348    
   0.00000000      -4.76741982     -0.246999994       472.626007      -1.62967348    
  0.930077016      -4.67581606     -0.246999994       472.626007      -1.62967348    
   1.07104599      -5.38451099     -0.157000005       472.626007      -1.62967348    
  -1.07104599      -5.38451099     -0.157000005       478.316467       1.52214861    
 -0.930077016      -4.67581606     -0.246999994       478.316467       1.52214861    
   0.00000000      -4.76741982     -0.246999994       478.316467       1.52214861    
   0.00000000      -5.48999977     -0.157000005       478.316467       1.52214861    
  -2.10093188      -5.07209921     -0.157000005       1429.81641       1.51898122    
  -1.82441294      -4.40452194     -0.246999994       1429.81641       1.51898122    
 -0.930077016      -4.67581606     -0.246999994       1429.81641       1.51898122    
  -1.07104599      -5.38451099     -0.157000005       1429.81641       1.51898122    
  -3.05008101      -4.56476784     -0.157000005       2282.72314       1.51352131    
  -2.64863706      -3.96396494     -0.246999994       2282.72314       1.51352131    
  -1.82441294      -4.40452194     -0.246999994       2282.72314       1.51352131    
  -2.10093188      -5.07209921     -0.157000005       2282.72314       1.51352131    
  -3.88201594      -3.88201594     -0.157000005       3065.05981       1.51545262    
  -3.37107491      -3.37107491     -0.246999994       3065.05981       1.51545262    
  -2.64863706      -3.96396494     -0.246999994       3065.05981       1.51545262    
  -3.05008101      -4.56476784     -0.157000005       3065.05981       1.51545262    
  -4.56476784      -3.05008101     -0.157000005       3779.89551       1.52106786    
  -3.96396494      -2.64863706     -0.246999994       3779.89551       1.52106786    
  -3.37107491      -3.37107491     -0.246999994       3779.89551       1.52106786    
  -3.88201594      -3.88201594     -0.157000005       3779.89551       1.52106786    
  -5.07209921      -2.10093188     -0.157000005       4261.00146       1.51747358    
  -4.40452194      -1.82441294     -0.246999994       4261.00146       1.51747358    
  -3.96396494      -2.64863706     -0.246999994       4261.00146       1.51747358    
  -4.56476784      -3.05008101     -0.157000005       4261.00146       1.51747358    
  -5.38451099      -1.07104599     -0.157000005       4628.15283       1.51520050    
  -4.67581606     -0.930077016     -0.246999994       4628.15283       1.51520050    
  -4.40452194      -1.82441294     -0.246999994       4628.15283       1.51520050    
  -5.07209921      -2.10093188     -0.157000005       4628.15283       1.51520050    
  -5.48999977       0.00000000     -0.157000005       4892.10059       1.51791883    
  -4.76741982       0.00000000     -0.246999994       4892.10059       1.51791883    
  -4.67581606     -0.930077016     -0.246999994       4892.10059       1.51791883    
  -5.38451099      -1.07104599     -0.157000005       4892.10059       1.51791883    
  -5.38451099       1.07104599     -0.157000005       4904.17871       1.51822364    
  -4.67581606      0.930077016     -0.246999994       4904.17871       1.51822364    
  -4.76741982       0.00000000     -0.246999994       4904.17871       1.51822364    
  -5.48999977       0.00000000     -0.157000005       4904.17871       1.51822364    
  -5.07209921       2.10093188     -0.157000005       4713.59131       1.51870942    
  -4.40452194       1.82441294     -0.246999994       4713.59131       1.51870942    
  -4.67581606      0.930077016     -0.246999994       4713.59131       1.51870942    
  -5.38451099       1.07104599     -0.157000005       4713.59131       1.51870942    
  -4.56476784       3.05008101     -0.157000005       4337.57129       1.51878023    
  -3.96396494       2.64863706     -0.246999994       4337.57129       1.51878023    
  -4.40452194       1.82441294     -0.246999994       4337.57129       1.51878023    
  -5.07209921       2.10093188     -0.157000005       4337.57129       1.51878023    
  -3.88201594       3.88201594     -0.157000005       3751.30200       1.51480722    
  -3.37107491       3.37107491     -0.246999994       3751.30200       1.51480722    
  -3.96396494       2.64863706     -0.246999994       3751.30200       1.51480722    
  -4.56476784       3.05008101     -0.157000005       3751.30200       1.51480722    
  -3.05008101       4.56476784     -0.157000005       3110.61401       1.51799035    
  -2.64863706       3.96396494     -0.246999994       3110.61401       1.51799035    
  -3.37107491       3.37107491     -0.246999994       3110.61401       1.51799035    
  -3.88201594       3.88201594     -0.157000005       3110.61401       1.51799035    
  -2.10093188       5.07209921     -0.157000005       2283.87964       1.51520562    
  -1.82441294       4.40452194     -0.246999994       2283.87964       1.51520562    
  -2.64863706       3.96396494     -0.246999994       2283.87964       1.51520562    
  -3.05008101       4.56476784     -0.157000005       2283.87964       1.51520562    
  -1.07104599       5.38451099     -0.157000005       1421.92566       1.51886272    
 -0.930077016       4.67581606     -0.246999994       1421.92566       1.51886272    
  -1.82441294       4.40452194     -0.246999994       1421.92566       1.51886272    
  -2.10093188       5.07209921     -0.157000005       1421.92566       1.51886272    
   0.00000000       5.48999977     -0.157000005       476.948395       1.51233172    
   0.00000000       4.76741982     -0.246999994       476.948395       1.51233172    
 -0.930077016       4.67581606     -0.246999994       476.948395       1.51233172    
  -1.07104599       5.38451099     -0.157000005       476.948395       1.51233172    
   1.07104599       5.38451099     -0.157000005       484.890167      -1.61544836    
  0.930077016       4.67581606     -0.246999994       484.890167      -1.61544836    
   0.00000000       4.76741982     -0.246999994       484.890167      -1.61544836    
   0.00000000       5.48999977     -0.157000005       484.890167      -1.61544836    
   2.10093188       5.07209921     -0.157000005       1410.37561      -1.62664473    
   1.82441294       4.40452194     -0.246999994       1410.37561      -1.62664473    
  0.930077016       4.67581606     -0.246999994       1410.37561      -1.62664473    
   1.07104599       5.38451099     -0.157000005       1410.37561      -1.62664473    
   3.05008101       4.56476784     -0.157000005       2282.55591      -1.62823641    
   2.64863706       3.96396494     -0.246999994       2282.55591      -1.62823641    
   1.82441294       4.40452194     -0.246999994       2282.55591      -1.62823641    
   2.10093188       5.07209921     -0.157000005       2282.55591      -1.62823641    
   3.88201594       3.88201594     -0.157000005       3110.40552      -1.62213099    
   3.37107491       3.37107491     -0.246999994       3110.40552      -1.62213099    
   2.64863706       3.96396494     -0.246999994       3110.40552      -1.62213099    
   3.05008101       4.56476784     -0.157000005       3110.40552      -1.62213099    
   4.56476784       3.05008101     -0.157000005       3767.39331      -1.62184203    
   3.96396494       2.64863706     -0.246999994       3767.39331      -1.62184203    
   3.37107491       3.37107491     -0.246999994       3767.39331      -1.62184203    
   3.88201594       3.88201594     -0.157000005       3767.39331      -1.62184203    
   5.07209921       2.10093188     -0.157000005       4323.19434      -1.62092113    
   4.40452194       1.82441294     -0.246999994       4323.19434      -1.62092113    
   3.96396494       2.64863706     -0.246999994       4323.19434      -1.62092113    
   4.56476784       3.05008101     -0.157000005       4323.19434      -1.62092113    
   5.38451099       1.07104599     -0.157000005       4628.15820      -1.62690461    
   4.67581606      0.930077016     -0.246999994       4628.15820      -1.62690461    
   4.40452194       1.82441294     -0.246999994       4628.15820      -1.62690461    
   5.07209921       2.10093188     -0.157000005       4628.15820      -1.62690461    
   5.48999977       0.00000000     -0.157000005       4811.77979      -1.62753665    
   4.76741982       0.00000000     -0.246999994       4811.77979      -1.62753665    
   4.67581606      0.930077016     -0.246999994       4811.77979      -1.62753665    
   5.38451099       1.07104599     -0.157000005       4811.77979      -1.62753665    
   5.38451099      -1.07104599     -0.157000005       4809.66602      -1.62639332    
   4.67581606     -0.930077016     -0.246999994       4809.66602      -1.62639332    
   4.76741982       0.00000000     -0.246999994       4809.66602      -1.62639332    
   5.48999977       0.00000000     -0.157000005       4809.66602      -1.62639332    
   5.07209921      -2.10093188     -0.157000005       4619.83740      -1.62573457    
   4.40452194      -1.82441294     -0.246999994       4619.83740      -1.62573457    
   4.67581606     -0.930077016     -0.246999994       4619.83740      -1.62573457    
   5.38451099      -1.07104599     -0.157000005       4619.83740      -1.62573457    
   4.56476784      -3.05008101     -0.157000005       4258.62305      -1.62640560    
   3.96396494      -2.64863706     -0.246999994       4258.62305      -1.62640560    
   4.40452194      -1.82441294     -0.246999994       4258.62305      -1.62640560    
   5.07209921      -2.10093188     -0.157000005       4258.62305      -1.62640560    
   3.88201594      -3.88201594     -0.157000005       3738.98145      -1.62746692    
   3.37107491      -3.37107491     -0.246999994       3738.98145      -1.62746692    
   3.96396494      -2.64863706     -0.246999994       3738.98145      -1.62746692    
   4.56476784      -3.05008101     -0.157000005       3738.98145      -1.62746692    
   3.05008101      -4.56476784     -0.157000005       3108.61328      -1.62397361    
   2.64863706      -3.96396494     -0.246999994       3108.61328      -1.62397361    
   3.37107491      -3.37107491     -0.246999994       3108.61328      -1.62397361    
   3.88201594      -3.88201594     -0.157000005       3108.61328      -1.62397361    
   2.10093188      -5.07209921     -0.157000005       2282.40063      -1.62620807    
   1.82441294      -4.40452194     -0.246999994       2282.40063      -1.62620807    
   2.64863706      -3.96396494     -0.246999994       2282.40063      -1.62620807    
   3.05008101      -4.56476784     -0.157000005       2282.40063      -1.62620807    
   1.07104599      -5.38451099     -0.157000005       1402.71899      -1.62558913    
  0.930077016      -4.67581606     -0.246999994       1402.71899      -1.62558913    
   1.82441294      -4.40452194     -0.246999994       1402.71899      -1.62558913    
   2.10093188      -5.07209921     -0.157000005       1402.71899      -1.62558913    
   0.00000000      -1.87709999     -0.606999993       358.410889      -1.57638693    
   0.00000000      -1.36500001     -0.606999993       358.410889      -1.57638693    
  0.266297996      -1.33877206     -0.606999993       358.410889      -1.57638693    
  0.366203994      -1.84103203     -0.606999993       358.410889      -1.57638693    
   0.00000000      -1.87709999     -0.606999993       287.261780       1.56465709    
   0.00000000      -2.59967995     -0.517000020       287.261780       1.56465709    
 -0.507171988      -2.54972792     -0.517000020       287.261780       1.56465709    
 -0.366203994      -1.84103203     -0.606999993       287.261780       1.56465709    
 -0.366203994      -1.84103203     -0.606999993       361.154602       1.56583118    
 -0.266297996      -1.33877206     -0.606999993       361.154602       1.56583118    
   0.00000000      -1.36500001     -0.606999993       361.154602       1.56583118    
   0.00000000      -1.87709999     -0.606999993       361.154602       1.56583118    
 -0.366203994      -1.84103203     -0.606999993       849.634155       1.56466746    
 -0.507171988      -2.54972792     -0.517000020       849.634155       1.56466746    
 -0.994853973      -2.40179110     -0.517000020       849.634155       1.56466746    
 -0.718334973      -1.73421395     -0.606999993       849.634155       1.56466746    
 -0.718334973      -1.73421395     -0.606999993       1066.42383       1.56564188    
 -0.522363007      -1.26109600     -0.606999993       1066.42383       1.56564188    
 -0.266297996      -1.33877206     -0.606999993       1066.42383       1.56564188    
 -0.366203994      -1.84103203     -0.606999993       1066.42383       1.56564188    
 -0.718334973      -1.73421395     -0.606999993       1376.84058       1.56477106    
 -0.994853973      -2.40179110     -0.517000020       1376.84058       1.56477106    
  -1.44430494      -2.16155505     -0.517000020       1376.84058       1.56477106    
  -1.04286098      -1.56075203     -0.606999993       1376.84058       1.56477106    
  -1.04286098      -1.56075203     -0.606999993       1730.79834       1.56567645    
 -0.758352995      -1.13495600     -0.606999993       1730.79834       1.56567645    
 -0.522363007      -1.26109600     -0.606999993       1730.79834       1.56567645    
 -0.718334973      -1.73421395     -0.606999993       1730.79834       1.56567645    
  -1.04286098      -1.56075203     -0.606999993       1853.78076       1.56486356    
  -1.44430494      -2.16155505     -0.517000020       1853.78076       1.56486356    
  -1.83825099      -1.83825099     -0.517000020       1853.78076       1.56486356    
  -1.32730997      -1.32730997     -0.606999993       1853.78076       1.56486356    
  -1.32730997      -1.32730997     -0.606999993       2330.20679       1.56570160    
 -0.965201020     -0.965201020     -0.606999993       2330.20679       1.56570160    
 -0.758352995      -1.13495600     -0.606999993       2330.20679       1.56570160    
  -1.04286098      -1.56075203     -0.606999993       2330.20679       1.56570160    
  -1.32730997      -1.32730997     -0.606999993       2265.32300       1.56490314    
  -1.83825099      -1.83825099     -0.517000020       2265.32300       1.56490314    
  -2.16155505      -1.44430494     -0.517000020       2265.32300       1.56490314    
  -1.56075203      -1.04286098     -0.606999993       2265.32300       1.56490314    
  -1.56075203      -1.04286098     -0.606999993       2842.28540       1.56571567    
  -1.13495600     -0.758352995     -0.606999993       2842.28540       1.56571567    
 -0.965201020     -0.965201020     -0.606999993       2842.28540       1.56571567    
  -1.32730997      -1.32730997     -0.606999993       2842.28540       1.56571567    
  -1.56075203      -1.04286098     -0.606999993       2590.41016       1.56488991    
  -2.16155505      -1.44430494     -0.517000020       2590.41016       1.56488991    
  -2.40179110     -0.994853973     -0.517000020       2590.41016       1.56488991    
  -1.73421395     -0.718334973     -0.606999993       2590.41016       1.56488991    
  -1.73421395     -0.718334973     -0.606999993       3245.05542       1.56570113    
  -1.26109600     -0.522363007     -0.606999993       3245.05542       1.56570113    
  -1.13495600     -0.758352995     -0.606999993       3245.05542       1.56570113    
  -1.56075203      -1.04286098     -0.606999993       3245.05542       1.56570113    
  -1.73421395     -0.718334973     -0.606999993       2809.51562       1.56483817    
  -2.40179110     -0.994853973     -0.517000020       2809.51562       1.56483817    
  -2.54972792     -0.507171988     -0.517000020       2809.51562       1.56483817    
  -1.84103203     -0.366203994     -0.606999993       2809.51562       1.56483817    
  -1.84103203     -0.366203994     -0.606999993       3519.80322       1.56567693    
  -1.33877206     -0.266297996     -0.606999993       3519.80322       1.56567693    
  -1.26109600     -0.522363007     -0.606999993       3519.80322       1.56567693    
  -1.73421395     -0.718334973     -0.606999993       3519.80322       1.56567693    
  -1.84103203     -0.366203994     -0.606999993       2916.65869       1.56479251    
  -2.54972792     -0.507171988     -0.517000020       2916.65869       1.56479251    
  -2.59967995       0.00000000     -0.517000020       2916.65869       1.56479251    
  -1.87709999       0.00000000     -0.606999993       2916.65869       1.56479251    
  -1.87709999       0.00000000     -0.606999993       3656.72461       1.56563747    
  -1.36500001       0.00000000     -0.606999993       3656.72461       1.56563747    
  -1.33877206     -0.266297996     -0.606999993       3656.72461       1.56563747    
  -1.84103203     -0.366203994     -0.606999993       3656.72461       1.56563747    
  -1.87709999       0.00000000     -0.606999993       2915.49707       1.56478119    
  -2.59967995       0.00000000     -0.517000020       2915.49707       1.56478119    
  -2.54972792      0.507171988     -0.517000020       2915.49707       1.56478119    
  -1.84103203      0.366203994     -0.606999993       2915.49707       1.56478119    
  -1.84103203      0.366203994     -0.606999993       3653.90454       1.56562912    
  -1.33877206      0.266297996     -0.606999993       3653.90454       1.56562912    
  -1.36500001       0.00000000     -0.606999993       3653.90454       1.56562912    
  -1.87709999       0.00000000     -0.606999993       3653.90454       1.56562912    
  -1.84103203      0.366203994     -0.606999993       2807.62231       1.56479049    
  -2.54972792      0.507171988     -0.517000020       2807.62231       1.56479049    
  -2.40179110      0.994853973     -0.517000020       2807.62231       1.56479049    
  -1.73421395      0.718334973     -0.606999993       2807.62231       1.56479049    
  -1.73421395      0.718334973     -0.606999993       3512.53711       1.56560671    
  -1.26109600      0.522363007     -0.606999993       3512.53711       1.56560671    
  -1.33877206      0.266297996     -0.606999993       3512.53711       1.56560671    
  -1.84103203      0.366203994     -0.606999993       3512.53711       1.56560671    
  -1.73421395      0.718334973     -0.606999993       2590.22754       1.56481779    
  -2.40179110      0.994853973     -0.517000020       2590.22754       1.56481779    
  -2.16155505       1.44430494     -0.517000020       2590.22754       1.56481779    
  -1.56075203       1.04286098     -0.606999993       2590.22754       1.56481779    
  -1.56075203       1.04286098     -0.606999993       3235.82764       1.56561935    
  -1.13495600      0.758352995     -0.606999993       3235.82764       1.56561935    
  -1.26109600      0.522363007     -0.606999993       3235.82764       1.56561935    
  -1.73421395      0.718334973     -0.606999993       3235.82764       1.56561935    
  -1.56075203       1.04286098     -0.606999993       2266.76489       1.56484187    
  -2.16155505       1.44430494     -0.517000020       2266.76489       1.56484187    
  -1.83825099       1.83825099     -0.517000020       2266.76489       1.56484187    
  -1.32730997       1.32730997     -0.606999993       2266.76489       1.56484187    
  -1.32730997       1.32730997     -0.606999993       2832.91382       1.56562579    
 -0.965201020      0.965201020     -0.606999993       2832.91382       1.56562579    
  -1.13495600      0.758352995     -0.606999993       2832.91382       1.56562579    
  -1.56075203       1.04286098     -0.606999993       2832.91382       1.56562579    
  -1.32730997       1.32730997     -0.606999993       1854.89453       1.56482518    
  -1.83825099       1.83825099     -0.517000020       1854.89453       1.56482518    
  -1.44430494       2.16155505     -0.517000020       1854.89453       1.56482518    
  -1.04286098       1.56075203     -0.606999993       1854.89453       1.56482518    
  -1.04286098       1.56075203     -0.606999993       2321.25732       1.56560719    
 -0.758352995       1.13495600     -0.606999993       2321.25732       1.56560719    
 -0.965201020      0.965201020     -0.606999993       2321.25732       1.56560719    
  -1.32730997       1.32730997     -0.606999993       2321.25732       1.56560719    
  -1.04286098       1.56075203     -0.606999993       1377.06982       1.56475568    
  -1.44430494       2.16155505     -0.517000020       1377.06982       1.56475568    
 -0.994853973       2.40179110     -0.517000020       1377.06982       1.56475568    
 -0.718334973       1.73421395     -0.606999993       1377.06982       1.56475568    
 -0.718334973       1.73421395     -0.606999993       1723.01868       1.56557393    
 -0.522363007       1.26109600     -0.606999993       1723.01868       1.56557393    
 -0.758352995       1.13495600     -0.606999993       1723.01868       1.56557393    
  -1.04286098       1.56075203     -0.606999993       1723.01868       1.56557393    
 -0.718334973       1.73421395     -0.606999993       849.918884       1.56466997    
 -0.994853973       2.40179110     -0.517000020       849.918884       1.56466997    
 -0.507171988       2.54972792     -0.517000020       849.918884       1.56466997    
 -0.366203994       1.84103203     -0.606999993       849.918884       1.56466997    
 -0.366203994       1.84103203     -0.606999993       1061.13782       1.56555450    
 -0.266297996       1.33877206     -0.606999993       1061.13782       1.56555450    
 -0.522363007       1.26109600     -0.606999993       1061.13782       1.56555450    
 -0.718334973       1.73421395     -0.606999993       1061.13782       1.56555450    
 -0.366203994       1.84103203     -0.606999993       288.649292       1.56472647    
 -0.507171988       2.54972792     -0.517000020       288.649292       1.56472647    
   0.00000000       2.59967995     -0.517000020       288.649292       1.56472647    
   0.00000000       1.87709999     -0.606999993       288.649292       1.56472647    
   0.00000000       1.87709999     -0.606999993       358.934692       1.56558943    
   0.00000000       1.36500001     -0.606999993       358.934692       1.56558943    
 -0.266297996       1.33877206     -0.606999993       358.934692       1.56558943    
 -0.366203994       1.84103203     -0.606999993       358.934692       1.56558943    
   0.00000000       1.87709999     -0.606999993       285.495941      -1.57722497    
   0.00000000       2.59967995     -0.517000020       285.495941      -1.57722497    
  0.507171988       2.54972792     -0.517000020       285.495941      -1.57722497    
  0.366203994       1.84103203     -0.606999993       285.495941      -1.57722497    
  0.366203994       1.84103203     -0.606999993       357.265533      -1.57626438    
  0.266297996       1.33877206     -0.606999993       357.265533      -1.57626438    
   0.00000000       1.36500001     -0.606999993       357.265533      -1.57626438    
   0.00000000       1.87709999     -0.606999993       357.265533      -1.57626438    
  0.366203994       1.84103203     -0.606999993       847.058594      -1.57702732    
  0.507171988       2.54972792     -0.517000020       847.058594      -1.57702732    
  0.994853973       2.40179110     -0.517000020       847.058594      -1.57702732    
  0.718334973       1.73421395     -0.606999993       847.058594      -1.57702732    
  0.718334973       1.73421395     -0.606999993       1059.78845      -1.57613838    
  0.522363007       1.26109600     -0.606999993       1059.78845      -1.57613838    
  0.266297996       1.33877206     -0.606999993       1059.78845      -1.57613838    
  0.366203994       1.84103203     -0.606999993       1059.78845      -1.57613838    
  0.718334973       1.73421395     -0.606999993       1374.68738      -1.57686424    
  0.994853973       2.40179110     -0.517000020       1374.68738      -1.57686424    
   1.44430494       2.16155505     -0.517000020       1374.68738      -1.57686424    
   1.04286098       1.56075203     -0.606999993       1374.68738      -1.57686424    
   1.04286098       1.56075203     -0.606999993       1722.69629      -1.57604778    
  0.758352995       1.13495600     -0.606999993       1722.69629      -1.57604778    
  0.522363007       1.26109600     -0.606999993       1722.69629      -1.57604778    
  0.718334973       1.73421395     -0.606999993       1722.69629      -1.57604778    
   1.04286098       1.56075203     -0.606999993       1853.07507      -1.57676208    
   1.44430494       2.16155505     -0.517000020       1853.07507      -1.57676208    
   1.83825099       1.83825099     -0.517000020       1853.07507      -1.57676208    
   1.32730997       1.32730997     -0.606999993       1853.07507      -1.57676208    
   1.32730997       1.32730997     -0.606999993       2321.95532      -1.57598436    
  0.965201020      0.965201020     -0.606999993       2321.95532      -1.57598436    
  0.758352995       1.13495600     -0.606999993       2321.95532      -1.57598436    
   1.04286098       1.56075203     -0.606999993       2321.95532      -1.57598436    
   1.32730997       1.32730997     -0.606999993       2265.40527      -1.57671916    
   1.83825099       1.83825099     -0.517000020       2265.40527      -1.57671916    
   2.16155505       1.44430494     -0.517000020       2265.40527      -1.57671916    
   1.56075203       1.04286098     -0.606999993       2265.40527      -1.57671916    
   1.56075203       1.04286098     -0.606999993       2834.40649      -1.57595992    
   1.13495600      0.758352995     -0.606999993       2834.40649      -1.57595992    
  0.965201020      0.965201020     -0.606999993       2834.40649      -1.57595992    
   1.32730997       1.32730997     -0.606999993       2834.40649      -1.57595992    
   1.56075203       1.04286098     -0.606999993       2588.93042      -1.57675779    
   2.16155505       1.44430494     -0.517000020       2588.93042      -1.57675779    
   2.40179110      0.994853973     -0.517000020       2588.93042      -1.57675779    
   1.73421395      0.718334973     -0.606999993       2588.93042      -1.57675779    
   1.73421395      0.718334973     -0.606999993       3236.87451      -1.57596147    
   1.26109600      0.522363007     -0.606999993       3236.87451      -1.57596147    
   1.13495600      0.758352995     -0.606999993       3236.87451      -1.57596147    
   1.56075203       1.04286098     -0.606999993       3236.87451      -1.57596147    
   1.73421395      0.718334973     -0.606999993       2806.07007      -1.57680070    
   2.40179110      0.994853973     -0.517000020       2806.07007      -1.57680070    
   2.54972792      0.507171988     -0.517000020       2806.07007      -1.57680070    
   1.84103203      0.366203994     -0.606999993       2806.07007      -1.57680070    
   1.84103203      0.366203994     -0.606999993       3512.40088      -1.57597876    
   1.33877206      0.266297996     -0.606999993       3512.40088      -1.57597876    
   1.26109600      0.522363007     -0.606999993       3512.40088      -1.57597876    
   1.73421395      0.718334973     -0.606999993       3512.40088      -1.57597876    
   1.84103203      0.366203994     -0.606999993       2913.72534      -1.57682931    
   2.54972792      0.507171988     -0.517000020       2913.72534      -1.57682931    
   2.59967995       0.00000000     -0.517000020       2913.72534      -1.57682931    
   1.87709999       0.00000000     -0.606999993       2913.72534      -1.57682931    
   1.87709999       0.00000000     -0.606999993       3652.59180      -1.57599008    
   1.36500001       0.00000000     -0.606999993       3652.59180      -1.57599008    
   1.33877206      0.266297996     -0.606999993       3652.59180      -1.57599008    
   1.84103203      0.366203994     -0.606999993       3652.59180      -1.57599008    
   1.87709999       0.00000000     -0.606999993       2914.91309      -1.57683074    
   2.59967995       0.00000000     -0.517000020       2914.91309      -1.57683074    
   2.54972792     -0.507171988     -0.517000020       2914.91309      -1.57683074    
   1.84103203     -0.366203994     -0.606999993       2914.91309      -1.57683074    
   1.84103203     -0.366203994     -0.606999993       3654.35010      -1.57598507    
   1.33877206     -0.266297996     -0.606999993       3654.35010      -1.57598507    
   1.36500001       0.00000000     -0.606999993       3654.35010      -1.57598507    
   1.87709999       0.00000000     -0.606999993       3654.35010      -1.57598507    
   1.84103203     -0.366203994     -0.606999993       2808.09961      -1.57681084    
   2.54972792     -0.507171988     -0.517000020       2808.09961      -1.57681084    
   2.40179110     -0.994853973     -0.517000020       2808.09961      -1.57681084    
   1.73421395     -0.718334973     -0.606999993       2808.09961      -1.57681084    
   1.73421395     -0.718334973     -0.606999993       3516.64258      -1.57596743    
   1.26109600     -0.522363007     -0.606999993       3516.64258      -1.57596743    
   1.33877206     -0.266297996     -0.606999993       3516.64258      -1.57596743    
   1.84103203     -0.366203994     -0.606999993       3516.64258      -1.57596743    
   1.73421395     -0.718334973     -0.606999993       2589.40088      -1.57677519    
   2.40179110     -0.994853973     -0.517000020       2589.40088      -1.57677519    
   2.16155505      -1.44430494     -0.517000020       2589.40088      -1.57677519    
   1.56075203      -1.04286098     -0.606999993       2589.40088      -1.57677519    
   1.56075203      -1.04286098     -0.606999993       3241.63892      -1.57595313    
   1.13495600     -0.758352995     -0.606999993       3241.63892      -1.57595313    
   1.26109600     -0.522363007     -0.606999993       3241.63892      -1.57595313    