 VARIABLES="X" "Y" "Z" "abs(p) (Pa)" "angle(p) (rad)"
ZONE N=   2709,E =    2358, F=FEPOINT, ET=QUADRILATERAL
   0.00000000      -5.48999977     -0.157000005       4574.55811      -1.61766684    
   0.00000000      -4.76741982     -0.246999994       4574.55811      -1.61766684    
  0.930077016      -4.67581606     -0.246999994       4574.55811      -1.61766684    
   1.07104599      -5.38451099     -0.157000005       4574.55811      -1.61766684    
  -1.07104599      -5.38451099     -0.157000005       4576.85791      -1.61924338    
 -0.930077016      -4.67581606     -0.246999994       4576.85791      -1.61924338    
   0.00000000      -4.76741982     -0.246999994       4576.85791      -1.61924338    
   0.00000000      -5.48999977     -0.157000005       4576.85791      -1.61924338    
  -2.10093188      -5.07209921     -0.157000005       4460.60400      -1.61844456    
  -1.82441294      -4.40452194     -0.246999994       4460.60400      -1.61844456    
 -0.930077016      -4.67581606     -0.246999994       4460.60400      -1.61844456    
  -1.07104599      -5.38451099     -0.157000005       4460.60400      -1.61844456    
  -3.05008101      -4.56476784     -0.157000005       4051.07031      -1.61986029    
  -2.64863706      -3.96396494     -0.246999994       4051.07031      -1.61986029    
  -1.82441294      -4.40452194     -0.246999994       4051.07031      -1.61986029    
  -2.10093188      -5.07209921     -0.157000005       4051.07031      -1.61986029    
  -3.88201594      -3.88201594     -0.157000005       3549.37354      -1.61716998    
  -3.37107491      -3.37107491     -0.246999994       3549.37354      -1.61716998    
  -2.64863706      -3.96396494     -0.246999994       3549.37354      -1.61716998    
  -3.05008101      -4.56476784     -0.157000005       3549.37354      -1.61716998    
  -4.56476784      -3.05008101     -0.157000005       2966.34814      -1.61169350    
  -3.96396494      -2.64863706     -0.246999994       2966.34814      -1.61169350    
  -3.37107491      -3.37107491     -0.246999994       2966.34814      -1.61169350    
  -3.88201594      -3.88201594     -0.157000005       2966.34814      -1.61169350    
  -5.07209921      -2.10093188     -0.157000005       2169.60693      -1.61238360    
  -4.40452194      -1.82441294     -0.246999994       2169.60693      -1.61238360    
  -3.96396494      -2.64863706     -0.246999994       2169.60693      -1.61238360    
  -4.56476784      -3.05008101     -0.157000005       2169.60693      -1.61238360    
  -5.38451099      -1.07104599     -0.157000005       1323.95239      -1.61650741    
  -4.67581606     -0.930077016     -0.246999994       1323.95239      -1.61650741    
  -4.40452194      -1.82441294     -0.246999994       1323.95239      -1.61650741    
  -5.07209921      -2.10093188     -0.157000005       1323.95239      -1.61650741    
  -5.48999977       0.00000000     -0.157000005       445.173950      -1.62989807    
  -4.76741982       0.00000000     -0.246999994       445.173950      -1.62989807    
  -4.67581606     -0.930077016     -0.246999994       445.173950      -1.62989807    
  -5.38451099      -1.07104599     -0.157000005       445.173950      -1.62989807    
  -5.38451099       1.07104599     -0.157000005       464.723785       1.54043722    
  -4.67581606      0.930077016     -0.246999994       464.723785       1.54043722    
  -4.76741982       0.00000000     -0.246999994       464.723785       1.54043722    
  -5.48999977       0.00000000     -0.157000005       464.723785       1.54043722    
  -5.07209921       2.10093188     -0.157000005       1360.83020       1.52696693    
  -4.40452194       1.82441294     -0.246999994       1360.83020       1.52696693    
  -4.67581606      0.930077016     -0.246999994       1360.83020       1.52696693    
  -5.38451099       1.07104599     -0.157000005       1360.83020       1.52696693    
  -4.56476784       3.05008101     -0.157000005       2206.74268       1.52389669    
  -3.96396494       2.64863706     -0.246999994       2206.74268       1.52389669    
  -4.40452194       1.82441294     -0.246999994       2206.74268       1.52389669    
  -5.07209921       2.10093188     -0.157000005       2206.74268       1.52389669    
  -3.88201594       3.88201594     -0.157000005       2927.76465       1.52177203    
  -3.37107491       3.37107491     -0.246999994       2927.76465       1.52177203    
  -3.96396494       2.64863706     -0.246999994       2927.76465       1.52177203    
  -4.56476784       3.05008101     -0.157000005       2927.76465       1.52177203    
  -3.05008101       4.56476784     -0.157000005       3615.41162       1.52467513    
  -2.64863706       3.96396494     -0.246999994       3615.41162       1.52467513    
  -3.37107491       3.37107491     -0.246999994       3615.41162       1.52467513    
  -3.88201594       3.88201594     -0.157000005       3615.41162       1.52467513    
  -2.10093188       5.07209921     -0.157000005       4067.33960       1.52348840    
  -1.82441294       4.40452194     -0.246999994       4067.33960       1.52348840    
  -2.64863706       3.96396494     -0.246999994       4067.33960       1.52348840    
  -3.05008101       4.56476784     -0.157000005       4067.33960       1.52348840    
  -1.07104599       5.38451099     -0.157000005       4471.37061       1.52517641    
 -0.930077016       4.67581606     -0.246999994       4471.37061       1.52517641    
  -1.82441294       4.40452194     -0.246999994       4471.37061       1.52517641    
  -2.10093188       5.07209921     -0.157000005       4471.37061       1.52517641    
   0.00000000       5.48999977     -0.157000005       4589.89941       1.52247882    
   0.00000000       4.76741982     -0.246999994       4589.89941       1.52247882    
 -0.930077016       4.67581606     -0.246999994       4589.89941       1.52247882    
  -1.07104599       5.38451099     -0.157000005       4589.89941       1.52247882    
   1.07104599       5.38451099     -0.157000005       4649.29248       1.52344048    
  0.930077016       4.67581606     -0.246999994       4649.29248       1.52344048    
   0.00000000       4.76741982     -0.246999994       4649.29248       1.52344048    
   0.00000000       5.48999977     -0.157000005       4649.29248       1.52344048    
   2.10093188       5.07209921     -0.157000005       4405.26953       1.52128971    
   1.82441294       4.40452194     -0.246999994       4405.26953       1.52128971    
  0.930077016       4.67581606     -0.246999994       4405.26953       1.52128971    
   1.07104599       5.38451099     -0.157000005       4405.26953       1.52128971    
   3.05008101       4.56476784     -0.157000005       4049.83862       1.52246261    
   2.64863706       3.96396494     -0.246999994       4049.83862       1.52246261    
   1.82441294       4.40452194     -0.246999994       4049.83862       1.52246261    
   2.10093188       5.07209921     -0.157000005       4049.83862       1.52246261    
   3.88201594       3.88201594     -0.157000005       3602.45679       1.52725637    
   3.37107491       3.37107491     -0.246999994       3602.45679       1.52725637    
   2.64863706       3.96396494     -0.246999994       3602.45679       1.52725637    
   3.05008101       4.56476784     -0.157000005       3602.45679       1.52725637    
   4.56476784       3.05008101     -0.157000005       2945.50269       1.52967107    
   3.96396494       2.64863706     -0.246999994       2945.50269       1.52967107    
   3.37107491       3.37107491     -0.246999994       2945.50269       1.52967107    
   3.88201594       3.88201594     -0.157000005       2945.50269       1.52967107    
   5.07209921       2.10093188     -0.157000005       2199.12158       1.53146636    
   4.40452194       1.82441294     -0.246999994       2199.12158       1.53146636    
   3.96396494       2.64863706     -0.246999994       2199.12158       1.53146636    
   4.56476784       3.05008101     -0.157000005       2199.12158       1.53146636    
   5.38451099       1.07104599     -0.157000005       1328.91882       1.52649760    
   4.67581606      0.930077016     -0.246999994       1328.91882       1.52649760    
   4.40452194       1.82441294     -0.246999994       1328.91882       1.52649760    
   5.07209921       2.10093188     -0.157000005       1328.91882       1.52649760    
   5.48999977       0.00000000     -0.157000005       445.209259       1.51025617    
   4.76741982       0.00000000     -0.246999994       445.209259       1.51025617    
   4.67581606      0.930077016     -0.246999994       445.209259       1.51025617    
   5.38451099       1.07104599     -0.157000005       445.209259       1.51025617    
   5.38451099      -1.07104599     -0.157000005       449.929321      -1.59691238    
   4.67581606     -0.930077016     -0.246999994       449.929321      -1.59691238    
   4.76741982       0.00000000     -0.246999994       449.929321      -1.59691238    
   5.48999977       0.00000000     -0.157000005       449.929321      -1.59691238    
   5.07209921      -2.10093188     -0.157000005       1331.98071      -1.61344552    
   4.40452194      -1.82441294     -0.246999994       1331.98071      -1.61344552    
   4.67581606     -0.930077016     -0.246999994       1331.98071      -1.61344552    
   5.38451099      -1.07104599     -0.157000005       1331.98071      -1.61344552    
   4.56476784      -3.05008101     -0.157000005       2166.43286      -1.61839831    
   3.96396494      -2.64863706     -0.246999994       2166.43286      -1.61839831    
   4.40452194      -1.82441294     -0.246999994       2166.43286      -1.61839831    
   5.07209921      -2.10093188     -0.157000005       2166.43286      -1.61839831    
   3.88201594      -3.88201594     -0.157000005       2919.21411      -1.61986244    
   3.37107491      -3.37107491     -0.246999994       2919.21411      -1.61986244    
   3.96396494      -2.64863706     -0.246999994       2919.21411      -1.61986244    
   4.56476784      -3.05008101     -0.157000005       2919.21411      -1.61986244    
   3.05008101      -4.56476784     -0.157000005       3607.26929      -1.61724448    
   2.64863706      -3.96396494     -0.246999994       3607.26929      -1.61724448    
   3.37107491      -3.37107491     -0.246999994       3607.26929      -1.61724448    
   3.88201594      -3.88201594     -0.157000005       3607.26929      -1.61724448    
   2.10093188      -5.07209921     -0.157000005       4055.02344      -1.61784363    
   1.82441294      -4.40452194     -0.246999994       4055.02344      -1.61784363    
   2.64863706      -3.96396494     -0.246999994       4055.02344      -1.61784363    
   3.05008101      -4.56476784     -0.157000005       4055.02344      -1.61784363    
   1.07104599      -5.38451099     -0.157000005       4396.34912      -1.61711907    
  0.930077016      -4.67581606     -0.246999994       4396.34912      -1.61711907    
   1.82441294      -4.40452194     -0.246999994       4396.34912      -1.61711907    
   2.10093188      -5.07209921     -0.157000005       4396.34912      -1.61711907    
   0.00000000      -1.87709999     -0.606999993       4068.01831      -1.57709849    
   0.00000000      -1.36500001     -0.606999993       4068.01831      -1.57709849    
  0.266297996      -1.33877206     -0.606999993       4068.01831      -1.57709849    
  0.366203994      -1.84103203     -0.606999993       4068.01831      -1.57709849    
   0.00000000      -1.87709999     -0.606999993       3747.76343      -1.57795703    
   0.00000000      -2.59967995     -0.517000020       3747.76343      -1.57795703    
 -0.507171988      -2.54972792     -0.517000020       3747.76343      -1.57795703    
 -0.366203994      -1.84103203     -0.606999993       3747.76343      -1.57795703    
 -0.366203994      -1.84103203     -0.606999993       4069.20459      -1.57725608    
 -0.266297996      -1.33877206     -0.606999993       4069.20459      -1.57725608    
   0.00000000      -1.36500001     -0.606999993       4069.20459      -1.57725608    
   0.00000000      -1.87709999     -0.606999993       4069.20459      -1.57725608    
 -0.366203994      -1.84103203     -0.606999993       3594.69482      -1.57803905    
 -0.507171988      -2.54972792     -0.517000020       3594.69482      -1.57803905    
 -0.994853973      -2.40179110     -0.517000020       3594.69482      -1.57803905    
 -0.718334973      -1.73421395     -0.606999993       3594.69482      -1.57803905    
 -0.718334973      -1.73421395     -0.606999993       3909.28638      -1.57741833    
 -0.522363007      -1.26109600     -0.606999993       3909.28638      -1.57741833    
 -0.266297996      -1.33877206     -0.606999993       3909.28638      -1.57741833    
 -0.366203994      -1.84103203     -0.606999993       3909.28638      -1.57741833    
 -0.718334973      -1.73421395     -0.606999993       3305.74512      -1.57811022    
 -0.994853973      -2.40179110     -0.517000020       3305.74512      -1.57811022    
  -1.44430494      -2.16155505     -0.517000020       3305.74512      -1.57811022    
  -1.04286098      -1.56075203     -0.606999993       3305.74512      -1.57811022    
  -1.04286098      -1.56075203     -0.606999993       3599.26855      -1.57755315    
 -0.758352995      -1.13495600     -0.606999993       3599.26855      -1.57755315    
 -0.522363007      -1.26109600     -0.606999993       3599.26855      -1.57755315    
 -0.718334973      -1.73421395     -0.606999993       3599.26855      -1.57755315    
  -1.04286098      -1.56075203     -0.606999993       2898.72412      -1.57813478    
  -1.44430494      -2.16155505     -0.517000020       2898.72412      -1.57813478    
  -1.83825099      -1.83825099     -0.517000020       2898.72412      -1.57813478    
  -1.32730997      -1.32730997     -0.606999993       2898.72412      -1.57813478    
  -1.32730997      -1.32730997     -0.606999993       3154.19971      -1.57764304    
 -0.965201020     -0.965201020     -0.606999993       3154.19971      -1.57764304    
 -0.758352995      -1.13495600     -0.606999993       3154.19971      -1.57764304    
  -1.04286098      -1.56075203     -0.606999993       3154.19971      -1.57764304    
  -1.32730997      -1.32730997     -0.606999993       2384.47339      -1.57810068    
  -1.83825099      -1.83825099     -0.517000020       2384.47339      -1.57810068    
  -2.16155505      -1.44430494     -0.517000020       2384.47339      -1.57810068    
  -1.56075203      -1.04286098     -0.606999993       2384.47339      -1.57810068    
  -1.56075203      -1.04286098     -0.606999993       2589.56885      -1.57767332    
  -1.13495600     -0.758352995     -0.606999993       2589.56885      -1.57767332    
 -0.965201020     -0.965201020     -0.606999993       2589.56885      -1.57767332    
  -1.32730997      -1.32730997     -0.606999993       2589.56885      -1.57767332    
  -1.56075203      -1.04286098     -0.606999993       1774.51611      -1.57799768    
  -2.16155505      -1.44430494     -0.517000020       1774.51611      -1.57799768    
  -2.40179110     -0.994853973     -0.517000020       1774.51611      -1.57799768    
  -1.73421395     -0.718334973     -0.606999993       1774.51611      -1.57799768    
  -1.73421395     -0.718334973     -0.606999993       1923.92578      -1.57762349    
  -1.26109600     -0.522363007     -0.606999993       1923.92578      -1.57762349    
  -1.13495600     -0.758352995     -0.606999993       1923.92578      -1.57762349    
  -1.56075203      -1.04286098     -0.606999993       1923.92578      -1.57762349    
  -1.73421395     -0.718334973     -0.606999993       1090.57532      -1.57782280    
  -2.40179110     -0.994853973     -0.517000020       1090.57532      -1.57782280    
  -2.54972792     -0.507171988     -0.517000020       1090.57532      -1.57782280    
  -1.84103203     -0.366203994     -0.606999993       1090.57532      -1.57782280    
  -1.84103203     -0.366203994     -0.606999993       1181.42957      -1.57742739    
  -1.33877206     -0.266297996     -0.606999993       1181.42957      -1.57742739    
  -1.26109600     -0.522363007     -0.606999993       1181.42957      -1.57742739    
  -1.73421395     -0.718334973     -0.606999993       1181.42957      -1.57742739    
  -1.84103203     -0.366203994     -0.606999993       364.375549      -1.57722318    
  -2.54972792     -0.507171988     -0.517000020       364.375549      -1.57722318    
  -2.59967995       0.00000000     -0.517000020       364.375549      -1.57722318    
  -1.87709999       0.00000000     -0.606999993       364.375549      -1.57722318    
  -1.87709999       0.00000000     -0.606999993       392.334534      -1.57647538    
  -1.36500001       0.00000000     -0.606999993       392.334534      -1.57647538    
  -1.33877206     -0.266297996     -0.606999993       392.334534      -1.57647538    
  -1.84103203     -0.366203994     -0.606999993       392.334534      -1.57647538    
  -1.87709999       0.00000000     -0.606999993       373.868347       1.56270278    
  -2.59967995       0.00000000     -0.517000020       373.868347       1.56270278    
  -2.54972792      0.507171988     -0.517000020       373.868347       1.56270278    
  -1.84103203      0.366203994     -0.606999993       373.868347       1.56270278    
  -1.84103203      0.366203994     -0.606999993       411.468750       1.56246996    
  -1.33877206      0.266297996     -0.606999993       411.468750       1.56246996    
  -1.36500001       0.00000000     -0.606999993       411.468750       1.56246996    
  -1.87709999       0.00000000     -0.606999993       411.468750       1.56246996    
  -1.84103203      0.366203994     -0.606999993       1099.14563       1.56318772    
  -2.54972792      0.507171988     -0.517000020       1099.14563       1.56318772    
  -2.40179110      0.994853973     -0.517000020       1099.14563       1.56318772    
  -1.73421395      0.718334973     -0.606999993       1099.14563       1.56318772    
  -1.73421395      0.718334973     -0.606999993       1198.98645       1.56337011    
  -1.26109600      0.522363007     -0.606999993       1198.98645       1.56337011    
  -1.33877206      0.266297996     -0.606999993       1198.98645       1.56337011    
  -1.84103203      0.366203994     -0.606999993       1198.98645       1.56337011    
  -1.73421395      0.718334973     -0.606999993       1782.94788       1.56323397    
  -2.40179110      0.994853973     -0.517000020       1782.94788       1.56323397    
  -2.16155505       1.44430494     -0.517000020       1782.94788       1.56323397    
  -1.56075203       1.04286098     -0.606999993       1782.94788       1.56323397    
  -1.56075203       1.04286098     -0.606999993       1939.10815       1.56358695    
  -1.13495600      0.758352995     -0.606999993       1939.10815       1.56358695    
  -1.26109600      0.522363007     -0.606999993       1939.10815       1.56358695    
  -1.73421395      0.718334973     -0.606999993       1939.10815       1.56358695    
  -1.56075203       1.04286098     -0.606999993       2393.21338       1.56326139    
  -2.16155505       1.44430494     -0.517000020       2393.21338       1.56326139    
  -1.83825099       1.83825099     -0.517000020       2393.21338       1.56326139    
  -1.32730997       1.32730997     -0.606999993       2393.21338       1.56326139    
  -1.32730997       1.32730997     -0.606999993       2601.93018       1.56374264    
 -0.965201020      0.965201020     -0.606999993       2601.93018       1.56374264    
  -1.13495600      0.758352995     -0.606999993       2601.93018       1.56374264    
  -1.56075203       1.04286098     -0.606999993       2601.93018       1.56374264    
  -1.32730997       1.32730997     -0.606999993       2906.70630       1.56332672    
  -1.83825099       1.83825099     -0.517000020       2906.70630       1.56332672    
  -1.44430494       2.16155505     -0.517000020       2906.70630       1.56332672    
  -1.04286098       1.56075203     -0.606999993       2906.70630       1.56332672    
  -1.04286098       1.56075203     -0.606999993       3163.06616       1.56390297    
 -0.758352995       1.13495600     -0.606999993       3163.06616       1.56390297    
 -0.965201020      0.965201020     -0.606999993       3163.06616       1.56390297    
  -1.32730997       1.32730997     -0.606999993       3163.06616       1.56390297    
  -1.04286098       1.56075203     -0.606999993       3311.93018       1.56343579    
  -1.44430494       2.16155505     -0.517000020       3311.93018       1.56343579    
 -0.994853973       2.40179110     -0.517000020       3311.93018       1.56343579    
 -0.718334973       1.73421395     -0.606999993       3311.93018       1.56343579    
 -0.718334973       1.73421395     -0.606999993       3604.63745       1.56408548    
 -0.522363007       1.26109600     -0.606999993       3604.63745       1.56408548    
 -0.758352995       1.13495600     -0.606999993       3604.63745       1.56408548    
  -1.04286098       1.56075203     -0.606999993       3604.63745       1.56408548    
 -0.718334973       1.73421395     -0.606999993       3599.06323       1.56355453    
 -0.994853973       2.40179110     -0.517000020       3599.06323       1.56355453    
 -0.507171988       2.54972792     -0.517000020       3599.06323       1.56355453    
 -0.366203994       1.84103203     -0.606999993       3599.06323       1.56355453    
 -0.366203994       1.84103203     -0.606999993       3911.89746       1.56428957    
 -0.266297996       1.33877206     -0.606999993       3911.89746       1.56428957    
 -0.522363007       1.26109600     -0.606999993       3911.89746       1.56428957    
 -0.718334973       1.73421395     -0.606999993       3911.89746       1.56428957    
 -0.366203994       1.84103203     -0.606999993       3751.19775       1.56366014    
 -0.507171988       2.54972792     -0.517000020       3751.19775       1.56366014    
   0.00000000       2.59967995     -0.517000020       3751.19775       1.56366014    
   0.00000000       1.87709999     -0.606999993       3751.19775       1.56366014    
   0.00000000       1.87709999     -0.606999993       4070.39526       1.56448734    
   0.00000000       1.36500001     -0.606999993       4070.39526       1.56448734    
 -0.266297996       1.33877206     -0.606999993       4070.39526       1.56448734    
 -0.366203994       1.84103203     -0.606999993       4070.39526       1.56448734    
   0.00000000       1.87709999     -0.606999993       3750.88354       1.56375921    
   0.00000000       2.59967995     -0.517000020       3750.88354       1.56375921    
  0.507171988       2.54972792     -0.517000020       3750.88354       1.56375921    
  0.366203994       1.84103203     -0.606999993       3750.88354       1.56375921    
  0.366203994       1.84103203     -0.606999993       4069.56348       1.56467068    
  0.266297996       1.33877206     -0.606999993       4069.56348       1.56467068    
   0.00000000       1.36500001     -0.606999993       4069.56348       1.56467068    
   0.00000000       1.87709999     -0.606999993       4069.56348       1.56467068    
  0.366203994       1.84103203     -0.606999993       3598.15747       1.56384754    
  0.507171988       2.54972792     -0.517000020       3598.15747       1.56384754    
  0.994853973       2.40179110     -0.517000020       3598.15747       1.56384754    
  0.718334973       1.73421395     -0.606999993       3598.15747       1.56384754    
  0.718334973       1.73421395     -0.606999993       3909.51733       1.56483257    
  0.522363007       1.26109600     -0.606999993       3909.51733       1.56483257    
  0.266297996       1.33877206     -0.606999993       3909.51733       1.56483257    
  0.366203994       1.84103203     -0.606999993       3909.51733       1.56483257    
  0.718334973       1.73421395     -0.606999993       3310.76880       1.56394219    
  0.994853973       2.40179110     -0.517000020       3310.76880       1.56394219    
   1.44430494       2.16155505     -0.517000020       3310.76880       1.56394219    
   1.04286098       1.56075203     -0.606999993       3310.76880       1.56394219    
   1.04286098       1.56075203     -0.606999993       3601.33301       1.56498051    
  0.758352995       1.13495600     -0.606999993       3601.33301       1.56498051    
  0.522363007       1.26109600     -0.606999993       3601.33301       1.56498051    
  0.718334973       1.73421395     -0.606999993       3601.33301       1.56498051    
   1.04286098       1.56075203     -0.606999993       2905.65820       1.56405461    
   1.44430494       2.16155505     -0.517000020       2905.65820       1.56405461    
   1.83825099       1.83825099     -0.517000020       2905.65820       1.56405461    
   1.32730997       1.32730997     -0.606999993       2905.65820       1.56405461    
   1.32730997       1.32730997     -0.606999993       3159.45093       1.56511533    
  0.965201020      0.965201020     -0.606999993       3159.45093       1.56511533    
  0.758352995       1.13495600     -0.606999993       3159.45093       1.56511533    
   1.04286098       1.56075203     -0.606999993       3159.45093       1.56511533    
   1.32730997       1.32730997     -0.606999993       2392.51953       1.56418657    
   1.83825099       1.83825099     -0.517000020       2392.51953       1.56418657    
   2.16155505       1.44430494     -0.517000020       2392.51953       1.56418657    
   1.56075203       1.04286098     -0.606999993       2392.51953       1.56418657    
   1.56075203       1.04286098     -0.606999993       2598.62207       1.56522727    
   1.13495600      0.758352995     -0.606999993       2598.62207       1.56522727    
  0.965201020      0.965201020     -0.606999993       2598.62207       1.56522727    
   1.32730997       1.32730997     -0.606999993       2598.62207       1.56522727    
   1.56075203       1.04286098     -0.606999993       1782.67310       1.56431270    
   2.16155505       1.44430494     -0.517000020       1782.67310       1.56431270    
   2.40179110      0.994853973     -0.517000020       1782.67310       1.56431270    
   1.73421395      0.718334973     -0.606999993       1782.67310       1.56431270    
   1.73421395      0.718334973     -0.606999993       1936.10779       1.56530106    
   1.26109600      0.522363007     -0.606999993       1936.10779       1.56530106    
   1.13495600      0.758352995     -0.606999993       1936.10779       1.56530106    
   1.56075203       1.04286098     -0.606999993       1936.10779       1.56530106    
   1.73421395      0.718334973     -0.606999993       1099.31445       1.56437755    
   2.40179110      0.994853973     -0.517000020       1099.31445       1.56437755    
   2.54972792      0.507171988     -0.517000020       1099.31445       1.56437755    
   1.84103203      0.366203994     -0.606999993       1099.31445       1.56437755    
   1.84103203      0.366203994     -0.606999993       1196.62305       1.56528199    
   1.33877206      0.266297996     -0.606999993       1196.62305       1.56528199    
   1.26109600      0.522363007     -0.606999993       1196.62305       1.56528199    
   1.73421395      0.718334973     -0.606999993       1196.62305       1.56528199    
   1.84103203      0.366203994     -0.606999993       374.679047       1.56422818    
   2.54972792      0.507171988     -0.517000020       374.679047       1.56422818    
   2.59967995       0.00000000     -0.517000020       374.679047       1.56422818    
   1.87709999       0.00000000     -0.606999993       374.679047       1.56422818    
   1.87709999       0.00000000     -0.606999993       410.310883       1.56482518    
   1.36500001       0.00000000     -0.606999993       410.310883       1.56482518    
   1.33877206      0.266297996     -0.606999993       410.310883       1.56482518    
   1.84103203      0.366203994     -0.606999993       410.310883       1.56482518    
   1.87709999       0.00000000     -0.606999993       362.806030      -1.57693160    
   2.59967995       0.00000000     -0.517000020       362.806030      -1.57693160    
   2.54972792     -0.507171988     -0.517000020       362.806030      -1.57693160    
   1.84103203     -0.366203994     -0.606999993       362.806030      -1.57693160    
   1.84103203     -0.366203994     -0.606999993       391.973206      -1.57538593    
   1.33877206     -0.266297996     -0.606999993       391.973206      -1.57538593    
   1.36500001       0.00000000     -0.606999993       391.973206      -1.57538593    
   1.87709999       0.00000000     -0.606999993       391.973206      -1.57538593    
   1.84103203     -0.366203994     -0.606999993       1088.17896      -1.57726264    
   2.54972792     -0.507171988     -0.517000020       1088.17896      -1.57726264    
   2.40179110     -0.994853973     -0.517000020       1088.17896      -1.57726264    
   1.73421395     -0.718334973     -0.606999993       1088.17896      -1.57726264    
   1.73421395     -0.718334973     -0.606999993       1179.40491      -1.57600117    
   1.26109600     -0.522363007     -0.606999993       1179.40491      -1.57600117    
   1.33877206     -0.266297996     -0.606999993       1179.40491      -1.57600117    
   1.84103203     -0.366203994     -0.606999993       1179.40491      -1.57600117    
   1.73421395     -0.718334973     -0.606999993       1771.37109      -1.57747257    
   2.40179110     -0.994853973     -0.517000020       1771.37109      -1.57747257    
   2.16155505      -1.44430494     -0.517000020       1771.37109      -1.57747257    
   1.56075203      -1.04286098     -0.606999993       1771.37109      -1.57747257    
   1.56075203      -1.04286098     -0.606999993       1920.35828      -1.57624662    
   1.13495600     -0.758352995     -0.606999993       1920.35828      -1.57624662    
   1.26109600     -0.522363007     -0.606999993       1920.35828      -1.57624662    