 VARIABLES="X" "Y" "Z" "abs(p) (Pa)" "angle(p) (rad)"
ZONE N=   2709,E =    2358, F=FEPOINT, ET=QUADRILATERAL
   0.00000000      -5.48999977     -0.157000005       593.183350       1.59936190    
   0.00000000      -4.76741982     -0.246999994       593.183350       1.59936190    
  0.930077016      -4.67581606     -0.246999994       593.183350       1.59936190    
   1.07104599      -5.38451099     -0.157000005       593.183350       1.59936190    
  -1.07104599      -5.38451099     -0.157000005       593.093384       1.59909189    
 -0.930077016      -4.67581606     -0.246999994       593.093384       1.59909189    
   0.00000000      -4.76741982     -0.246999994       593.093384       1.59909189    
   0.00000000      -5.48999977     -0.157000005       593.093384       1.59909189    
  -2.10093188      -5.07209921     -0.157000005       596.868408       1.60251510    
  -1.82441294      -4.40452194     -0.246999994       596.868408       1.60251510    
 -0.930077016      -4.67581606     -0.246999994       596.868408       1.60251510    
  -1.07104599      -5.38451099     -0.157000005       596.868408       1.60251510    
  -3.05008101      -4.56476784     -0.157000005       593.696350       1.59936428    
  -2.64863706      -3.96396494     -0.246999994       593.696350       1.59936428    
  -1.82441294      -4.40452194     -0.246999994       593.696350       1.59936428    
  -2.10093188      -5.07209921     -0.157000005       593.696350       1.59936428    
  -3.88201594      -3.88201594     -0.157000005       592.302124       1.59933352    
  -3.37107491      -3.37107491     -0.246999994       592.302124       1.59933352    
  -2.64863706      -3.96396494     -0.246999994       592.302124       1.59933352    
  -3.05008101      -4.56476784     -0.157000005       592.302124       1.59933352    
  -4.56476784      -3.05008101     -0.157000005       597.891785       1.60188234    
  -3.96396494      -2.64863706     -0.246999994       597.891785       1.60188234    
  -3.37107491      -3.37107491     -0.246999994       597.891785       1.60188234    
  -3.88201594      -3.88201594     -0.157000005       597.891785       1.60188234    
  -5.07209921      -2.10093188     -0.157000005       593.336426       1.59893131    
  -4.40452194      -1.82441294     -0.246999994       593.336426       1.59893131    
  -3.96396494      -2.64863706     -0.246999994       593.336426       1.59893131    
  -4.56476784      -3.05008101     -0.157000005       593.336426       1.59893131    
  -5.38451099      -1.07104599     -0.157000005       592.649902       1.59911489    
  -4.67581606     -0.930077016     -0.246999994       592.649902       1.59911489    
  -4.40452194      -1.82441294     -0.246999994       592.649902       1.59911489    
  -5.07209921      -2.10093188     -0.157000005       592.649902       1.59911489    
  -5.48999977       0.00000000     -0.157000005       597.564636       1.60245860    
  -4.76741982       0.00000000     -0.246999994       597.564636       1.60245860    
  -4.67581606     -0.930077016     -0.246999994       597.564636       1.60245860    
  -5.38451099      -1.07104599     -0.157000005       597.564636       1.60245860    
  -5.38451099       1.07104599     -0.157000005       596.794861       1.60204411    
  -4.67581606      0.930077016     -0.246999994       596.794861       1.60204411    
  -4.76741982       0.00000000     -0.246999994       596.794861       1.60204411    
  -5.48999977       0.00000000     -0.157000005       596.794861       1.60204411    
  -5.07209921       2.10093188     -0.157000005       597.542603       1.60204363    
  -4.40452194       1.82441294     -0.246999994       597.542603       1.60204363    
  -4.67581606      0.930077016     -0.246999994       597.542603       1.60204363    
  -5.38451099       1.07104599     -0.157000005       597.542603       1.60204363    
  -4.56476784       3.05008101     -0.157000005       596.965515       1.60297108    
  -3.96396494       2.64863706     -0.246999994       596.965515       1.60297108    
  -4.40452194       1.82441294     -0.246999994       596.965515       1.60297108    
  -5.07209921       2.10093188     -0.157000005       596.965515       1.60297108    
  -3.88201594       3.88201594     -0.157000005       593.440552       1.59846342    
  -3.37107491       3.37107491     -0.246999994       593.440552       1.59846342    
  -3.96396494       2.64863706     -0.246999994       593.440552       1.59846342    
  -4.56476784       3.05008101     -0.157000005       593.440552       1.59846342    
  -3.05008101       4.56476784     -0.157000005       596.819519       1.60336137    
  -2.64863706       3.96396494     -0.246999994       596.819519       1.60336137    
  -3.37107491       3.37107491     -0.246999994       596.819519       1.60336137    
  -3.88201594       3.88201594     -0.157000005       596.819519       1.60336137    
  -2.10093188       5.07209921     -0.157000005       593.510315       1.59825099    
  -1.82441294       4.40452194     -0.246999994       593.510315       1.59825099    
  -2.64863706       3.96396494     -0.246999994       593.510315       1.59825099    
  -3.05008101       4.56476784     -0.157000005       593.510315       1.59825099    
  -1.07104599       5.38451099     -0.157000005       596.775574       1.60339499    
 -0.930077016       4.67581606     -0.246999994       596.775574       1.60339499    
  -1.82441294       4.40452194     -0.246999994       596.775574       1.60339499    
  -2.10093188       5.07209921     -0.157000005       596.775574       1.60339499    
   0.00000000       5.48999977     -0.157000005       593.504150       1.59844005    
   0.00000000       4.76741982     -0.246999994       593.504150       1.59844005    
 -0.930077016       4.67581606     -0.246999994       593.504150       1.59844005    
  -1.07104599       5.38451099     -0.157000005       593.504150       1.59844005    
   1.07104599       5.38451099     -0.157000005       596.760071       1.60288703    
  0.930077016       4.67581606     -0.246999994       596.760071       1.60288703    
   0.00000000       4.76741982     -0.246999994       596.760071       1.60288703    
   0.00000000       5.48999977     -0.157000005       596.760071       1.60288703    
   2.10093188       5.07209921     -0.157000005       593.593323       1.59927690    
   1.82441294       4.40452194     -0.246999994       593.593323       1.59927690    
  0.930077016       4.67581606     -0.246999994       593.593323       1.59927690    
   1.07104599       5.38451099     -0.157000005       593.593323       1.59927690    
   3.05008101       4.56476784     -0.157000005       592.780273       1.59903717    
   2.64863706       3.96396494     -0.246999994       592.780273       1.59903717    
   1.82441294       4.40452194     -0.246999994       592.780273       1.59903717    
   2.10093188       5.07209921     -0.157000005       592.780273       1.59903717    
   3.88201594       3.88201594     -0.157000005       597.273010       1.60265696    
   3.37107491       3.37107491     -0.246999994       597.273010       1.60265696    
   2.64863706       3.96396494     -0.246999994       597.273010       1.60265696    
   3.05008101       4.56476784     -0.157000005       597.273010       1.60265696    
   4.56476784       3.05008101     -0.157000005       596.540405       1.60042191    
   3.96396494       2.64863706     -0.246999994       596.540405       1.60042191    
   3.37107491       3.37107491     -0.246999994       596.540405       1.60042191    
   3.88201594       3.88201594     -0.157000005       596.540405       1.60042191    
   5.07209921       2.10093188     -0.157000005       597.035522       1.60246670    
   4.40452194       1.82441294     -0.246999994       597.035522       1.60246670    
   3.96396494       2.64863706     -0.246999994       597.035522       1.60246670    
   4.56476784       3.05008101     -0.157000005       597.035522       1.60246670    
   5.38451099       1.07104599     -0.157000005       593.304016       1.59909940    
   4.67581606      0.930077016     -0.246999994       593.304016       1.59909940    
   4.40452194       1.82441294     -0.246999994       593.304016       1.59909940    
   5.07209921       2.10093188     -0.157000005       593.304016       1.59909940    
   5.48999977       0.00000000     -0.157000005       592.993347       1.59947777    
   4.76741982       0.00000000     -0.246999994       592.993347       1.59947777    
   4.67581606      0.930077016     -0.246999994       592.993347       1.59947777    
   5.38451099       1.07104599     -0.157000005       592.993347       1.59947777    
   5.38451099      -1.07104599     -0.157000005       593.202881       1.59952581    
   4.67581606     -0.930077016     -0.246999994       593.202881       1.59952581    
   4.76741982       0.00000000     -0.246999994       593.202881       1.59952581    
   5.48999977       0.00000000     -0.157000005       593.202881       1.59952581    
   5.07209921      -2.10093188     -0.157000005       593.073303       1.59910929    
   4.40452194      -1.82441294     -0.246999994       593.073303       1.59910929    
   4.67581606     -0.930077016     -0.246999994       593.073303       1.59910929    
   5.38451099      -1.07104599     -0.157000005       593.073303       1.59910929    
   4.56476784      -3.05008101     -0.157000005       593.111084       1.59994471    
   3.96396494      -2.64863706     -0.246999994       593.111084       1.59994471    
   4.40452194      -1.82441294     -0.246999994       593.111084       1.59994471    
   5.07209921      -2.10093188     -0.157000005       593.111084       1.59994471    
   3.88201594      -3.88201594     -0.157000005       593.002319       1.59848833    
   3.37107491      -3.37107491     -0.246999994       593.002319       1.59848833    
   3.96396494      -2.64863706     -0.246999994       593.002319       1.59848833    
   4.56476784      -3.05008101     -0.157000005       593.002319       1.59848833    
   3.05008101      -4.56476784     -0.157000005       597.103149       1.60315037    
   2.64863706      -3.96396494     -0.246999994       597.103149       1.60315037    
   3.37107491      -3.37107491     -0.246999994       597.103149       1.60315037    
   3.88201594      -3.88201594     -0.157000005       597.103149       1.60315037    
   2.10093188      -5.07209921     -0.157000005       593.250305       1.59884179    
   1.82441294      -4.40452194     -0.246999994       593.250305       1.59884179    
   2.64863706      -3.96396494     -0.246999994       593.250305       1.59884179    
   3.05008101      -4.56476784     -0.157000005       593.250305       1.59884179    
   1.07104599      -5.38451099     -0.157000005       593.045349       1.59977078    
  0.930077016      -4.67581606     -0.246999994       593.045349       1.59977078    
   1.82441294      -4.40452194     -0.246999994       593.045349       1.59977078    
   2.10093188      -5.07209921     -0.157000005       593.045349       1.59977078    
   0.00000000      -1.87709999     -0.606999993       490.036530      -1.57464993    
   0.00000000      -1.36500001     -0.606999993       490.036530      -1.57464993    
  0.266297996      -1.33877206     -0.606999993       490.036530      -1.57464993    
  0.366203994      -1.84103203     -0.606999993       490.036530      -1.57464993    
   0.00000000      -1.87709999     -0.606999993       1607.15503      -1.56919777    
   0.00000000      -2.59967995     -0.517000020       1607.15503      -1.56919777    
 -0.507171988      -2.54972792     -0.517000020       1607.15503      -1.56919777    
 -0.366203994      -1.84103203     -0.606999993       1607.15503      -1.56919777    
 -0.366203994      -1.84103203     -0.606999993       488.401611      -1.57468879    
 -0.266297996      -1.33877206     -0.606999993       488.401611      -1.57468879    
   0.00000000      -1.36500001     -0.606999993       488.401611      -1.57468879    
   0.00000000      -1.87709999     -0.606999993       488.401611      -1.57468879    
 -0.366203994      -1.84103203     -0.606999993       1604.43994      -1.56921506    
 -0.507171988      -2.54972792     -0.517000020       1604.43994      -1.56921506    
 -0.994853973      -2.40179110     -0.517000020       1604.43994      -1.56921506    
 -0.718334973      -1.73421395     -0.606999993       1604.43994      -1.56921506    
 -0.718334973      -1.73421395     -0.606999993       485.072144      -1.57474291    
 -0.522363007      -1.26109600     -0.606999993       485.072144      -1.57474291    
 -0.266297996      -1.33877206     -0.606999993       485.072144      -1.57474291    
 -0.366203994      -1.84103203     -0.606999993       485.072144      -1.57474291    
 -0.718334973      -1.73421395     -0.606999993       1601.93396      -1.56922829    
 -0.994853973      -2.40179110     -0.517000020       1601.93396      -1.56922829    
  -1.44430494      -2.16155505     -0.517000020       1601.93396      -1.56922829    
  -1.04286098      -1.56075203     -0.606999993       1601.93396      -1.56922829    
  -1.04286098      -1.56075203     -0.606999993       481.810455      -1.57477927    
 -0.758352995      -1.13495600     -0.606999993       481.810455      -1.57477927    
 -0.522363007      -1.26109600     -0.606999993       481.810455      -1.57477927    
 -0.718334973      -1.73421395     -0.606999993       481.810455      -1.57477927    
  -1.04286098      -1.56075203     -0.606999993       1601.11292      -1.56922388    
  -1.44430494      -2.16155505     -0.517000020       1601.11292      -1.56922388    
  -1.83825099      -1.83825099     -0.517000020       1601.11292      -1.56922388    
  -1.32730997      -1.32730997     -0.606999993       1601.11292      -1.56922388    
  -1.32730997      -1.32730997     -0.606999993       480.410767      -1.57475674    
 -0.965201020     -0.965201020     -0.606999993       480.410767      -1.57475674    
 -0.758352995      -1.13495600     -0.606999993       480.410767      -1.57475674    
  -1.04286098      -1.56075203     -0.606999993       480.410767      -1.57475674    
  -1.32730997      -1.32730997     -0.606999993       1602.04639      -1.56920433    
  -1.83825099      -1.83825099     -0.517000020       1602.04639      -1.56920433    
  -2.16155505      -1.44430494     -0.517000020       1602.04639      -1.56920433    
  -1.56075203      -1.04286098     -0.606999993       1602.04639      -1.56920433    
  -1.56075203      -1.04286098     -0.606999993       481.311340      -1.57469511    
  -1.13495600     -0.758352995     -0.606999993       481.311340      -1.57469511    
 -0.965201020     -0.965201020     -0.606999993       481.311340      -1.57469511    
  -1.32730997      -1.32730997     -0.606999993       481.311340      -1.57469511    
  -1.56075203      -1.04286098     -0.606999993       1603.20886      -1.56918812    
  -2.16155505      -1.44430494     -0.517000020       1603.20886      -1.56918812    
  -2.40179110     -0.994853973     -0.517000020       1603.20886      -1.56918812    
  -1.73421395     -0.718334973     -0.606999993       1603.20886      -1.56918812    
  -1.73421395     -0.718334973     -0.606999993       483.401031      -1.57465279    
  -1.26109600     -0.522363007     -0.606999993       483.401031      -1.57465279    
  -1.13495600     -0.758352995     -0.606999993       483.401031      -1.57465279    
  -1.56075203      -1.04286098     -0.606999993       483.401031      -1.57465279    
  -1.73421395     -0.718334973     -0.606999993       1603.30273      -1.56919563    
  -2.40179110     -0.994853973     -0.517000020       1603.30273      -1.56919563    
  -2.54972792     -0.507171988     -0.517000020       1603.30273      -1.56919563    
  -1.84103203     -0.366203994     -0.606999993       1603.30273      -1.56919563    
  -1.84103203     -0.366203994     -0.606999993       485.398071      -1.57466924    
  -1.33877206     -0.266297996     -0.606999993       485.398071      -1.57466924    
  -1.26109600     -0.522363007     -0.606999993       485.398071      -1.57466924    
  -1.73421395     -0.718334973     -0.606999993       485.398071      -1.57466924    
  -1.84103203     -0.366203994     -0.606999993       1602.97156      -1.56921673    
  -2.54972792     -0.507171988     -0.517000020       1602.97156      -1.56921673    
  -2.59967995       0.00000000     -0.517000020       1602.97156      -1.56921673    
  -1.87709999       0.00000000     -0.606999993       1602.97156      -1.56921673    
  -1.87709999       0.00000000     -0.606999993       487.237091      -1.57469130    
  -1.36500001       0.00000000     -0.606999993       487.237091      -1.57469130    
  -1.33877206     -0.266297996     -0.606999993       487.237091      -1.57469130    
  -1.84103203     -0.366203994     -0.606999993       487.237091      -1.57469130    
  -1.87709999       0.00000000     -0.606999993       1603.68726      -1.56921983    
  -2.59967995       0.00000000     -0.517000020       1603.68726      -1.56921983    
  -2.54972792      0.507171988     -0.517000020       1603.68726      -1.56921983    
  -1.84103203      0.366203994     -0.606999993       1603.68726      -1.56921983    
  -1.84103203      0.366203994     -0.606999993       489.289124      -1.57465732    
  -1.33877206      0.266297996     -0.606999993       489.289124      -1.57465732    
  -1.36500001       0.00000000     -0.606999993       489.289124      -1.57465732    
  -1.87709999       0.00000000     -0.606999993       489.289124      -1.57465732    
  -1.84103203      0.366203994     -0.606999993       1605.46155      -1.56919372    
  -2.54972792      0.507171988     -0.517000020       1605.46155      -1.56919372    
  -2.40179110      0.994853973     -0.517000020       1605.46155      -1.56919372    
  -1.73421395      0.718334973     -0.606999993       1605.46155      -1.56919372    
  -1.73421395      0.718334973     -0.606999993       491.171600      -1.57456541    
  -1.26109600      0.522363007     -0.606999993       491.171600      -1.57456541    
  -1.33877206      0.266297996     -0.606999993       491.171600      -1.57456541    
  -1.84103203      0.366203994     -0.606999993       491.171600      -1.57456541    
  -1.73421395      0.718334973     -0.606999993       1606.54211      -1.56916749    
  -2.40179110      0.994853973     -0.517000020       1606.54211      -1.56916749    
  -2.16155505       1.44430494     -0.517000020       1606.54211      -1.56916749    
  -1.56075203       1.04286098     -0.606999993       1606.54211      -1.56916749    
  -1.56075203       1.04286098     -0.606999993       491.647522      -1.57449555    
  -1.13495600      0.758352995     -0.606999993       491.647522      -1.57449555    
  -1.26109600      0.522363007     -0.606999993       491.647522      -1.57449555    
  -1.73421395      0.718334973     -0.606999993       491.647522      -1.57449555    
  -1.56075203       1.04286098     -0.606999993       1605.36157      -1.56917334    
  -2.16155505       1.44430494     -0.517000020       1605.36157      -1.56917334    
  -1.83825099       1.83825099     -0.517000020       1605.36157      -1.56917334    
  -1.32730997       1.32730997     -0.606999993       1605.36157      -1.56917334    
  -1.32730997       1.32730997     -0.606999993       490.001434      -1.57451689    
 -0.965201020      0.965201020     -0.606999993       490.001434      -1.57451689    
  -1.13495600      0.758352995     -0.606999993       490.001434      -1.57451689    
  -1.56075203       1.04286098     -0.606999993       490.001434      -1.57451689    
  -1.32730997       1.32730997     -0.606999993       1602.92651      -1.56920493    
  -1.83825099       1.83825099     -0.517000020       1602.92651      -1.56920493    
  -1.44430494       2.16155505     -0.517000020       1602.92651      -1.56920493    
  -1.04286098       1.56075203     -0.606999993       1602.92651      -1.56920493    
  -1.04286098       1.56075203     -0.606999993       487.190247      -1.57460439    
 -0.758352995       1.13495600     -0.606999993       487.190247      -1.57460439    
 -0.965201020      0.965201020     -0.606999993       487.190247      -1.57460439    
  -1.32730997       1.32730997     -0.606999993       487.190247      -1.57460439    
  -1.04286098       1.56075203     -0.606999993       1601.48877      -1.56922376    
  -1.44430494       2.16155505     -0.517000020       1601.48877      -1.56922376    
 -0.994853973       2.40179110     -0.517000020       1601.48877      -1.56922376    
 -0.718334973       1.73421395     -0.606999993       1601.48877      -1.56922376    
 -0.718334973       1.73421395     -0.606999993       485.080048      -1.57468462    
 -0.522363007       1.26109600     -0.606999993       485.080048      -1.57468462    
 -0.758352995       1.13495600     -0.606999993       485.080048      -1.57468462    
  -1.04286098       1.56075203     -0.606999993       485.080048      -1.57468462    
 -0.718334973       1.73421395     -0.606999993       1602.00427      -1.56921363    
 -0.994853973       2.40179110     -0.517000020       1602.00427      -1.56921363    
 -0.507171988       2.54972792     -0.517000020       1602.00427      -1.56921363    
 -0.366203994       1.84103203     -0.606999993       1602.00427      -1.56921363    
 -0.366203994       1.84103203     -0.606999993       484.714294      -1.57469499    
 -0.266297996       1.33877206     -0.606999993       484.714294      -1.57469499    
 -0.522363007       1.26109600     -0.606999993       484.714294      -1.57469499    
 -0.718334973       1.73421395     -0.606999993       484.714294      -1.57469499    
 -0.366203994       1.84103203     -0.606999993       1603.53650      -1.56919122    
 -0.507171988       2.54972792     -0.517000020       1603.53650      -1.56919122    
   0.00000000       2.59967995     -0.517000020       1603.53650      -1.56919122    
   0.00000000       1.87709999     -0.606999993       1603.53650      -1.56919122    
   0.00000000       1.87709999     -0.606999993       485.622345      -1.57467139    
   0.00000000       1.36500001     -0.606999993       485.622345      -1.57467139    
 -0.266297996       1.33877206     -0.606999993       485.622345      -1.57467139    
 -0.366203994       1.84103203     -0.606999993       485.622345      -1.57467139    
   0.00000000       1.87709999     -0.606999993       1604.15637      -1.56918502    
   0.00000000       2.59967995     -0.517000020       1604.15637      -1.56918502    
  0.507171988       2.54972792     -0.517000020       1604.15637      -1.56918502    
  0.366203994       1.84103203     -0.606999993       1604.15637      -1.56918502    
  0.366203994       1.84103203     -0.606999993       486.610321      -1.57463884    
  0.266297996       1.33877206     -0.606999993       486.610321      -1.57463884    
   0.00000000       1.36500001     -0.606999993       486.610321      -1.57463884    
   0.00000000       1.87709999     -0.606999993       486.610321      -1.57463884    
  0.366203994       1.84103203     -0.606999993       1603.58435      -1.56920207    
  0.507171988       2.54972792     -0.517000020       1603.58435      -1.56920207    
  0.994853973       2.40179110     -0.517000020       1603.58435      -1.56920207    
  0.718334973       1.73421395     -0.606999993       1603.58435      -1.56920207    
  0.718334973       1.73421395     -0.606999993       487.195038      -1.57462609    
  0.522363007       1.26109600     -0.606999993       487.195038      -1.57462609    
  0.266297996       1.33877206     -0.606999993       487.195038      -1.57462609    
  0.366203994       1.84103203     -0.606999993       487.195038      -1.57462609    
  0.718334973       1.73421395     -0.606999993       1603.23633      -1.56921709    
  0.994853973       2.40179110     -0.517000020       1603.23633      -1.56921709    
   1.44430494       2.16155505     -0.517000020       1603.23633      -1.56921709    
   1.04286098       1.56075203     -0.606999993       1603.23633      -1.56921709    
   1.04286098       1.56075203     -0.606999993       487.733063      -1.57461858    
  0.758352995       1.13495600     -0.606999993       487.733063      -1.57461858    
  0.522363007       1.26109600     -0.606999993       487.733063      -1.57461858    
  0.718334973       1.73421395     -0.606999993       487.733063      -1.57461858    
   1.04286098       1.56075203     -0.606999993       1603.88940      -1.56921077    
   1.44430494       2.16155505     -0.517000020       1603.88940      -1.56921077    
   1.83825099       1.83825099     -0.517000020       1603.88940      -1.56921077    
   1.32730997       1.32730997     -0.606999993       1603.88940      -1.56921077    
   1.32730997       1.32730997     -0.606999993       488.492157      -1.57458007    
  0.965201020      0.965201020     -0.606999993       488.492157      -1.57458007    
  0.758352995       1.13495600     -0.606999993       488.492157      -1.57458007    
   1.04286098       1.56075203     -0.606999993       488.492157      -1.57458007    
   1.32730997       1.32730997     -0.606999993       1605.05505      -1.56919348    
   1.83825099       1.83825099     -0.517000020       1605.05505      -1.56919348    
   2.16155505       1.44430494     -0.517000020       1605.05505      -1.56919348    
   1.56075203       1.04286098     -0.606999993       1605.05505      -1.56919348    
   1.56075203       1.04286098     -0.606999993       488.937775      -1.57454705    
   1.13495600      0.758352995     -0.606999993       488.937775      -1.57454705    
  0.965201020      0.965201020     -0.606999993       488.937775      -1.57454705    
   1.32730997       1.32730997     -0.606999993       488.937775      -1.57454705    
   1.56075203       1.04286098     -0.606999993       1605.16919      -1.56919074    
   2.16155505       1.44430494     -0.517000020       1605.16919      -1.56919074    
   2.40179110      0.994853973     -0.517000020       1605.16919      -1.56919074    
   1.73421395      0.718334973     -0.606999993       1605.16919      -1.56919074    
   1.73421395      0.718334973     -0.606999993       488.895782      -1.57457805    
   1.26109600      0.522363007     -0.606999993       488.895782      -1.57457805    
   1.13495600      0.758352995     -0.606999993       488.895782      -1.57457805    
   1.56075203       1.04286098     -0.606999993       488.895782      -1.57457805    
   1.73421395      0.718334973     -0.606999993       1603.63367      -1.56921971    
   2.40179110      0.994853973     -0.517000020       1603.63367      -1.56921971    
   2.54972792      0.507171988     -0.517000020       1603.63367      -1.56921971    
   1.84103203      0.366203994     -0.606999993       1603.63367      -1.56921971    
   1.84103203      0.366203994     -0.606999993       488.094116      -1.57468224    
   1.33877206      0.266297996     -0.606999993       488.094116      -1.57468224    
   1.26109600      0.522363007     -0.606999993       488.094116      -1.57468224    
   1.73421395      0.718334973     -0.606999993       488.094116      -1.57468224    
   1.84103203      0.366203994     -0.606999993       1601.99414      -1.56925702    
   2.54972792      0.507171988     -0.517000020       1601.99414      -1.56925702    
   2.59967995       0.00000000     -0.517000020       1601.99414      -1.56925702    
   1.87709999       0.00000000     -0.606999993       1601.99414      -1.56925702    
   1.87709999       0.00000000     -0.606999993       486.780731      -1.57478833    
   1.36500001       0.00000000     -0.606999993       486.780731      -1.57478833    
   1.33877206      0.266297996     -0.606999993       486.780731      -1.57478833    
   1.84103203      0.366203994     -0.606999993       486.780731      -1.57478833    
   1.87709999       0.00000000     -0.606999993       1601.91541      -1.56926334    
   2.59967995       0.00000000     -0.517000020       1601.91541      -1.56926334    
   2.54972792     -0.507171988     -0.517000020       1601.91541      -1.56926334    
   1.84103203     -0.366203994     -0.606999993       1601.91541      -1.56926334    
   1.84103203     -0.366203994     -0.606999993       486.060120      -1.57481337    
   1.33877206     -0.266297996     -0.606999993       486.060120      -1.57481337    
   1.36500001       0.00000000     -0.606999993       486.060120      -1.57481337    
   1.87709999       0.00000000     -0.606999993       486.060120      -1.57481337    
   1.84103203     -0.366203994     -0.606999993       1603.30725      -1.56923831    
   2.54972792     -0.507171988     -0.517000020       1603.30725      -1.56923831    
   2.40179110     -0.994853973     -0.517000020       1603.30725      -1.56923831    
   1.73421395     -0.718334973     -0.606999993       1603.30725      -1.56923831    
   1.73421395     -0.718334973     -0.606999993       486.243713      -1.57474411    
   1.26109600     -0.522363007     -0.606999993       486.243713      -1.57474411    
   1.33877206     -0.266297996     -0.606999993       486.243713      -1.57474411    
   1.84103203     -0.366203994     -0.606999993       486.243713      -1.57474411    
   1.73421395     -0.718334973     -0.606999993       1604.51599      -1.56921124    
   2.40179110     -0.994853973     -0.517000020       1604.51599      -1.56921124    
   2.16155505      -1.44430494     -0.517000020       1604.51599      -1.56921124    
   1.56075203      -1.04286098     -0.606999993       1604.51599      -1.56921124    
   1.56075203      -1.04286098     -0.606999993       486.593506      -1.57465041    
   1.13495600     -0.758352995     -0.606999993       486.593506      -1.57465041    
   1.26109600     -0.522363007     -0.606999993       486.593506      -1.57465041    