 VARIABLES="X" "Y" "Z" "abs(p) (Pa)" "angle(p) (rad)"
ZONE N=   2709,E =    2358, F=FEPOINT, ET=QUADRILATERAL
   0.00000000      -5.48999977     -0.157000005       72.4320297      -2.95705247    
   0.00000000      -4.76741982     -0.246999994       72.4320297      -2.95705247    
  0.930077016      -4.67581606     -0.246999994       72.4320297      -2.95705247    
   1.07104599      -5.38451099     -0.157000005       72.4320297      -2.95705247    
  -1.07104599      -5.38451099     -0.157000005       72.0223618      -2.94917154    
 -0.930077016      -4.67581606     -0.246999994       72.0223618      -2.94917154    
   0.00000000      -4.76741982     -0.246999994       72.0223618      -2.94917154    
   0.00000000      -5.48999977     -0.157000005       72.0223618      -2.94917154    
  -2.10093188      -5.07209921     -0.157000005       62.4049683      -2.88929296    
  -1.82441294      -4.40452194     -0.246999994       62.4049683      -2.88929296    
 -0.930077016      -4.67581606     -0.246999994       62.4049683      -2.88929296    
  -1.07104599      -5.38451099     -0.157000005       62.4049683      -2.88929296    
  -3.05008101      -4.56476784     -0.157000005       63.2243080      -2.93963933    
  -2.64863706      -3.96396494     -0.246999994       63.2243080      -2.93963933    
  -1.82441294      -4.40452194     -0.246999994       63.2243080      -2.93963933    
  -2.10093188      -5.07209921     -0.157000005       63.2243080      -2.93963933    
  -3.88201594      -3.88201594     -0.157000005       56.1740456      -2.94632196    
  -3.37107491      -3.37107491     -0.246999994       56.1740456      -2.94632196    
  -2.64863706      -3.96396494     -0.246999994       56.1740456      -2.94632196    
  -3.05008101      -4.56476784     -0.157000005       56.1740456      -2.94632196    
  -4.56476784      -3.05008101     -0.157000005       42.3889389      -2.90668035    
  -3.96396494      -2.64863706     -0.246999994       42.3889389      -2.90668035    
  -3.37107491      -3.37107491     -0.246999994       42.3889389      -2.90668035    
  -3.88201594      -3.88201594     -0.157000005       42.3889389      -2.90668035    
  -5.07209921      -2.10093188     -0.157000005       34.4486389      -2.95833778    
  -4.40452194      -1.82441294     -0.246999994       34.4486389      -2.95833778    
  -3.96396494      -2.64863706     -0.246999994       34.4486389      -2.95833778    
  -4.56476784      -3.05008101     -0.157000005       34.4486389      -2.95833778    
  -5.38451099      -1.07104599     -0.157000005       21.4543552      -2.91994500    
  -4.67581606     -0.930077016     -0.246999994       21.4543552      -2.91994500    
  -4.40452194      -1.82441294     -0.246999994       21.4543552      -2.91994500    
  -5.07209921      -2.10093188     -0.157000005       21.4543552      -2.91994500    
  -5.48999977       0.00000000     -0.157000005       6.83021927      -2.76936173    
  -4.76741982       0.00000000     -0.246999994       6.83021927      -2.76936173    
  -4.67581606     -0.930077016     -0.246999994       6.83021927      -2.76936173    
  -5.38451099      -1.07104599     -0.157000005       6.83021927      -2.76936173    
  -5.38451099       1.07104599     -0.157000005       5.85875416      0.191628873    
  -4.67581606      0.930077016     -0.246999994       5.85875416      0.191628873    
  -4.76741982       0.00000000     -0.246999994       5.85875416      0.191628873    
  -5.48999977       0.00000000     -0.157000005       5.85875416      0.191628873    
  -5.07209921       2.10093188     -0.157000005       18.0708904      0.233922437    
  -4.40452194       1.82441294     -0.246999994       18.0708904      0.233922437    
  -4.67581606      0.930077016     -0.246999994       18.0708904      0.233922437    
  -5.38451099       1.07104599     -0.157000005       18.0708904      0.233922437    
  -4.56476784       3.05008101     -0.157000005       29.9259529      0.233463287    
  -3.96396494       2.64863706     -0.246999994       29.9259529      0.233463287    
  -4.40452194       1.82441294     -0.246999994       29.9259529      0.233463287    
  -5.07209921       2.10093188     -0.157000005       29.9259529      0.233463287    
  -3.88201594       3.88201594     -0.157000005       45.1113281      0.194603562    
  -3.37107491       3.37107491     -0.246999994       45.1113281      0.194603562    
  -3.96396494       2.64863706     -0.246999994       45.1113281      0.194603562    
  -4.56476784       3.05008101     -0.157000005       45.1113281      0.194603562    
  -3.05008101       4.56476784     -0.157000005       49.9995384      0.246589765    
  -2.64863706       3.96396494     -0.246999994       49.9995384      0.246589765    
  -3.37107491       3.37107491     -0.246999994       49.9995384      0.246589765    
  -3.88201594       3.88201594     -0.157000005       49.9995384      0.246589765    
  -2.10093188       5.07209921     -0.157000005       62.9068069      0.193008587    
  -1.82441294       4.40452194     -0.246999994       62.9068069      0.193008587    
  -2.64863706       3.96396494     -0.246999994       62.9068069      0.193008587    
  -3.05008101       4.56476784     -0.157000005       62.9068069      0.193008587    
  -1.07104599       5.38451099     -0.157000005       61.8407364      0.248483196    
 -0.930077016       4.67581606     -0.246999994       61.8407364      0.248483196    
  -1.82441294       4.40452194     -0.246999994       61.8407364      0.248483196    
  -2.10093188       5.07209921     -0.157000005       61.8407364      0.248483196    
   0.00000000       5.48999977     -0.157000005       71.0492859      0.204773530    
   0.00000000       4.76741982     -0.246999994       71.0492859      0.204773530    
 -0.930077016       4.67581606     -0.246999994       71.0492859      0.204773530    
  -1.07104599       5.38451099     -0.157000005       71.0492859      0.204773530    
   1.07104599       5.38451099     -0.157000005       64.9090271      0.251422465    
  0.930077016       4.67581606     -0.246999994       64.9090271      0.251422465    
   0.00000000       4.76741982     -0.246999994       64.9090271      0.251422465    
   0.00000000       5.48999977     -0.157000005       64.9090271      0.251422465    
   2.10093188       5.07209921     -0.157000005       68.3742905      0.194493651    
   1.82441294       4.40452194     -0.246999994       68.3742905      0.194493651    
  0.930077016       4.67581606     -0.246999994       68.3742905      0.194493651    
   1.07104599       5.38451099     -0.157000005       68.3742905      0.194493651    
   3.05008101       4.56476784     -0.157000005       63.5873680      0.199943885    
   2.64863706       3.96396494     -0.246999994       63.5873680      0.199943885    
   1.82441294       4.40452194     -0.246999994       63.5873680      0.199943885    
   2.10093188       5.07209921     -0.157000005       63.5873680      0.199943885    
   3.88201594       3.88201594     -0.157000005       50.9241638      0.260195881    
   3.37107491       3.37107491     -0.246999994       50.9241638      0.260195881    
   2.64863706       3.96396494     -0.246999994       50.9241638      0.260195881    
   3.05008101       4.56476784     -0.157000005       50.9241638      0.260195881    
   4.56476784       3.05008101     -0.157000005       44.2687988      0.215151608    
   3.96396494       2.64863706     -0.246999994       44.2687988      0.215151608    
   3.37107491       3.37107491     -0.246999994       44.2687988      0.215151608    
   3.88201594       3.88201594     -0.157000005       44.2687988      0.215151608    
   5.07209921       2.10093188     -0.157000005       31.2133846      0.245413795    
   4.40452194       1.82441294     -0.246999994       31.2133846      0.245413795    
   3.96396494       2.64863706     -0.246999994       31.2133846      0.245413795    
   4.56476784       3.05008101     -0.157000005       31.2133846      0.245413795    
   5.38451099       1.07104599     -0.157000005       21.3235207      0.232096314    
   4.67581606      0.930077016     -0.246999994       21.3235207      0.232096314    
   4.40452194       1.82441294     -0.246999994       21.3235207      0.232096314    
   5.07209921       2.10093188     -0.157000005       21.3235207      0.232096314    
   5.48999977       0.00000000     -0.157000005       7.04734755      0.302211404    
   4.76741982       0.00000000     -0.246999994       7.04734755      0.302211404    
   4.67581606      0.930077016     -0.246999994       7.04734755      0.302211404    
   5.38451099       1.07104599     -0.157000005       7.04734755      0.302211404    
   5.38451099      -1.07104599     -0.157000005       7.19427109      -2.96809530    
   4.67581606     -0.930077016     -0.246999994       7.19427109      -2.96809530    
   4.76741982       0.00000000     -0.246999994       7.19427109      -2.96809530    
   5.48999977       0.00000000     -0.157000005       7.19427109      -2.96809530    
   5.07209921      -2.10093188     -0.157000005       20.8713970      -2.97217178    
   4.40452194      -1.82441294     -0.246999994       20.8713970      -2.97217178    
   4.67581606     -0.930077016     -0.246999994       20.8713970      -2.97217178    
   5.38451099      -1.07104599     -0.157000005       20.8713970      -2.97217178    
   4.56476784      -3.05008101     -0.157000005       34.1589890      -2.97830963    
   3.96396494      -2.64863706     -0.246999994       34.1589890      -2.97830963    
   4.40452194      -1.82441294     -0.246999994       34.1589890      -2.97830963    
   5.07209921      -2.10093188     -0.157000005       34.1589890      -2.97830963    
   3.88201594      -3.88201594     -0.157000005       45.8187027      -2.95758796    
   3.37107491      -3.37107491     -0.246999994       45.8187027      -2.95758796    
   3.96396494      -2.64863706     -0.246999994       45.8187027      -2.95758796    
   4.56476784      -3.05008101     -0.157000005       45.8187027      -2.95758796    
   3.05008101      -4.56476784     -0.157000005       50.0842705      -2.89466000    
   2.64863706      -3.96396494     -0.246999994       50.0842705      -2.89466000    
   3.37107491      -3.37107491     -0.246999994       50.0842705      -2.89466000    
   3.88201594      -3.88201594     -0.157000005       50.0842705      -2.89466000    
   2.10093188      -5.07209921     -0.157000005       63.3249969      -2.95137239    
   1.82441294      -4.40452194     -0.246999994       63.3249969      -2.95137239    
   2.64863706      -3.96396494     -0.246999994       63.3249969      -2.95137239    
   3.05008101      -4.56476784     -0.157000005       63.3249969      -2.95137239    
   1.07104599      -5.38451099     -0.157000005       69.6075363      -2.96118188    
  0.930077016      -4.67581606     -0.246999994       69.6075363      -2.96118188    
   1.82441294      -4.40452194     -0.246999994       69.6075363      -2.96118188    
   2.10093188      -5.07209921     -0.157000005       69.6075363      -2.96118188    
   0.00000000      -1.87709999     -0.606999993       538.886169      -1.57857811    
   0.00000000      -1.36500001     -0.606999993       538.886169      -1.57857811    
  0.266297996      -1.33877206     -0.606999993       538.886169      -1.57857811    
  0.366203994      -1.84103203     -0.606999993       538.886169      -1.57857811    
   0.00000000      -1.87709999     -0.606999993       158.572891      -1.58779562    
   0.00000000      -2.59967995     -0.517000020       158.572891      -1.58779562    
 -0.507171988      -2.54972792     -0.517000020       158.572891      -1.58779562    
 -0.366203994      -1.84103203     -0.606999993       158.572891      -1.58779562    
 -0.366203994      -1.84103203     -0.606999993       538.898621      -1.57858086    
 -0.266297996      -1.33877206     -0.606999993       538.898621      -1.57858086    
   0.00000000      -1.36500001     -0.606999993       538.898621      -1.57858086    
   0.00000000      -1.87709999     -0.606999993       538.898621      -1.57858086    
 -0.366203994      -1.84103203     -0.606999993       152.397507      -1.58782995    
 -0.507171988      -2.54972792     -0.517000020       152.397507      -1.58782995    
 -0.994853973      -2.40179110     -0.517000020       152.397507      -1.58782995    
 -0.718334973      -1.73421395     -0.606999993       152.397507      -1.58782995    
 -0.718334973      -1.73421395     -0.606999993       517.995117      -1.57864082    
 -0.522363007      -1.26109600     -0.606999993       517.995117      -1.57864082    
 -0.266297996      -1.33877206     -0.606999993       517.995117      -1.57864082    
 -0.366203994      -1.84103203     -0.606999993       517.995117      -1.57864082    
 -0.718334973      -1.73421395     -0.606999993       140.409164      -1.58798039    
 -0.994853973      -2.40179110     -0.517000020       140.409164      -1.58798039    
  -1.44430494      -2.16155505     -0.517000020       140.409164      -1.58798039    
  -1.04286098      -1.56075203     -0.606999993       140.409164      -1.58798039    
  -1.04286098      -1.56075203     -0.606999993       477.176910      -1.57868612    
 -0.758352995      -1.13495600     -0.606999993       477.176910      -1.57868612    
 -0.522363007      -1.26109600     -0.606999993       477.176910      -1.57868612    
 -0.718334973      -1.73421395     -0.606999993       477.176910      -1.57868612    
  -1.04286098      -1.56075203     -0.606999993       123.275635      -1.58815658    
  -1.44430494      -2.16155505     -0.517000020       123.275635      -1.58815658    
  -1.83825099      -1.83825099     -0.517000020       123.275635      -1.58815658    
  -1.32730997      -1.32730997     -0.606999993       123.275635      -1.58815658    
  -1.32730997      -1.32730997     -0.606999993       418.130859      -1.57875347    
 -0.965201020     -0.965201020     -0.606999993       418.130859      -1.57875347    
 -0.758352995      -1.13495600     -0.606999993       418.130859      -1.57875347    
  -1.04286098      -1.56075203     -0.606999993       418.130859      -1.57875347    
  -1.32730997      -1.32730997     -0.606999993       101.578590      -1.58821762    
  -1.83825099      -1.83825099     -0.517000020       101.578590      -1.58821762    
  -2.16155505      -1.44430494     -0.517000020       101.578590      -1.58821762    
  -1.56075203      -1.04286098     -0.606999993       101.578590      -1.58821762    
  -1.56075203      -1.04286098     -0.606999993       343.144165      -1.57880497    
  -1.13495600     -0.758352995     -0.606999993       343.144165      -1.57880497    
 -0.965201020     -0.965201020     -0.606999993       343.144165      -1.57880497    
  -1.32730997      -1.32730997     -0.606999993       343.144165      -1.57880497    
  -1.56075203      -1.04286098     -0.606999993       75.9182281      -1.58800554    
  -2.16155505      -1.44430494     -0.517000020       75.9182281      -1.58800554    
  -2.40179110     -0.994853973     -0.517000020       75.9182281      -1.58800554    
  -1.73421395     -0.718334973     -0.606999993       75.9182281      -1.58800554    
  -1.73421395     -0.718334973     -0.606999993       255.036774      -1.57883883    
  -1.26109600     -0.522363007     -0.606999993       255.036774      -1.57883883    
  -1.13495600     -0.758352995     -0.606999993       255.036774      -1.57883883    
  -1.56075203      -1.04286098     -0.606999993       255.036774      -1.57883883    
  -1.73421395     -0.718334973     -0.606999993       47.1665878      -1.58758855    
  -2.40179110     -0.994853973     -0.517000020       47.1665878      -1.58758855    
  -2.54972792     -0.507171988     -0.517000020       47.1665878      -1.58758855    
  -1.84103203     -0.366203994     -0.606999993       47.1665878      -1.58758855    
  -1.84103203     -0.366203994     -0.606999993       157.005692      -1.57893932    
  -1.33877206     -0.266297996     -0.606999993       157.005692      -1.57893932    
  -1.26109600     -0.522363007     -0.606999993       157.005692      -1.57893932    
  -1.73421395     -0.718334973     -0.606999993       157.005692      -1.57893932    
  -1.84103203     -0.366203994     -0.606999993       16.4751797      -1.58757675    
  -2.54972792     -0.507171988     -0.517000020       16.4751797      -1.58757675    
  -2.59967995       0.00000000     -0.517000020       16.4751797      -1.58757675    
  -1.87709999       0.00000000     -0.606999993       16.4751797      -1.58757675    
  -1.87709999       0.00000000     -0.606999993       52.7197685      -1.57978845    
  -1.36500001       0.00000000     -0.606999993       52.7197685      -1.57978845    
  -1.33877206     -0.266297996     -0.606999993       52.7197685      -1.57978845    
  -1.84103203     -0.366203994     -0.606999993       52.7197685      -1.57978845    
  -1.87709999       0.00000000     -0.606999993       14.8641968       1.55546534    
  -2.59967995       0.00000000     -0.517000020       14.8641968       1.55546534    
  -2.54972792      0.507171988     -0.517000020       14.8641968       1.55546534    
  -1.84103203      0.366203994     -0.606999993       14.8641968       1.55546534    
  -1.84103203      0.366203994     -0.606999993       53.6678467       1.56452835    
  -1.33877206      0.266297996     -0.606999993       53.6678467       1.56452835    
  -1.36500001       0.00000000     -0.606999993       53.6678467       1.56452835    
  -1.87709999       0.00000000     -0.606999993       53.6678467       1.56452835    
  -1.84103203      0.366203994     -0.606999993       45.6301727       1.55477250    
  -2.54972792      0.507171988     -0.517000020       45.6301727       1.55477250    
  -2.40179110      0.994853973     -0.517000020       45.6301727       1.55477250    
  -1.73421395      0.718334973     -0.606999993       45.6301727       1.55477250    
  -1.73421395      0.718334973     -0.606999993       157.969101       1.56362426    
  -1.26109600      0.522363007     -0.606999993       157.969101       1.56362426    
  -1.33877206      0.266297996     -0.606999993       157.969101       1.56362426    
  -1.84103203      0.366203994     -0.606999993       157.969101       1.56362426    
  -1.73421395      0.718334973     -0.606999993       74.5437012       1.55424237    
  -2.40179110      0.994853973     -0.517000020       74.5437012       1.55424237    
  -2.16155505       1.44430494     -0.517000020       74.5437012       1.55424237    
  -1.56075203       1.04286098     -0.606999993       74.5437012       1.55424237    
  -1.56075203       1.04286098     -0.606999993       256.014526       1.56339061    
  -1.13495600      0.758352995     -0.606999993       256.014526       1.56339061    
  -1.26109600      0.522363007     -0.606999993       256.014526       1.56339061    
  -1.73421395      0.718334973     -0.606999993       256.014526       1.56339061    
  -1.56075203       1.04286098     -0.606999993       100.370636       1.55391991    
  -2.16155505       1.44430494     -0.517000020       100.370636       1.55391991    
  -1.83825099       1.83825099     -0.517000020       100.370636       1.55391991    
  -1.32730997       1.32730997     -0.606999993       100.370636       1.55391991    
  -1.32730997       1.32730997     -0.606999993       343.962860       1.56327975    
 -0.965201020      0.965201020     -0.606999993       343.962860       1.56327975    
  -1.13495600      0.758352995     -0.606999993       343.962860       1.56327975    
  -1.56075203       1.04286098     -0.606999993       343.962860       1.56327975    
  -1.32730997       1.32730997     -0.606999993       122.180527       1.55385947    
  -1.83825099       1.83825099     -0.517000020       122.180527       1.55385947    
  -1.44430494       2.16155505     -0.517000020       122.180527       1.55385947    
  -1.04286098       1.56075203     -0.606999993       122.180527       1.55385947    
  -1.04286098       1.56075203     -0.606999993       418.476654       1.56323385    
 -0.758352995       1.13495600     -0.606999993       418.476654       1.56323385    
 -0.965201020      0.965201020     -0.606999993       418.476654       1.56323385    
  -1.32730997       1.32730997     -0.606999993       418.476654       1.56323385    
  -1.04286098       1.56075203     -0.606999993       139.372879       1.55397916    
  -1.44430494       2.16155505     -0.517000020       139.372879       1.55397916    
 -0.994853973       2.40179110     -0.517000020       139.372879       1.55397916    
 -0.718334973       1.73421395     -0.606999993       139.372879       1.55397916    
 -0.718334973       1.73421395     -0.606999993       476.848328       1.56323588    
 -0.522363007       1.26109600     -0.606999993       476.848328       1.56323588    
 -0.758352995       1.13495600     -0.606999993       476.848328       1.56323588    
  -1.04286098       1.56075203     -0.606999993       476.848328       1.56323588    
 -0.718334973       1.73421395     -0.606999993       151.422043       1.55410540    
 -0.994853973       2.40179110     -0.517000020       151.422043       1.55410540    
 -0.507171988       2.54972792     -0.517000020       151.422043       1.55410540    
 -0.366203994       1.84103203     -0.606999993       151.422043       1.55410540    
 -0.366203994       1.84103203     -0.606999993       516.942383       1.56325722    
 -0.266297996       1.33877206     -0.606999993       516.942383       1.56325722    
 -0.522363007       1.26109600     -0.606999993       516.942383       1.56325722    
 -0.718334973       1.73421395     -0.606999993       516.942383       1.56325722    
 -0.366203994       1.84103203     -0.606999993       157.713760       1.55416191    
 -0.507171988       2.54972792     -0.517000020       157.713760       1.55416191    
   0.00000000       2.59967995     -0.517000020       157.713760       1.55416191    
   0.00000000       1.87709999     -0.606999993       157.713760       1.55416191    
   0.00000000       1.87709999     -0.606999993       537.229126       1.56328237    
   0.00000000       1.36500001     -0.606999993       537.229126       1.56328237    
 -0.266297996       1.33877206     -0.606999993       537.229126       1.56328237    
 -0.366203994       1.84103203     -0.606999993       537.229126       1.56328237    
   0.00000000       1.87709999     -0.606999993       157.748154       1.55415857    
   0.00000000       2.59967995     -0.517000020       157.748154       1.55415857    
  0.507171988       2.54972792     -0.517000020       157.748154       1.55415857    
  0.366203994       1.84103203     -0.606999993       157.748154       1.55415857    
  0.366203994       1.84103203     -0.606999993       536.864380       1.56327200    
  0.266297996       1.33877206     -0.606999993       536.864380       1.56327200    
   0.00000000       1.36500001     -0.606999993       536.864380       1.56327200    
   0.00000000       1.87709999     -0.606999993       536.864380       1.56327200    
  0.366203994       1.84103203     -0.606999993       151.545120       1.55410242    
  0.507171988       2.54972792     -0.517000020       151.545120       1.55410242    
  0.994853973       2.40179110     -0.517000020       151.545120       1.55410242    
  0.718334973       1.73421395     -0.606999993       151.545120       1.55410242    
  0.718334973       1.73421395     -0.606999993       515.926636       1.56323588    
  0.522363007       1.26109600     -0.606999993       515.926636       1.56323588    
  0.266297996       1.33877206     -0.606999993       515.926636       1.56323588    
  0.366203994       1.84103203     -0.606999993       515.926636       1.56323588    
  0.718334973       1.73421395     -0.606999993       139.665817       1.55400777    
  0.994853973       2.40179110     -0.517000020       139.665817       1.55400777    
   1.44430494       2.16155505     -0.517000020       139.665817       1.55400777    
   1.04286098       1.56075203     -0.606999993       139.665817       1.55400777    
   1.04286098       1.56075203     -0.606999993       475.368683       1.56323445    
  0.758352995       1.13495600     -0.606999993       475.368683       1.56323445    
  0.522363007       1.26109600     -0.606999993       475.368683       1.56323445    
  0.718334973       1.73421395     -0.606999993       475.368683       1.56323445    
   1.04286098       1.56075203     -0.606999993       122.744476       1.55397308    
   1.44430494       2.16155505     -0.517000020       122.744476       1.55397308    
   1.83825099       1.83825099     -0.517000020       122.744476       1.55397308    
   1.32730997       1.32730997     -0.606999993       122.744476       1.55397308    
   1.32730997       1.32730997     -0.606999993       416.816833       1.56323564    
  0.965201020      0.965201020     -0.606999993       416.816833       1.56323564    
  0.758352995       1.13495600     -0.606999993       416.816833       1.56323564    
   1.04286098       1.56075203     -0.606999993       416.816833       1.56323564    
   1.32730997       1.32730997     -0.606999993       101.287621       1.55413818    
   1.83825099       1.83825099     -0.517000020       101.287621       1.55413818    
   2.16155505       1.44430494     -0.517000020       101.287621       1.55413818    
   1.56075203       1.04286098     -0.606999993       101.287621       1.55413818    
   1.56075203       1.04286098     -0.606999993       342.435913       1.56329143    
   1.13495600      0.758352995     -0.606999993       342.435913       1.56329143    
  0.965201020      0.965201020     -0.606999993       342.435913       1.56329143    
   1.32730997       1.32730997     -0.606999993       342.435913       1.56329143    
   1.56075203       1.04286098     -0.606999993       75.8583374       1.55468166    
   2.16155505       1.44430494     -0.517000020       75.8583374       1.55468166    
   2.40179110      0.994853973     -0.517000020       75.8583374       1.55468166    
   1.73421395      0.718334973     -0.606999993       75.8583374       1.55468166    
   1.73421395      0.718334973     -0.606999993       254.850540       1.56342351    
   1.26109600      0.522363007     -0.606999993       254.850540       1.56342351    
   1.13495600      0.758352995     -0.606999993       254.850540       1.56342351    
   1.56075203       1.04286098     -0.606999993       254.850540       1.56342351    
   1.73421395      0.718334973     -0.606999993       47.3444939       1.55564106    
   2.40179110      0.994853973     -0.517000020       47.3444939       1.55564106    
   2.54972792      0.507171988     -0.517000020       47.3444939       1.55564106    
   1.84103203      0.366203994     -0.606999993       47.3444939       1.55564106    
   1.84103203      0.366203994     -0.606999993       157.386810       1.56369996    
   1.33877206      0.266297996     -0.606999993       157.386810       1.56369996    
   1.26109600      0.522363007     -0.606999993       157.386810       1.56369996    
   1.73421395      0.718334973     -0.606999993       157.386810       1.56369996    
   1.84103203      0.366203994     -0.606999993       16.9178162       1.55848324    
   2.54972792      0.507171988     -0.517000020       16.9178162       1.55848324    
   2.59967995       0.00000000     -0.517000020       16.9178162       1.55848324    
   1.87709999       0.00000000     -0.606999993       16.9178162       1.55848324    
   1.87709999       0.00000000     -0.606999993       53.7537994       1.56479704    
   1.36500001       0.00000000     -0.606999993       53.7537994       1.56479704    
   1.33877206      0.266297996     -0.606999993       53.7537994       1.56479704    
   1.84103203      0.366203994     -0.606999993       53.7537994       1.56479704    
   1.87709999       0.00000000     -0.606999993       14.1990118      -1.59176910    
   2.59967995       0.00000000     -0.517000020       14.1990118      -1.59176910    
   2.54972792     -0.507171988     -0.517000020       14.1990118      -1.59176910    
   1.84103203     -0.366203994     -0.606999993       14.1990118      -1.59176910    
   1.84103203     -0.366203994     -0.606999993       52.0891685      -1.58006501    
   1.33877206     -0.266297996     -0.606999993       52.0891685      -1.58006501    
   1.36500001       0.00000000     -0.606999993       52.0891685      -1.58006501    
   1.87709999       0.00000000     -0.606999993       52.0891685      -1.58006501    
   1.84103203     -0.366203994     -0.606999993       44.8365326      -1.58887696    
   2.54972792     -0.507171988     -0.517000020       44.8365326      -1.58887696    
   2.40179110     -0.994853973     -0.517000020       44.8365326      -1.58887696    
   1.73421395     -0.718334973     -0.606999993       44.8365326      -1.58887696    
   1.73421395     -0.718334973     -0.606999993       156.070618      -1.57900393    
   1.26109600     -0.522363007     -0.606999993       156.070618      -1.57900393    
   1.33877206     -0.266297996     -0.606999993       156.070618      -1.57900393    
   1.84103203     -0.366203994     -0.606999993       156.070618      -1.57900393    
   1.73421395     -0.718334973     -0.606999993       73.7313690      -1.58871877    
   2.40179110     -0.994853973     -0.517000020       73.7313690      -1.58871877    
   2.16155505      -1.44430494     -0.517000020       73.7313690      -1.58871877    
   1.56075203      -1.04286098     -0.606999993       73.7313690      -1.58871877    
   1.56075203      -1.04286098     -0.606999993       254.148514      -1.57885003    
   1.13495600     -0.758352995     -0.606999993       254.148514      -1.57885003    
   1.26109600     -0.522363007     -0.606999993       254.148514      -1.57885003    