 VARIABLES="X" "Y" "Z" "abs(p) (Pa)" "angle(p) (rad)"
ZONE N=   2709,E =    2358, F=FEPOINT, ET=QUADRILATERAL
   0.00000000      -5.48999977     -0.157000005       4668.33789      -1.62622118    
   0.00000000      -4.76741982     -0.246999994       4668.33789      -1.62622118    
  0.930077016      -4.67581606     -0.246999994       4668.33789      -1.62622118    
   1.07104599      -5.38451099     -0.157000005       4668.33789      -1.62622118    
  -1.07104599      -5.38451099     -0.157000005       4673.10840      -1.62769723    
 -0.930077016      -4.67581606     -0.246999994       4673.10840      -1.62769723    
   0.00000000      -4.76741982     -0.246999994       4673.10840      -1.62769723    
   0.00000000      -5.48999977     -0.157000005       4673.10840      -1.62769723    
  -2.10093188      -5.07209921     -0.157000005       4554.38965      -1.62662208    
  -1.82441294      -4.40452194     -0.246999994       4554.38965      -1.62662208    
 -0.930077016      -4.67581606     -0.246999994       4554.38965      -1.62662208    
  -1.07104599      -5.38451099     -0.157000005       4554.38965      -1.62662208    
  -3.05008101      -4.56476784     -0.157000005       4137.51270      -1.62896693    
  -2.64863706      -3.96396494     -0.246999994       4137.51270      -1.62896693    
  -1.82441294      -4.40452194     -0.246999994       4137.51270      -1.62896693    
  -2.10093188      -5.07209921     -0.157000005       4137.51270      -1.62896693    
  -3.88201594      -3.88201594     -0.157000005       3622.73389      -1.62631691    
  -3.37107491      -3.37107491     -0.246999994       3622.73389      -1.62631691    
  -2.64863706      -3.96396494     -0.246999994       3622.73389      -1.62631691    
  -3.05008101      -4.56476784     -0.157000005       3622.73389      -1.62631691    
  -4.56476784      -3.05008101     -0.157000005       3023.24414      -1.62012470    
  -3.96396494      -2.64863706     -0.246999994       3023.24414      -1.62012470    
  -3.37107491      -3.37107491     -0.246999994       3023.24414      -1.62012470    
  -3.88201594      -3.88201594     -0.157000005       3023.24414      -1.62012470    
  -5.07209921      -2.10093188     -0.157000005       2211.80591      -1.62182772    
  -4.40452194      -1.82441294     -0.246999994       2211.80591      -1.62182772    
  -3.96396494      -2.64863706     -0.246999994       2211.80591      -1.62182772    
  -4.56476784      -3.05008101     -0.157000005       2211.80591      -1.62182772    
  -5.38451099      -1.07104599     -0.157000005       1351.44373      -1.62706947    
  -4.67581606     -0.930077016     -0.246999994       1351.44373      -1.62706947    
  -4.40452194      -1.82441294     -0.246999994       1351.44373      -1.62706947    
  -5.07209921      -2.10093188     -0.157000005       1351.44373      -1.62706947    
  -5.48999977       0.00000000     -0.157000005       456.663971      -1.63993585    
  -4.76741982       0.00000000     -0.246999994       456.663971      -1.63993585    
  -4.67581606     -0.930077016     -0.246999994       456.663971      -1.63993585    
  -5.38451099      -1.07104599     -0.157000005       456.663971      -1.63993585    
  -5.38451099       1.07104599     -0.157000005       471.471008       1.52874243    
  -4.67581606      0.930077016     -0.246999994       471.471008       1.52874243    
  -4.76741982       0.00000000     -0.246999994       471.471008       1.52874243    
  -5.48999977       0.00000000     -0.157000005       471.471008       1.52874243    
  -5.07209921       2.10093188     -0.157000005       1387.85706       1.51703548    
  -4.40452194       1.82441294     -0.246999994       1387.85706       1.51703548    
  -4.67581606      0.930077016     -0.246999994       1387.85706       1.51703548    
  -5.38451099       1.07104599     -0.157000005       1387.85706       1.51703548    
  -4.56476784       3.05008101     -0.157000005       2253.62158       1.51547003    
  -3.96396494       2.64863706     -0.246999994       2253.62158       1.51547003    
  -4.40452194       1.82441294     -0.246999994       2253.62158       1.51547003    
  -5.07209921       2.10093188     -0.157000005       2253.62158       1.51547003    
  -3.88201594       3.88201594     -0.157000005       2990.88135       1.51353586    
  -3.37107491       3.37107491     -0.246999994       2990.88135       1.51353586    
  -3.96396494       2.64863706     -0.246999994       2990.88135       1.51353586    
  -4.56476784       3.05008101     -0.157000005       2990.88135       1.51353586    
  -3.05008101       4.56476784     -0.157000005       3689.55469       1.51685953    
  -2.64863706       3.96396494     -0.246999994       3689.55469       1.51685953    
  -3.37107491       3.37107491     -0.246999994       3689.55469       1.51685953    
  -3.88201594       3.88201594     -0.157000005       3689.55469       1.51685953    
  -2.10093188       5.07209921     -0.157000005       4149.75195       1.51458752    
  -1.82441294       4.40452194     -0.246999994       4149.75195       1.51458752    
  -2.64863706       3.96396494     -0.246999994       4149.75195       1.51458752    
  -3.05008101       4.56476784     -0.157000005       4149.75195       1.51458752    
  -1.07104599       5.38451099     -0.157000005       4560.58936       1.51669991    
 -0.930077016       4.67581606     -0.246999994       4560.58936       1.51669991    
  -1.82441294       4.40452194     -0.246999994       4560.58936       1.51669991    
  -2.10093188       5.07209921     -0.157000005       4560.58936       1.51669991    
   0.00000000       5.48999977     -0.157000005       4684.69434       1.51377594    
   0.00000000       4.76741982     -0.246999994       4684.69434       1.51377594    
 -0.930077016       4.67581606     -0.246999994       4684.69434       1.51377594    
  -1.07104599       5.38451099     -0.157000005       4684.69434       1.51377594    
   1.07104599       5.38451099     -0.157000005       4745.87109       1.51573563    
  0.930077016       4.67581606     -0.246999994       4745.87109       1.51573563    
   0.00000000       4.76741982     -0.246999994       4745.87109       1.51573563    
   0.00000000       5.48999977     -0.157000005       4745.87109       1.51573563    
   2.10093188       5.07209921     -0.157000005       4499.31201       1.51302063    
   1.82441294       4.40452194     -0.246999994       4499.31201       1.51302063    
  0.930077016       4.67581606     -0.246999994       4499.31201       1.51302063    
   1.07104599       5.38451099     -0.157000005       4499.31201       1.51302063    
   3.05008101       4.56476784     -0.157000005       4135.30908       1.51358342    
   2.64863706       3.96396494     -0.246999994       4135.30908       1.51358342    
   1.82441294       4.40452194     -0.246999994       4135.30908       1.51358342    
   2.10093188       5.07209921     -0.157000005       4135.30908       1.51358342    
   3.88201594       3.88201594     -0.157000005       3675.03979       1.51829267    
   3.37107491       3.37107491     -0.246999994       3675.03979       1.51829267    
   2.64863706       3.96396494     -0.246999994       3675.03979       1.51829267    
   3.05008101       4.56476784     -0.157000005       3675.03979       1.51829267    
   4.56476784       3.05008101     -0.157000005       3003.23462       1.51993477    
   3.96396494       2.64863706     -0.246999994       3003.23462       1.51993477    
   3.37107491       3.37107491     -0.246999994       3003.23462       1.51993477    
   3.88201594       3.88201594     -0.157000005       3003.23462       1.51993477    
   5.07209921       2.10093188     -0.157000005       2241.63672       1.52180576    
   4.40452194       1.82441294     -0.246999994       2241.63672       1.52180576    
   3.96396494       2.64863706     -0.246999994       2241.63672       1.52180576    
   4.56476784       3.05008101     -0.157000005       2241.63672       1.52180576    
   5.38451099       1.07104599     -0.157000005       1355.85498       1.51662588    
   4.67581606      0.930077016     -0.246999994       1355.85498       1.51662588    
   4.40452194       1.82441294     -0.246999994       1355.85498       1.51662588    
   5.07209921       2.10093188     -0.157000005       1355.85498       1.51662588    
   5.48999977       0.00000000     -0.157000005       456.226776       1.50439799    
   4.76741982       0.00000000     -0.246999994       456.226776       1.50439799    
   4.67581606      0.930077016     -0.246999994       456.226776       1.50439799    
   5.38451099       1.07104599     -0.157000005       456.226776       1.50439799    
   5.38451099      -1.07104599     -0.157000005       456.150024      -1.61178458    
   4.67581606     -0.930077016     -0.246999994       456.150024      -1.61178458    
   4.76741982       0.00000000     -0.246999994       456.150024      -1.61178458    
   5.48999977       0.00000000     -0.157000005       456.150024      -1.61178458    
   5.07209921      -2.10093188     -0.157000005       1358.09656      -1.62340951    
   4.40452194      -1.82441294     -0.246999994       1358.09656      -1.62340951    
   4.67581606     -0.930077016     -0.246999994       1358.09656      -1.62340951    
   5.38451099      -1.07104599     -0.157000005       1358.09656      -1.62340951    
   4.56476784      -3.05008101     -0.157000005       2213.16797      -1.62690222    
   3.96396494      -2.64863706     -0.246999994       2213.16797      -1.62690222    
   4.40452194      -1.82441294     -0.246999994       2213.16797      -1.62690222    
   5.07209921      -2.10093188     -0.157000005       2213.16797      -1.62690222    
   3.88201594      -3.88201594     -0.157000005       2982.94116      -1.62830651    
   3.37107491      -3.37107491     -0.246999994       2982.94116      -1.62830651    
   3.96396494      -2.64863706     -0.246999994       2982.94116      -1.62830651    
   4.56476784      -3.05008101     -0.157000005       2982.94116      -1.62830651    
   3.05008101      -4.56476784     -0.157000005       3682.29883      -1.62562215    
   2.64863706      -3.96396494     -0.246999994       3682.29883      -1.62562215    
   3.37107491      -3.37107491     -0.246999994       3682.29883      -1.62562215    
   3.88201594      -3.88201594     -0.157000005       3682.29883      -1.62562215    
   2.10093188      -5.07209921     -0.157000005       4137.89551      -1.62712860    
   1.82441294      -4.40452194     -0.246999994       4137.89551      -1.62712860    
   2.64863706      -3.96396494     -0.246999994       4137.89551      -1.62712860    
   3.05008101      -4.56476784     -0.157000005       4137.89551      -1.62712860    
   1.07104599      -5.38451099     -0.157000005       4485.17285      -1.62614357    
  0.930077016      -4.67581606     -0.246999994       4485.17285      -1.62614357    
   1.82441294      -4.40452194     -0.246999994       4485.17285      -1.62614357    
   2.10093188      -5.07209921     -0.157000005       4485.17285      -1.62614357    
   0.00000000      -1.87709999     -0.606999993       4005.86499      -1.57750440    
   0.00000000      -1.36500001     -0.606999993       4005.86499      -1.57750440    
  0.266297996      -1.33877206     -0.606999993       4005.86499      -1.57750440    
  0.366203994      -1.84103203     -0.606999993       4005.86499      -1.57750440    
   0.00000000      -1.87709999     -0.606999993       3584.10083      -1.57846963    
   0.00000000      -2.59967995     -0.517000020       3584.10083      -1.57846963    
 -0.507171988      -2.54972792     -0.517000020       3584.10083      -1.57846963    
 -0.366203994      -1.84103203     -0.606999993       3584.10083      -1.57846963    
 -0.366203994      -1.84103203     -0.606999993       4005.30493      -1.57745481    
 -0.266297996      -1.33877206     -0.606999993       4005.30493      -1.57745481    
   0.00000000      -1.36500001     -0.606999993       4005.30493      -1.57745481    
   0.00000000      -1.87709999     -0.606999993       4005.30493      -1.57745481    
 -0.366203994      -1.84103203     -0.606999993       3437.41675      -1.57845306    
 -0.507171988      -2.54972792     -0.517000020       3437.41675      -1.57845306    
 -0.994853973      -2.40179110     -0.517000020       3437.41675      -1.57845306    
 -0.718334973      -1.73421395     -0.606999993       3437.41675      -1.57845306    
 -0.718334973      -1.73421395     -0.606999993       3847.04980      -1.57740319    
 -0.522363007      -1.26109600     -0.606999993       3847.04980      -1.57740319    
 -0.266297996      -1.33877206     -0.606999993       3847.04980      -1.57740319    
 -0.366203994      -1.84103203     -0.606999993       3847.04980      -1.57740319    
 -0.718334973      -1.73421395     -0.606999993       3161.16699      -1.57842243    
 -0.994853973      -2.40179110     -0.517000020       3161.16699      -1.57842243    
  -1.44430494      -2.16155505     -0.517000020       3161.16699      -1.57842243    
  -1.04286098      -1.56075203     -0.606999993       3161.16699      -1.57842243    
  -1.04286098      -1.56075203     -0.606999993       3542.04346      -1.57732999    
 -0.758352995      -1.13495600     -0.606999993       3542.04346      -1.57732999    
 -0.522363007      -1.26109600     -0.606999993       3542.04346      -1.57732999    
 -0.718334973      -1.73421395     -0.606999993       3542.04346      -1.57732999    
  -1.04286098      -1.56075203     -0.606999993       2772.32617      -1.57836187    
  -1.44430494      -2.16155505     -0.517000020       2772.32617      -1.57836187    
  -1.83825099      -1.83825099     -0.517000020       2772.32617      -1.57836187    
  -1.32730997      -1.32730997     -0.606999993       2772.32617      -1.57836187    
  -1.32730997      -1.32730997     -0.606999993       3104.58936      -1.57723367    
 -0.965201020     -0.965201020     -0.606999993       3104.58936      -1.57723367    
 -0.758352995      -1.13495600     -0.606999993       3104.58936      -1.57723367    
  -1.04286098      -1.56075203     -0.606999993       3104.58936      -1.57723367    
  -1.32730997      -1.32730997     -0.606999993       2281.06494      -1.57825220    
  -1.83825099      -1.83825099     -0.517000020       2281.06494      -1.57825220    
  -2.16155505      -1.44430494     -0.517000020       2281.06494      -1.57825220    
  -1.56075203      -1.04286098     -0.606999993       2281.06494      -1.57825220    
  -1.56075203      -1.04286098     -0.606999993       2550.06616      -1.57708919    
  -1.13495600     -0.758352995     -0.606999993       2550.06616      -1.57708919    
 -0.965201020     -0.965201020     -0.606999993       2550.06616      -1.57708919    
  -1.32730997      -1.32730997     -0.606999993       2550.06616      -1.57708919    
  -1.56075203      -1.04286098     -0.606999993       1698.37354      -1.57808685    
  -2.16155505      -1.44430494     -0.517000020       1698.37354      -1.57808685    
  -2.40179110     -0.994853973     -0.517000020       1698.37354      -1.57808685    
  -1.73421395     -0.718334973     -0.606999993       1698.37354      -1.57808685    
  -1.73421395     -0.718334973     -0.606999993       1896.35266      -1.57688689    
  -1.26109600     -0.522363007     -0.606999993       1896.35266      -1.57688689    
  -1.13495600     -0.758352995     -0.606999993       1896.35266      -1.57688689    
  -1.56075203      -1.04286098     -0.606999993       1896.35266      -1.57688689    
  -1.73421395     -0.718334973     -0.606999993       1044.88708      -1.57783949    
  -2.40179110     -0.994853973     -0.517000020       1044.88708      -1.57783949    
  -2.54972792     -0.507171988     -0.517000020       1044.88708      -1.57783949    
  -1.84103203     -0.366203994     -0.606999993       1044.88708      -1.57783949    
  -1.84103203     -0.366203994     -0.606999993       1167.05054      -1.57654035    
  -1.33877206     -0.266297996     -0.606999993       1167.05054      -1.57654035    
  -1.26109600     -0.522363007     -0.606999993       1167.05054      -1.57654035    
  -1.73421395     -0.718334973     -0.606999993       1167.05054      -1.57654035    
  -1.84103203     -0.366203994     -0.606999993       350.951782      -1.57709670    
  -2.54972792     -0.507171988     -0.517000020       350.951782      -1.57709670    
  -2.59967995       0.00000000     -0.517000020       350.951782      -1.57709670    
  -1.87709999       0.00000000     -0.606999993       350.951782      -1.57709670    
  -1.87709999       0.00000000     -0.606999993       391.517548      -1.57529652    
  -1.36500001       0.00000000     -0.606999993       391.517548      -1.57529652    
  -1.33877206     -0.266297996     -0.606999993       391.517548      -1.57529652    
  -1.84103203     -0.366203994     -0.606999993       391.517548      -1.57529652    
  -1.87709999       0.00000000     -0.606999993       354.729767       1.56252551    
  -2.59967995       0.00000000     -0.517000020       354.729767       1.56252551    
  -2.54972792      0.507171988     -0.517000020       354.729767       1.56252551    
  -1.84103203      0.366203994     -0.606999993       354.729767       1.56252551    
  -1.84103203      0.366203994     -0.606999993       399.214111       1.56293797    
  -1.33877206      0.266297996     -0.606999993       399.214111       1.56293797    
  -1.36500001       0.00000000     -0.606999993       399.214111       1.56293797    
  -1.87709999       0.00000000     -0.606999993       399.214111       1.56293797    
  -1.84103203      0.366203994     -0.606999993       1048.47461       1.56311679    
  -2.54972792      0.507171988     -0.517000020       1048.47461       1.56311679    
  -2.40179110      0.994853973     -0.517000020       1048.47461       1.56311679    
  -1.73421395      0.718334973     -0.606999993       1048.47461       1.56311679    
  -1.73421395      0.718334973     -0.606999993       1174.84985       1.56408405    
  -1.26109600      0.522363007     -0.606999993       1174.84985       1.56408405    
  -1.33877206      0.266297996     -0.606999993       1174.84985       1.56408405    
  -1.84103203      0.366203994     -0.606999993       1174.84985       1.56408405    
  -1.73421395      0.718334973     -0.606999993       1703.15833       1.56316888    
  -2.40179110      0.994853973     -0.517000020       1703.15833       1.56316888    
  -2.16155505       1.44430494     -0.517000020       1703.15833       1.56316888    
  -1.56075203       1.04286098     -0.606999993       1703.15833       1.56316888    
  -1.56075203       1.04286098     -0.606999993       1904.91772       1.56430042    
  -1.13495600      0.758352995     -0.606999993       1904.91772       1.56430042    
  -1.26109600      0.522363007     -0.606999993       1904.91772       1.56430042    
  -1.73421395      0.718334973     -0.606999993       1904.91772       1.56430042    
  -1.56075203       1.04286098     -0.606999993       2287.98169       1.56316984    
  -2.16155505       1.44430494     -0.517000020       2287.98169       1.56316984    
  -1.83825099       1.83825099     -0.517000020       2287.98169       1.56316984    
  -1.32730997       1.32730997     -0.606999993       2287.98169       1.56316984    
  -1.32730997       1.32730997     -0.606999993       2559.93726       1.56438017    
 -0.965201020      0.965201020     -0.606999993       2559.93726       1.56438017    
  -1.13495600      0.758352995     -0.606999993       2559.93726       1.56438017    
  -1.56075203       1.04286098     -0.606999993       2559.93726       1.56438017    
  -1.32730997       1.32730997     -0.606999993       2780.45190       1.56318700    
  -1.83825099       1.83825099     -0.517000020       2780.45190       1.56318700    
  -1.44430494       2.16155505     -0.517000020       2780.45190       1.56318700    
  -1.04286098       1.56075203     -0.606999993       2780.45190       1.56318700    
  -1.04286098       1.56075203     -0.606999993       3115.40698       1.56442750    
 -0.758352995       1.13495600     -0.606999993       3115.40698       1.56442750    
 -0.965201020      0.965201020     -0.606999993       3115.40698       1.56442750    
  -1.32730997       1.32730997     -0.606999993       3115.40698       1.56442750    
  -1.04286098       1.56075203     -0.606999993       3169.34863       1.56321943    
  -1.44430494       2.16155505     -0.517000020       3169.34863       1.56321943    
 -0.994853973       2.40179110     -0.517000020       3169.34863       1.56321943    
 -0.718334973       1.73421395     -0.606999993       3169.34863       1.56321943    
 -0.718334973       1.73421395     -0.606999993       3553.34619       1.56446064    
 -0.522363007       1.26109600     -0.606999993       3553.34619       1.56446064    
 -0.758352995       1.13495600     -0.606999993       3553.34619       1.56446064    
  -1.04286098       1.56075203     -0.606999993       3553.34619       1.56446064    
 -0.718334973       1.73421395     -0.606999993       3445.20093       1.56324852    
 -0.994853973       2.40179110     -0.517000020       3445.20093       1.56324852    
 -0.507171988       2.54972792     -0.517000020       3445.20093       1.56324852    
 -0.366203994       1.84103203     -0.606999993       3445.20093       1.56324852    
 -0.366203994       1.84103203     -0.606999993       3858.76489       1.56447744    
 -0.266297996       1.33877206     -0.606999993       3858.76489       1.56447744    
 -0.522363007       1.26109600     -0.606999993       3858.76489       1.56447744    
 -0.718334973       1.73421395     -0.606999993       3858.76489       1.56447744    
 -0.366203994       1.84103203     -0.606999993       3591.76245       1.56326044    
 -0.507171988       2.54972792     -0.517000020       3591.76245       1.56326044    
   0.00000000       2.59967995     -0.517000020       3591.76245       1.56326044    
   0.00000000       1.87709999     -0.606999993       3591.76245       1.56326044    
   0.00000000       1.87709999     -0.606999993       4017.10278       1.56447279    
   0.00000000       1.36500001     -0.606999993       4017.10278       1.56447279    
 -0.266297996       1.33877206     -0.606999993       4017.10278       1.56447279    
 -0.366203994       1.84103203     -0.606999993       4017.10278       1.56447279    
   0.00000000       1.87709999     -0.606999993       3592.09131       1.56324840    
   0.00000000       2.59967995     -0.517000020       3592.09131       1.56324840    
  0.507171988       2.54972792     -0.517000020       3592.09131       1.56324840    
  0.366203994       1.84103203     -0.606999993       3592.09131       1.56324840    
  0.366203994       1.84103203     -0.606999993       4017.73535       1.56443453    
  0.266297996       1.33877206     -0.606999993       4017.73535       1.56443453    
   0.00000000       1.36500001     -0.606999993       4017.73535       1.56443453    
   0.00000000       1.87709999     -0.606999993       4017.73535       1.56443453    
  0.366203994       1.84103203     -0.606999993       3446.33398       1.56322622    
  0.507171988       2.54972792     -0.517000020       3446.33398       1.56322622    
  0.994853973       2.40179110     -0.517000020       3446.33398       1.56322622    
  0.718334973       1.73421395     -0.606999993       3446.33398       1.56322622    
  0.718334973       1.73421395     -0.606999993       3860.74976       1.56437731    
  0.522363007       1.26109600     -0.606999993       3860.74976       1.56437731    
  0.266297996       1.33877206     -0.606999993       3860.74976       1.56437731    
  0.366203994       1.84103203     -0.606999993       3860.74976       1.56437731    
  0.718334973       1.73421395     -0.606999993       3171.19873       1.56319892    
  0.994853973       2.40179110     -0.517000020       3171.19873       1.56319892    
   1.44430494       2.16155505     -0.517000020       3171.19873       1.56319892    
   1.04286098       1.56075203     -0.606999993       3171.19873       1.56319892    
   1.04286098       1.56075203     -0.606999993       3556.53149       1.56430721    
  0.758352995       1.13495600     -0.606999993       3556.53149       1.56430721    
  0.522363007       1.26109600     -0.606999993       3556.53149       1.56430721    
  0.718334973       1.73421395     -0.606999993       3556.53149       1.56430721    
   1.04286098       1.56075203     -0.606999993       2782.89160       1.56318986    
   1.44430494       2.16155505     -0.517000020       2782.89160       1.56318986    
   1.83825099       1.83825099     -0.517000020       2782.89160       1.56318986    
   1.32730997       1.32730997     -0.606999993       2782.89160       1.56318986    
   1.32730997       1.32730997     -0.606999993       3119.31470       1.56423068    
  0.965201020      0.965201020     -0.606999993       3119.31470       1.56423068    
  0.758352995       1.13495600     -0.606999993       3119.31470       1.56423068    
   1.04286098       1.56075203     -0.606999993       3119.31470       1.56423068    
   1.32730997       1.32730997     -0.606999993       2290.67676       1.56321073    
   1.83825099       1.83825099     -0.517000020       2290.67676       1.56321073    
   2.16155505       1.44430494     -0.517000020       2290.67676       1.56321073    
   1.56075203       1.04286098     -0.606999993       2290.67676       1.56321073    
   1.56075203       1.04286098     -0.606999993       2563.90259       1.56415474    
   1.13495600      0.758352995     -0.606999993       2563.90259       1.56415474    
  0.965201020      0.965201020     -0.606999993       2563.90259       1.56415474    
   1.32730997       1.32730997     -0.606999993       2563.90259       1.56415474    
   1.56075203       1.04286098     -0.606999993       1705.68103       1.56325006    
   2.16155505       1.44430494     -0.517000020       1705.68103       1.56325006    
   2.40179110      0.994853973     -0.517000020       1705.68103       1.56325006    
   1.73421395      0.718334973     -0.606999993       1705.68103       1.56325006    
   1.73421395      0.718334973     -0.606999993       1907.82007       1.56406188    
   1.26109600      0.522363007     -0.606999993       1907.82007       1.56406188    
   1.13495600      0.758352995     -0.606999993       1907.82007       1.56406188    
   1.56075203       1.04286098     -0.606999993       1907.82007       1.56406188    
   1.73421395      0.718334973     -0.606999993       1050.37781       1.56323695    
   2.40179110      0.994853973     -0.517000020       1050.37781       1.56323695    
   2.54972792      0.507171988     -0.517000020       1050.37781       1.56323695    
   1.84103203      0.366203994     -0.606999993       1050.37781       1.56323695    
   1.84103203      0.366203994     -0.606999993       1175.84778       1.56387937    
   1.33877206      0.266297996     -0.606999993       1175.84778       1.56387937    
   1.26109600      0.522363007     -0.606999993       1175.84778       1.56387937    
   1.73421395      0.718334973     -0.606999993       1175.84778       1.56387937    
   1.84103203      0.366203994     -0.606999993       355.858276       1.56292045    
   2.54972792      0.507171988     -0.517000020       355.858276       1.56292045    
   2.59967995       0.00000000     -0.517000020       355.858276       1.56292045    
   1.87709999       0.00000000     -0.606999993       355.858276       1.56292045    
   1.87709999       0.00000000     -0.606999993       398.244873       1.56307113    
   1.36500001       0.00000000     -0.606999993       398.244873       1.56307113    
   1.33877206      0.266297996     -0.606999993       398.244873       1.56307113    
   1.84103203      0.366203994     -0.606999993       398.244873       1.56307113    
   1.87709999       0.00000000     -0.606999993       350.572388      -1.57780993    
   2.59967995       0.00000000     -0.517000020       350.572388      -1.57780993    
   2.54972792     -0.507171988     -0.517000020       350.572388      -1.57780993    
   1.84103203     -0.366203994     -0.606999993       350.572388      -1.57780993    
   1.84103203     -0.366203994     -0.606999993       394.264526      -1.57630610    
   1.33877206     -0.266297996     -0.606999993       394.264526      -1.57630610    
   1.36500001       0.00000000     -0.606999993       394.264526      -1.57630610    
   1.87709999       0.00000000     -0.606999993       394.264526      -1.57630610    
   1.84103203     -0.366203994     -0.606999993       1045.05872      -1.57826304    
   2.54972792     -0.507171988     -0.517000020       1045.05872      -1.57826304    
   2.40179110     -0.994853973     -0.517000020       1045.05872      -1.57826304    
   1.73421395     -0.718334973     -0.606999993       1045.05872      -1.57826304    
   1.73421395     -0.718334973     -0.606999993       1171.16394      -1.57716560    
   1.26109600     -0.522363007     -0.606999993       1171.16394      -1.57716560    
   1.33877206     -0.266297996     -0.606999993       1171.16394      -1.57716560    
   1.84103203     -0.366203994     -0.606999993       1171.16394      -1.57716560    
   1.73421395     -0.718334973     -0.606999993       1698.84827      -1.57846534    
   2.40179110     -0.994853973     -0.517000020       1698.84827      -1.57846534    
   2.16155505      -1.44430494     -0.517000020       1698.84827      -1.57846534    
   1.56075203      -1.04286098     -0.606999993       1698.84827      -1.57846534    
   1.56075203      -1.04286098     -0.606999993       1901.21558      -1.57741094    
   1.13495600     -0.758352995     -0.606999993       1901.21558      -1.57741094    
   1.26109600     -0.522363007     -0.606999993       1901.21558      -1.57741094    