 VARIABLES="X" "Y" "Z" "abs(p) (Pa)" "angle(p) (rad)"
ZONE N=   2709,E =    2358, F=FEPOINT, ET=QUADRILATERAL
   0.00000000      -5.48999977     -0.157000005       6985.72412      -2.10736895    
   0.00000000      -4.76741982     -0.246999994       6985.72412      -2.10736895    
  0.930077016      -4.67581606     -0.246999994       6985.72412      -2.10736895    
   1.07104599      -5.38451099     -0.157000005       6985.72412      -2.10736895    
  -1.07104599      -5.38451099     -0.157000005       6999.03613       2.14959097    
 -0.930077016      -4.67581606     -0.246999994       6999.03613       2.14959097    
   0.00000000      -4.76741982     -0.246999994       6999.03613       2.14959097    
   0.00000000      -5.48999977     -0.157000005       6999.03613       2.14959097    
  -2.10093188      -5.07209921     -0.157000005       7139.84180      0.177188024    
  -1.82441294      -4.40452194     -0.246999994       7139.84180      0.177188024    
 -0.930077016      -4.67581606     -0.246999994       7139.84180      0.177188024    
  -1.07104599      -5.38451099     -0.157000005       7139.84180      0.177188024    
  -3.05008101      -4.56476784     -0.157000005       7013.85693      -1.68830204    
  -2.64863706      -3.96396494     -0.246999994       7013.85693      -1.68830204    
  -1.82441294      -4.40452194     -0.246999994       7013.85693      -1.68830204    
  -2.10093188      -5.07209921     -0.157000005       7013.85693      -1.68830204    
  -3.88201594      -3.88201594     -0.157000005       6961.45508       2.91188622    
  -3.37107491      -3.37107491     -0.246999994       6961.45508       2.91188622    
  -2.64863706      -3.96396494     -0.246999994       6961.45508       2.91188622    
  -3.05008101      -4.56476784     -0.157000005       6961.45508       2.91188622    
  -4.56476784      -3.05008101     -0.157000005       7005.30176       1.49509943    
  -3.96396494      -2.64863706     -0.246999994       7005.30176       1.49509943    
  -3.37107491      -3.37107491     -0.246999994       7005.30176       1.49509943    
  -3.88201594      -3.88201594     -0.157000005       7005.30176       1.49509943    
  -5.07209921      -2.10093188     -0.157000005       6888.80225      0.373904675    
  -4.40452194      -1.82441294     -0.246999994       6888.80225      0.373904675    
  -3.96396494      -2.64863706     -0.246999994       6888.80225      0.373904675    
  -4.56476784      -3.05008101     -0.157000005       6888.80225      0.373904675    
  -5.38451099      -1.07104599     -0.157000005       6801.11914     -0.394981712    
  -4.67581606     -0.930077016     -0.246999994       6801.11914     -0.394981712    
  -4.40452194      -1.82441294     -0.246999994       6801.11914     -0.394981712    
  -5.07209921      -2.10093188     -0.157000005       6801.11914     -0.394981712    
  -5.48999977       0.00000000     -0.157000005       6957.59473     -0.793292284    
  -4.76741982       0.00000000     -0.246999994       6957.59473     -0.793292284    
  -4.67581606     -0.930077016     -0.246999994       6957.59473     -0.793292284    
  -5.38451099      -1.07104599     -0.157000005       6957.59473     -0.793292284    
  -5.38451099       1.07104599     -0.157000005       6952.25391     -0.791274250    
  -4.67581606      0.930077016     -0.246999994       6952.25391     -0.791274250    
  -4.76741982       0.00000000     -0.246999994       6952.25391     -0.791274250    
  -5.48999977       0.00000000     -0.157000005       6952.25391     -0.791274250    
  -5.07209921       2.10093188     -0.157000005       6963.25635     -0.402242661    
  -4.40452194       1.82441294     -0.246999994       6963.25635     -0.402242661    
  -4.67581606      0.930077016     -0.246999994       6963.25635     -0.402242661    
  -5.38451099       1.07104599     -0.157000005       6963.25635     -0.402242661    
  -4.56476784       3.05008101     -0.157000005       7058.55469      0.370604336    
  -3.96396494       2.64863706     -0.246999994       7058.55469      0.370604336    
  -4.40452194       1.82441294     -0.246999994       7058.55469      0.370604336    
  -5.07209921       2.10093188     -0.157000005       7058.55469      0.370604336    
  -3.88201594       3.88201594     -0.157000005       6923.39258       1.49730623    
  -3.37107491       3.37107491     -0.246999994       6923.39258       1.49730623    
  -3.96396494       2.64863706     -0.246999994       6923.39258       1.49730623    
  -4.56476784       3.05008101     -0.157000005       6923.39258       1.49730623    
  -3.05008101       4.56476784     -0.157000005       7128.59619       2.92208099    
  -2.64863706       3.96396494     -0.246999994       7128.59619       2.92208099    
  -3.37107491       3.37107491     -0.246999994       7128.59619       2.92208099    
  -3.88201594       3.88201594     -0.157000005       7128.59619       2.92208099    
  -2.10093188       5.07209921     -0.157000005       7018.63477      -1.68153572    
  -1.82441294       4.40452194     -0.246999994       7018.63477      -1.68153572    
  -2.64863706       3.96396494     -0.246999994       7018.63477      -1.68153572    
  -3.05008101       4.56476784     -0.157000005       7018.63477      -1.68153572    
  -1.07104599       5.38451099     -0.157000005       7125.86035      0.197237507    
 -0.930077016       4.67581606     -0.246999994       7125.86035      0.197237507    
  -1.82441294       4.40452194     -0.246999994       7125.86035      0.197237507    
  -2.10093188       5.07209921     -0.157000005       7125.86035      0.197237507    
   0.00000000       5.48999977     -0.157000005       6969.96240       2.16069579    
   0.00000000       4.76741982     -0.246999994       6969.96240       2.16069579    
 -0.930077016       4.67581606     -0.246999994       6969.96240       2.16069579    
  -1.07104599       5.38451099     -0.157000005       6969.96240       2.16069579    
   1.07104599       5.38451099     -0.157000005       7018.31348      -2.07934666    
  0.930077016       4.67581606     -0.246999994       7018.31348      -2.07934666    
   0.00000000       4.76741982     -0.246999994       7018.31348      -2.07934666    
   0.00000000       5.48999977     -0.157000005       7018.31348      -2.07934666    
   2.10093188       5.07209921     -0.157000005       6761.93408     -0.118241258    
   1.82441294       4.40452194     -0.246999994       6761.93408     -0.118241258    
  0.930077016       4.67581606     -0.246999994       6761.93408     -0.118241258    
   1.07104599       5.38451099     -0.157000005       6761.93408     -0.118241258    
   3.05008101       4.56476784     -0.157000005       6562.20703       1.72197294    
   2.64863706       3.96396494     -0.246999994       6562.20703       1.72197294    
   1.82441294       4.40452194     -0.246999994       6562.20703       1.72197294    
   2.10093188       5.07209921     -0.157000005       6562.20703       1.72197294    
   3.88201594       3.88201594     -0.157000005       6465.79395      -2.91212940    
   3.37107491       3.37107491     -0.246999994       6465.79395      -2.91212940    
   2.64863706       3.96396494     -0.246999994       6465.79395      -2.91212940    
   3.05008101       4.56476784     -0.157000005       6465.79395      -2.91212940    
   4.56476784       3.05008101     -0.157000005       6509.24512      -1.51470590    
   3.96396494       2.64863706     -0.246999994       6509.24512      -1.51470590    
   3.37107491       3.37107491     -0.246999994       6509.24512      -1.51470590    
   3.88201594       3.88201594     -0.157000005       6509.24512      -1.51470590    
   5.07209921       2.10093188     -0.157000005       6862.45166     -0.434869736    
   4.40452194       1.82441294     -0.246999994       6862.45166     -0.434869736    
   3.96396494       2.64863706     -0.246999994       6862.45166     -0.434869736    
   4.56476784       3.05008101     -0.157000005       6862.45166     -0.434869736    
   5.38451099       1.07104599     -0.157000005       6849.17920      0.406925470    
   4.67581606      0.930077016     -0.246999994       6849.17920      0.406925470    
   4.40452194       1.82441294     -0.246999994       6849.17920      0.406925470    
   5.07209921       2.10093188     -0.157000005       6849.17920      0.406925470    
   5.48999977       0.00000000     -0.157000005       6623.27295      0.768956602    
   4.76741982       0.00000000     -0.246999994       6623.27295      0.768956602    
   4.67581606      0.930077016     -0.246999994       6623.27295      0.768956602    
   5.38451099       1.07104599     -0.157000005       6623.27295      0.768956602    
   5.38451099      -1.07104599     -0.157000005       6676.22412      0.770815611    
   4.67581606     -0.930077016     -0.246999994       6676.22412      0.770815611    
   4.76741982       0.00000000     -0.246999994       6676.22412      0.770815611    
   5.48999977       0.00000000     -0.157000005       6676.22412      0.770815611    
   5.07209921      -2.10093188     -0.157000005       6839.31494      0.404543310    
   4.40452194      -1.82441294     -0.246999994       6839.31494      0.404543310    
   4.67581606     -0.930077016     -0.246999994       6839.31494      0.404543310    
   5.38451099      -1.07104599     -0.157000005       6839.31494      0.404543310    
   4.56476784      -3.05008101     -0.157000005       6783.26758     -0.421081513    
   3.96396494      -2.64863706     -0.246999994       6783.26758     -0.421081513    
   4.40452194      -1.82441294     -0.246999994       6783.26758     -0.421081513    
   5.07209921      -2.10093188     -0.157000005       6783.26758     -0.421081513    
   3.88201594      -3.88201594     -0.157000005       6510.84424      -1.50648737    
   3.37107491      -3.37107491     -0.246999994       6510.84424      -1.50648737    
   3.96396494      -2.64863706     -0.246999994       6510.84424      -1.50648737    
   4.56476784      -3.05008101     -0.157000005       6510.84424      -1.50648737    
   3.05008101      -4.56476784     -0.157000005       6544.44092      -2.89695311    
   2.64863706      -3.96396494     -0.246999994       6544.44092      -2.89695311    
   3.37107491      -3.37107491     -0.246999994       6544.44092      -2.89695311    
   3.88201594      -3.88201594     -0.157000005       6544.44092      -2.89695311    
   2.10093188      -5.07209921     -0.157000005       6631.79834       1.72133732    
   1.82441294      -4.40452194     -0.246999994       6631.79834       1.72133732    
   2.64863706      -3.96396494     -0.246999994       6631.79834       1.72133732    
   3.05008101      -4.56476784     -0.157000005       6631.79834       1.72133732    
   1.07104599      -5.38451099     -0.157000005       6821.91113     -0.122073770    
  0.930077016      -4.67581606     -0.246999994       6821.91113     -0.122073770    
   1.82441294      -4.40452194     -0.246999994       6821.91113     -0.122073770    
   2.10093188      -5.07209921     -0.157000005       6821.91113     -0.122073770    
   0.00000000      -1.87709999     -0.606999993       2978.94482      -2.82195926    
   0.00000000      -1.36500001     -0.606999993       2978.94482      -2.82195926    
  0.266297996      -1.33877206     -0.606999993       2978.94482      -2.82195926    
  0.366203994      -1.84103203     -0.606999993       2978.94482      -2.82195926    
   0.00000000      -1.87709999     -0.606999993       3275.38721       2.70002842    
   0.00000000      -2.59967995     -0.517000020       3275.38721       2.70002842    
 -0.507171988      -2.54972792     -0.517000020       3275.38721       2.70002842    
 -0.366203994      -1.84103203     -0.606999993       3275.38721       2.70002842    
 -0.366203994      -1.84103203     -0.606999993       2978.59961       2.82187223    
 -0.266297996      -1.33877206     -0.606999993       2978.59961       2.82187223    
   0.00000000      -1.36500001     -0.606999993       2978.59961       2.82187223    
   0.00000000      -1.87709999     -0.606999993       2978.59961       2.82187223    
 -0.366203994      -1.84103203     -0.606999993       3274.82837       1.83395076    
 -0.507171988      -2.54972792     -0.517000020       3274.82837       1.83395076    
 -0.994853973      -2.40179110     -0.517000020       3274.82837       1.83395076    
 -0.718334973      -1.73421395     -0.606999993       3274.82837       1.83395076    
 -0.718334973      -1.73421395     -0.606999993       2977.93359       2.19484186    
 -0.522363007      -1.26109600     -0.606999993       2977.93359       2.19484186    
 -0.266297996      -1.33877206     -0.606999993       2977.93359       2.19484186    
 -0.366203994      -1.84103203     -0.606999993       2977.93359       2.19484186    
 -0.718334973      -1.73421395     -0.606999993       3274.93018       1.01814640    
 -0.994853973      -2.40179110     -0.517000020       3274.93018       1.01814640    
  -1.44430494      -2.16155505     -0.517000020       3274.93018       1.01814640    
  -1.04286098      -1.56075203     -0.606999993       3274.93018       1.01814640    
  -1.04286098      -1.56075203     -0.606999993       2978.29834       1.60406482    
 -0.758352995      -1.13495600     -0.606999993       2978.29834       1.60406482    
 -0.522363007      -1.26109600     -0.606999993       2978.29834       1.60406482    
 -0.718334973      -1.73421395     -0.606999993       2978.29834       1.60406482    
  -1.04286098      -1.56075203     -0.606999993       3275.52710      0.284077644    
  -1.44430494      -2.16155505     -0.517000020       3275.52710      0.284077644    
  -1.83825099      -1.83825099     -0.517000020       3275.52710      0.284077644    
  -1.32730997      -1.32730997     -0.606999993       3275.52710      0.284077644    
  -1.32730997      -1.32730997     -0.606999993       2978.85938       1.07260311    
 -0.965201020     -0.965201020     -0.606999993       2978.85938       1.07260311    
 -0.758352995      -1.13495600     -0.606999993       2978.85938       1.07260311    
  -1.04286098      -1.56075203     -0.606999993       2978.85938       1.07260311    
  -1.32730997      -1.32730997     -0.606999993       3276.17114     -0.340164751    
  -1.83825099      -1.83825099     -0.517000020       3276.17114     -0.340164751    
  -2.16155505      -1.44430494     -0.517000020       3276.17114     -0.340164751    
  -1.56075203      -1.04286098     -0.606999993       3276.17114     -0.340164751    
  -1.56075203      -1.04286098     -0.606999993       2978.94800      0.620750189    
  -1.13495600     -0.758352995     -0.606999993       2978.94800      0.620750189    
 -0.965201020     -0.965201020     -0.606999993       2978.94800      0.620750189    
  -1.32730997      -1.32730997     -0.606999993       2978.94800      0.620750189    
  -1.56075203      -1.04286098     -0.606999993       3277.22485     -0.830414593    
  -2.16155505      -1.44430494     -0.517000020       3277.22485     -0.830414593    
  -2.40179110     -0.994853973     -0.517000020       3277.22485     -0.830414593    
  -1.73421395     -0.718334973     -0.606999993       3277.22485     -0.830414593    
  -1.73421395     -0.718334973     -0.606999993       2979.17505      0.265872121    
  -1.26109600     -0.522363007     -0.606999993       2979.17505      0.265872121    
  -1.13495600     -0.758352995     -0.606999993       2979.17505      0.265872121    
  -1.56075203      -1.04286098     -0.606999993       2979.17505      0.265872121    
  -1.73421395     -0.718334973     -0.606999993       3278.35791      -1.16813898    
  -2.40179110     -0.994853973     -0.517000020       3278.35791      -1.16813898    
  -2.54972792     -0.507171988     -0.517000020       3278.35791      -1.16813898    
  -1.84103203     -0.366203994     -0.606999993       3278.35791      -1.16813898    
  -1.84103203     -0.366203994     -0.606999993       2979.07690       2.13944390E-02
  -1.33877206     -0.266297996     -0.606999993       2979.07690       2.13944390E-02
  -1.26109600     -0.522363007     -0.606999993       2979.07690       2.13944390E-02
  -1.73421395     -0.718334973     -0.606999993       2979.07690       2.13944390E-02
  -1.84103203     -0.366203994     -0.606999993       3278.86426      -1.34055340    
  -2.54972792     -0.507171988     -0.517000020       3278.86426      -1.34055340    
  -2.59967995       0.00000000     -0.517000020       3278.86426      -1.34055340    
  -1.87709999       0.00000000     -0.606999993       3278.86426      -1.34055340    
  -1.87709999       0.00000000     -0.606999993       2978.35352     -0.103196517    
  -1.36500001       0.00000000     -0.606999993       2978.35352     -0.103196517    
  -1.33877206     -0.266297996     -0.606999993       2978.35352     -0.103196517    
  -1.84103203     -0.366203994     -0.606999993       2978.35352     -0.103196517    
  -1.87709999       0.00000000     -0.606999993       3278.89233      -1.34052956    
  -2.59967995       0.00000000     -0.517000020       3278.89233      -1.34052956    
  -2.54972792      0.507171988     -0.517000020       3278.89233      -1.34052956    
  -1.84103203      0.366203994     -0.606999993       3278.89233      -1.34052956    
  -1.84103203      0.366203994     -0.606999993       2978.22095     -0.103137888    
  -1.33877206      0.266297996     -0.606999993       2978.22095     -0.103137888    
  -1.36500001       0.00000000     -0.606999993       2978.22095     -0.103137888    
  -1.87709999       0.00000000     -0.606999993       2978.22095     -0.103137888    
  -1.84103203      0.366203994     -0.606999993       3278.38818      -1.16809773    
  -2.54972792      0.507171988     -0.517000020       3278.38818      -1.16809773    
  -2.40179110      0.994853973     -0.517000020       3278.38818      -1.16809773    
  -1.73421395      0.718334973     -0.606999993       3278.38818      -1.16809773    
  -1.73421395      0.718334973     -0.606999993       2978.86328       2.14415174E-02
  -1.26109600      0.522363007     -0.606999993       2978.86328       2.14415174E-02
  -1.33877206      0.266297996     -0.606999993       2978.86328       2.14415174E-02
  -1.84103203      0.366203994     -0.606999993       2978.86328       2.14415174E-02
  -1.73421395      0.718334973     -0.606999993       3277.25366     -0.830377877    
  -2.40179110      0.994853973     -0.517000020       3277.25366     -0.830377877    
  -2.16155505       1.44430494     -0.517000020       3277.25366     -0.830377877    
  -1.56075203       1.04286098     -0.606999993       3277.25366     -0.830377877    
  -1.56075203       1.04286098     -0.606999993       2979.20776      0.265753269    
  -1.13495600      0.758352995     -0.606999993       2979.20776      0.265753269    
  -1.26109600      0.522363007     -0.606999993       2979.20776      0.265753269    
  -1.73421395      0.718334973     -0.606999993       2979.20776      0.265753269    
  -1.56075203       1.04286098     -0.606999993       3276.21265     -0.340150207    
  -2.16155505       1.44430494     -0.517000020       3276.21265     -0.340150207    
  -1.83825099       1.83825099     -0.517000020       3276.21265     -0.340150207    
  -1.32730997       1.32730997     -0.606999993       3276.21265     -0.340150207    
  -1.32730997       1.32730997     -0.606999993       2979.34692      0.620689452    
 -0.965201020      0.965201020     -0.606999993       2979.34692      0.620689452    
  -1.13495600      0.758352995     -0.606999993       2979.34692      0.620689452    
  -1.56075203       1.04286098     -0.606999993       2979.34692      0.620689452    
  -1.32730997       1.32730997     -0.606999993       3275.47778      0.284068495    
  -1.83825099       1.83825099     -0.517000020       3275.47778      0.284068495    
  -1.44430494       2.16155505     -0.517000020       3275.47778      0.284068495    
  -1.04286098       1.56075203     -0.606999993       3275.47778      0.284068495    
  -1.04286098       1.56075203     -0.606999993       2978.85498       1.07268131    
 -0.758352995       1.13495600     -0.606999993       2978.85498       1.07268131    
 -0.965201020      0.965201020     -0.606999993       2978.85498       1.07268131    
  -1.32730997       1.32730997     -0.606999993       2978.85498       1.07268131    
  -1.04286098       1.56075203     -0.606999993       3274.89551       1.01816094    
  -1.44430494       2.16155505     -0.517000020       3274.89551       1.01816094    
 -0.994853973       2.40179110     -0.517000020       3274.89551       1.01816094    
 -0.718334973       1.73421395     -0.606999993       3274.89551       1.01816094    
 -0.718334973       1.73421395     -0.606999993       2977.79810       1.60412765    
 -0.522363007       1.26109600     -0.606999993       2977.79810       1.60412765    
 -0.758352995       1.13495600     -0.606999993       2977.79810       1.60412765    
  -1.04286098       1.56075203     -0.606999993       2977.79810       1.60412765    
 -0.718334973       1.73421395     -0.606999993       3274.90918       1.83395636    
 -0.994853973       2.40179110     -0.517000020       3274.90918       1.83395636    
 -0.507171988       2.54972792     -0.517000020       3274.90918       1.83395636    
 -0.366203994       1.84103203     -0.606999993       3274.90918       1.83395636    
 -0.366203994       1.84103203     -0.606999993       2977.98755       2.19478631    
 -0.266297996       1.33877206     -0.606999993       2977.98755       2.19478631    
 -0.522363007       1.26109600     -0.606999993       2977.98755       2.19478631    
 -0.718334973       1.73421395     -0.606999993       2977.98755       2.19478631    
 -0.366203994       1.84103203     -0.606999993       3275.49609       2.70001316    
 -0.507171988       2.54972792     -0.517000020       3275.49609       2.70001316    
   0.00000000       2.59967995     -0.517000020       3275.49609       2.70001316    
   0.00000000       1.87709999     -0.606999993       3275.49609       2.70001316    
   0.00000000       1.87709999     -0.606999993       2978.64380       2.82193160    
   0.00000000       1.36500001     -0.606999993       2978.64380       2.82193160    
 -0.266297996       1.33877206     -0.606999993       2978.64380       2.82193160    
 -0.366203994       1.84103203     -0.606999993       2978.64380       2.82193160    
   0.00000000       1.87709999     -0.606999993       3275.80908      -2.70022011    
   0.00000000       2.59967995     -0.517000020       3275.80908      -2.70022011    
  0.507171988       2.54972792     -0.517000020       3275.80908      -2.70022011    
  0.366203994       1.84103203     -0.606999993       3275.80908      -2.70022011    
  0.366203994       1.84103203     -0.606999993       2978.87183      -2.82199454    
  0.266297996       1.33877206     -0.606999993       2978.87183      -2.82199454    
   0.00000000       1.36500001     -0.606999993       2978.87183      -2.82199454    
   0.00000000       1.87709999     -0.606999993       2978.87183      -2.82199454    
  0.366203994       1.84103203     -0.606999993       3275.19263      -1.83426523    
  0.507171988       2.54972792     -0.517000020       3275.19263      -1.83426523    
  0.994853973       2.40179110     -0.517000020       3275.19263      -1.83426523    
  0.718334973       1.73421395     -0.606999993       3275.19263      -1.83426523    
  0.718334973       1.73421395     -0.606999993       2978.90430      -2.19519281    
  0.522363007       1.26109600     -0.606999993       2978.90430      -2.19519281    
  0.266297996       1.33877206     -0.606999993       2978.90430      -2.19519281    
  0.366203994       1.84103203     -0.606999993       2978.90430      -2.19519281    
  0.718334973       1.73421395     -0.606999993       3274.64136      -1.01828969    
  0.994853973       2.40179110     -0.517000020       3274.64136      -1.01828969    
   1.44430494       2.16155505     -0.517000020       3274.64136      -1.01828969    
   1.04286098       1.56075203     -0.606999993       3274.64136      -1.01828969    
   1.04286098       1.56075203     -0.606999993       2978.79980      -1.60458231    
  0.758352995       1.13495600     -0.606999993       2978.79980      -1.60458231    
  0.522363007       1.26109600     -0.606999993       2978.79980      -1.60458231    
  0.718334973       1.73421395     -0.606999993       2978.79980      -1.60458231    
   1.04286098       1.56075203     -0.606999993       3274.48853     -0.283864290    
   1.44430494       2.16155505     -0.517000020       3274.48853     -0.283864290    
   1.83825099       1.83825099     -0.517000020       3274.48853     -0.283864290    
   1.32730997       1.32730997     -0.606999993       3274.48853     -0.283864290    
   1.32730997       1.32730997     -0.606999993       2978.26831      -1.07297838    
  0.965201020      0.965201020     -0.606999993       2978.26831      -1.07297838    
  0.758352995       1.13495600     -0.606999993       2978.26831      -1.07297838    
   1.04286098       1.56075203     -0.606999993       2978.26831      -1.07297838    
   1.32730997       1.32730997     -0.606999993       3274.79126      0.340577155    
   1.83825099       1.83825099     -0.517000020       3274.79126      0.340577155    
   2.16155505       1.44430494     -0.517000020       3274.79126      0.340577155    
   1.56075203       1.04286098     -0.606999993       3274.79126      0.340577155    
   1.56075203       1.04286098     -0.606999993       2978.63892     -0.621060133    
   1.13495600      0.758352995     -0.606999993       2978.63892     -0.621060133    
  0.965201020      0.965201020     -0.606999993       2978.63892     -0.621060133    
   1.32730997       1.32730997     -0.606999993       2978.63892     -0.621060133    
   1.56075203       1.04286098     -0.606999993       3274.97437      0.830973327    
   2.16155505       1.44430494     -0.517000020       3274.97437      0.830973327    
   2.40179110      0.994853973     -0.517000020       3274.97437      0.830973327    
   1.73421395      0.718334973     -0.606999993       3274.97437      0.830973327    
   1.73421395      0.718334973     -0.606999993       2979.26392     -0.266086906    
   1.26109600      0.522363007     -0.606999993       2979.26392     -0.266086906    
   1.13495600      0.758352995     -0.606999993       2979.26392     -0.266086906    
   1.56075203       1.04286098     -0.606999993       2979.26392     -0.266086906    
   1.73421395      0.718334973     -0.606999993       3275.09863       1.16892159    
   2.40179110      0.994853973     -0.517000020       3275.09863       1.16892159    
   2.54972792      0.507171988     -0.517000020       3275.09863       1.16892159    
   1.84103203      0.366203994     -0.606999993       3275.09863       1.16892159    
   1.84103203      0.366203994     -0.606999993       2979.24902      -2.14254260E-02
   1.33877206      0.266297996     -0.606999993       2979.24902      -2.14254260E-02
   1.26109600      0.522363007     -0.606999993       2979.24902      -2.14254260E-02
   1.73421395      0.718334973     -0.606999993       2979.24902      -2.14254260E-02
   1.84103203      0.366203994     -0.606999993       3274.60840       1.34111977    
   2.54972792      0.507171988     -0.517000020       3274.60840       1.34111977    
   2.59967995       0.00000000     -0.517000020       3274.60840       1.34111977    
   1.87709999       0.00000000     -0.606999993       3274.60840       1.34111977    
   1.87709999       0.00000000     -0.606999993       2979.18848      0.102975011    
   1.36500001       0.00000000     -0.606999993       2979.18848      0.102975011    
   1.33877206      0.266297996     -0.606999993       2979.18848      0.102975011    
   1.84103203      0.366203994     -0.606999993       2979.18848      0.102975011    
   1.87709999       0.00000000     -0.606999993       3274.62988       1.34112334    
   2.59967995       0.00000000     -0.517000020       3274.62988       1.34112334    
   2.54972792     -0.507171988     -0.517000020       3274.62988       1.34112334    
   1.84103203     -0.366203994     -0.606999993       3274.62988       1.34112334    
   1.84103203     -0.366203994     -0.606999993       2979.13037      0.103125200    
   1.33877206     -0.266297996     -0.606999993       2979.13037      0.103125200    
   1.36500001       0.00000000     -0.606999993       2979.13037      0.103125200    
   1.87709999       0.00000000     -0.606999993       2979.13037      0.103125200    
   1.84103203     -0.366203994     -0.606999993       3275.04883       1.16893589    
   2.54972792     -0.507171988     -0.517000020       3275.04883       1.16893589    
   2.40179110     -0.994853973     -0.517000020       3275.04883       1.16893589    
   1.73421395     -0.718334973     -0.606999993       3275.04883       1.16893589    
   1.73421395     -0.718334973     -0.606999993       2979.11646      -2.14340594E-02
   1.26109600     -0.522363007     -0.606999993       2979.11646      -2.14340594E-02
   1.33877206     -0.266297996     -0.606999993       2979.11646      -2.14340594E-02
   1.84103203     -0.366203994     -0.606999993       2979.11646      -2.14340594E-02
   1.73421395     -0.718334973     -0.606999993       3274.84570      0.830979347    
   2.40179110     -0.994853973     -0.517000020       3274.84570      0.830979347    
   2.16155505      -1.44430494     -0.517000020       3274.84570      0.830979347    
   1.56075203      -1.04286098     -0.606999993       3274.84570      0.830979347    
   1.56075203      -1.04286098     -0.606999993       2978.74414     -0.266076684    
   1.13495600     -0.758352995     -0.606999993       2978.74414     -0.266076684    
   1.26109600     -0.522363007     -0.606999993       2978.74414     -0.266076684    