 VARIABLES="X" "Y" "Z" "abs(p) (Pa)" "angle(p) (rad)"
ZONE N=   2709,E =    2358, F=FEPOINT, ET=QUADRILATERAL
   0.00000000      -5.48999977     -0.157000005       434.809662      -1.60666823    
   0.00000000      -4.76741982     -0.246999994       434.809662      -1.60666823    
  0.930077016      -4.67581606     -0.246999994       434.809662      -1.60666823    
   1.07104599      -5.38451099     -0.157000005       434.809662      -1.60666823    
  -1.07104599      -5.38451099     -0.157000005       443.077271       1.52990437    
 -0.930077016      -4.67581606     -0.246999994       443.077271       1.52990437    
   0.00000000      -4.76741982     -0.246999994       443.077271       1.52990437    
   0.00000000      -5.48999977     -0.157000005       443.077271       1.52990437    
  -2.10093188      -5.07209921     -0.157000005       1320.99451       1.53728437    
  -1.82441294      -4.40452194     -0.246999994       1320.99451       1.53728437    
 -0.930077016      -4.67581606     -0.246999994       1320.99451       1.53728437    
  -1.07104599      -5.38451099     -0.157000005       1320.99451       1.53728437    
  -3.05008101      -4.56476784     -0.157000005       2106.74878       1.54097736    
  -2.64863706      -3.96396494     -0.246999994       2106.74878       1.54097736    
  -1.82441294      -4.40452194     -0.246999994       2106.74878       1.54097736    
  -2.10093188      -5.07209921     -0.157000005       2106.74878       1.54097736    
  -3.88201594      -3.88201594     -0.157000005       2841.76831       1.54509223    
  -3.37107491      -3.37107491     -0.246999994       2841.76831       1.54509223    
  -2.64863706      -3.96396494     -0.246999994       2841.76831       1.54509223    
  -3.05008101      -4.56476784     -0.157000005       2841.76831       1.54509223    
  -4.56476784      -3.05008101     -0.157000005       3526.12695       1.54749942    
  -3.96396494      -2.64863706     -0.246999994       3526.12695       1.54749942    
  -3.37107491      -3.37107491     -0.246999994       3526.12695       1.54749942    
  -3.88201594      -3.88201594     -0.157000005       3526.12695       1.54749942    
  -5.07209921      -2.10093188     -0.157000005       3962.85229       1.54483771    
  -4.40452194      -1.82441294     -0.246999994       3962.85229       1.54483771    
  -3.96396494      -2.64863706     -0.246999994       3962.85229       1.54483771    
  -4.56476784      -3.05008101     -0.157000005       3962.85229       1.54483771    
  -5.38451099      -1.07104599     -0.157000005       4291.95752       1.54098415    
  -4.67581606     -0.930077016     -0.246999994       4291.95752       1.54098415    
  -4.40452194      -1.82441294     -0.246999994       4291.95752       1.54098415    
  -5.07209921      -2.10093188     -0.157000005       4291.95752       1.54098415    
  -5.48999977       0.00000000     -0.157000005       4537.01758       1.53855288    
  -4.76741982       0.00000000     -0.246999994       4537.01758       1.53855288    
  -4.67581606     -0.930077016     -0.246999994       4537.01758       1.53855288    
  -5.38451099      -1.07104599     -0.157000005       4537.01758       1.53855288    
  -5.38451099       1.07104599     -0.157000005       4549.54932       1.53651249    
  -4.67581606      0.930077016     -0.246999994       4549.54932       1.53651249    
  -4.76741982       0.00000000     -0.246999994       4549.54932       1.53651249    
  -5.48999977       0.00000000     -0.157000005       4549.54932       1.53651249    
  -5.07209921       2.10093188     -0.157000005       4380.30273       1.53639185    
  -4.40452194       1.82441294     -0.246999994       4380.30273       1.53639185    
  -4.67581606      0.930077016     -0.246999994       4380.30273       1.53639185    
  -5.38451099       1.07104599     -0.157000005       4380.30273       1.53639185    
  -4.56476784       3.05008101     -0.157000005       4036.00708       1.53762031    
  -3.96396494       2.64863706     -0.246999994       4036.00708       1.53762031    
  -4.40452194       1.82441294     -0.246999994       4036.00708       1.53762031    
  -5.07209921       2.10093188     -0.157000005       4036.00708       1.53762031    
  -3.88201594       3.88201594     -0.157000005       3484.84766       1.53776097    
  -3.37107491       3.37107491     -0.246999994       3484.84766       1.53776097    
  -3.96396494       2.64863706     -0.246999994       3484.84766       1.53776097    
  -4.56476784       3.05008101     -0.157000005       3484.84766       1.53776097    
  -3.05008101       4.56476784     -0.157000005       2892.69287       1.53918386    
  -2.64863706       3.96396494     -0.246999994       2892.69287       1.53918386    
  -3.37107491       3.37107491     -0.246999994       2892.69287       1.53918386    
  -3.88201594       3.88201594     -0.157000005       2892.69287       1.53918386    
  -2.10093188       5.07209921     -0.157000005       2117.68115       1.53689504    
  -1.82441294       4.40452194     -0.246999994       2117.68115       1.53689504    
  -2.64863706       3.96396494     -0.246999994       2117.68115       1.53689504    
  -3.05008101       4.56476784     -0.157000005       2117.68115       1.53689504    
  -1.07104599       5.38451099     -0.157000005       1315.44214       1.53595424    
 -0.930077016       4.67581606     -0.246999994       1315.44214       1.53595424    
  -1.82441294       4.40452194     -0.246999994       1315.44214       1.53595424    
  -2.10093188       5.07209921     -0.157000005       1315.44214       1.53595424    
   0.00000000       5.48999977     -0.157000005       435.920807       1.53229952    
   0.00000000       4.76741982     -0.246999994       435.920807       1.53229952    
 -0.930077016       4.67581606     -0.246999994       435.920807       1.53229952    
  -1.07104599       5.38451099     -0.157000005       435.920807       1.53229952    
   1.07104599       5.38451099     -0.157000005       449.775330      -1.60310805    
  0.930077016       4.67581606     -0.246999994       449.775330      -1.60310805    
   0.00000000       4.76741982     -0.246999994       449.775330      -1.60310805    
   0.00000000       5.48999977     -0.157000005       449.775330      -1.60310805    
   2.10093188       5.07209921     -0.157000005       1297.21606      -1.60361528    
   1.82441294       4.40452194     -0.246999994       1297.21606      -1.60361528    
  0.930077016       4.67581606     -0.246999994       1297.21606      -1.60361528    
   1.07104599       5.38451099     -0.157000005       1297.21606      -1.60361528    
   3.05008101       4.56476784     -0.157000005       2107.62354      -1.60009551    
   2.64863706       3.96396494     -0.246999994       2107.62354      -1.60009551    
   1.82441294       4.40452194     -0.246999994       2107.62354      -1.60009551    
   2.10093188       5.07209921     -0.157000005       2107.62354      -1.60009551    
   3.88201594       3.88201594     -0.157000005       2892.17871      -1.59593570    
   3.37107491       3.37107491     -0.246999994       2892.17871      -1.59593570    
   2.64863706       3.96396494     -0.246999994       2892.17871      -1.59593570    
   3.05008101       4.56476784     -0.157000005       2892.17871      -1.59593570    
   4.56476784       3.05008101     -0.157000005       3512.51562      -1.59534287    
   3.96396494       2.64863706     -0.246999994       3512.51562      -1.59534287    
   3.37107491       3.37107491     -0.246999994       3512.51562      -1.59534287    
   3.88201594       3.88201594     -0.157000005       3512.51562      -1.59534287    
   5.07209921       2.10093188     -0.157000005       4025.68774      -1.59632766    
   4.40452194       1.82441294     -0.246999994       4025.68774      -1.59632766    
   3.96396494       2.64863706     -0.246999994       4025.68774      -1.59632766    
   4.56476784       3.05008101     -0.157000005       4025.68774      -1.59632766    
   5.38451099       1.07104599     -0.157000005       4286.27734      -1.60014141    
   4.67581606      0.930077016     -0.246999994       4286.27734      -1.60014141    
   4.40452194       1.82441294     -0.246999994       4286.27734      -1.60014141    
   5.07209921       2.10093188     -0.157000005       4286.27734      -1.60014141    
   5.48999977       0.00000000     -0.157000005       4447.61328      -1.60245299    
   4.76741982       0.00000000     -0.246999994       4447.61328      -1.60245299    
   4.67581606      0.930077016     -0.246999994       4447.61328      -1.60245299    
   5.38451099       1.07104599     -0.157000005       4447.61328      -1.60245299    
   5.38451099      -1.07104599     -0.157000005       4452.53711      -1.60324562    
   4.67581606     -0.930077016     -0.246999994       4452.53711      -1.60324562    
   4.76741982       0.00000000     -0.246999994       4452.53711      -1.60324562    
   5.48999977       0.00000000     -0.157000005       4452.53711      -1.60324562    
   5.07209921      -2.10093188     -0.157000005       4287.23096      -1.60285676    
   4.40452194      -1.82441294     -0.246999994       4287.23096      -1.60285676    
   4.67581606     -0.930077016     -0.246999994       4287.23096      -1.60285676    
   5.38451099      -1.07104599     -0.157000005       4287.23096      -1.60285676    
   4.56476784      -3.05008101     -0.157000005       3953.51465      -1.60229564    
   3.96396494      -2.64863706     -0.246999994       3953.51465      -1.60229564    
   4.40452194      -1.82441294     -0.246999994       3953.51465      -1.60229564    
   5.07209921      -2.10093188     -0.157000005       3953.51465      -1.60229564    
   3.88201594      -3.88201594     -0.157000005       3467.05542      -1.60253263    
   3.37107491      -3.37107491     -0.246999994       3467.05542      -1.60253263    
   3.96396494      -2.64863706     -0.246999994       3467.05542      -1.60253263    
   4.56476784      -3.05008101     -0.157000005       3467.05542      -1.60253263    
   3.05008101      -4.56476784     -0.157000005       2885.30737      -1.60281813    
   2.64863706      -3.96396494     -0.246999994       2885.30737      -1.60281813    
   3.37107491      -3.37107491     -0.246999994       2885.30737      -1.60281813    
   3.88201594      -3.88201594     -0.157000005       2885.30737      -1.60281813    
   2.10093188      -5.07209921     -0.157000005       2114.03833      -1.60631037    
   1.82441294      -4.40452194     -0.246999994       2114.03833      -1.60631037    
   2.64863706      -3.96396494     -0.246999994       2114.03833      -1.60631037    
   3.05008101      -4.56476784     -0.157000005       2114.03833      -1.60631037    
   1.07104599      -5.38451099     -0.157000005       1297.02295      -1.60828471    
  0.930077016      -4.67581606     -0.246999994       1297.02295      -1.60828471    
   1.82441294      -4.40452194     -0.246999994       1297.02295      -1.60828471    
   2.10093188      -5.07209921     -0.157000005       1297.02295      -1.60828471    
   0.00000000      -1.87709999     -0.606999993       409.289978      -1.57884181    
   0.00000000      -1.36500001     -0.606999993       409.289978      -1.57884181    
  0.266297996      -1.33877206     -0.606999993       409.289978      -1.57884181    
  0.366203994      -1.84103203     -0.606999993       409.289978      -1.57884181    
   0.00000000      -1.87709999     -0.606999993       373.347992       1.56863642    
   0.00000000      -2.59967995     -0.517000020       373.347992       1.56863642    
 -0.507171988      -2.54972792     -0.517000020       373.347992       1.56863642    
 -0.366203994      -1.84103203     -0.606999993       373.347992       1.56863642    
 -0.366203994      -1.84103203     -0.606999993       386.956268       1.57093132    
 -0.266297996      -1.33877206     -0.606999993       386.956268       1.57093132    
   0.00000000      -1.36500001     -0.606999993       386.956268       1.57093132    
   0.00000000      -1.87709999     -0.606999993       386.956268       1.57093132    
 -0.366203994      -1.84103203     -0.606999993       1115.76807       1.56685841    
 -0.507171988      -2.54972792     -0.517000020       1115.76807       1.56685841    
 -0.994853973      -2.40179110     -0.517000020       1115.76807       1.56685841    
 -0.718334973      -1.73421395     -0.606999993       1115.76807       1.56685841    
 -0.718334973      -1.73421395     -0.606999993       1169.60474       1.56799722    
 -0.522363007      -1.26109600     -0.606999993       1169.60474       1.56799722    
 -0.266297996      -1.33877206     -0.606999993       1169.60474       1.56799722    
 -0.366203994      -1.84103203     -0.606999993       1169.60474       1.56799722    
 -0.718334973      -1.73421395     -0.606999993       1814.16089       1.56657887    
 -0.994853973      -2.40179110     -0.517000020       1814.16089       1.56657887    
  -1.44430494      -2.16155505     -0.517000020       1814.16089       1.56657887    
  -1.04286098      -1.56075203     -0.606999993       1814.16089       1.56657887    
  -1.04286098      -1.56075203     -0.606999993       1910.45227       1.56738257    
 -0.758352995      -1.13495600     -0.606999993       1910.45227       1.56738257    
 -0.522363007      -1.26109600     -0.606999993       1910.45227       1.56738257    
 -0.718334973      -1.73421395     -0.606999993       1910.45227       1.56738257    
  -1.04286098      -1.56075203     -0.606999993       2448.39307       1.56644917    
  -1.44430494      -2.16155505     -0.517000020       2448.39307       1.56644917    
  -1.83825099      -1.83825099     -0.517000020       2448.39307       1.56644917    
  -1.32730997      -1.32730997     -0.606999993       2448.39307       1.56644917    
  -1.32730997      -1.32730997     -0.606999993       2583.50464       1.56706750    
 -0.965201020     -0.965201020     -0.606999993       2583.50464       1.56706750    
 -0.758352995      -1.13495600     -0.606999993       2583.50464       1.56706750    
  -1.04286098      -1.56075203     -0.606999993       2583.50464       1.56706750    
  -1.32730997      -1.32730997     -0.606999993       2997.64502       1.56631720    
  -1.83825099      -1.83825099     -0.517000020       2997.64502       1.56631720    
  -2.16155505      -1.44430494     -0.517000020       2997.64502       1.56631720    
  -1.56075203      -1.04286098     -0.606999993       2997.64502       1.56631720    
  -1.56075203      -1.04286098     -0.606999993       3163.49902       1.56683528    
  -1.13495600     -0.758352995     -0.606999993       3163.49902       1.56683528    
 -0.965201020     -0.965201020     -0.606999993       3163.49902       1.56683528    
  -1.32730997      -1.32730997     -0.606999993       3163.49902       1.56683528    
  -1.56075203      -1.04286098     -0.606999993       3433.34497       1.56613719    
  -2.16155505      -1.44430494     -0.517000020       3433.34497       1.56613719    
  -2.40179110     -0.994853973     -0.517000020       3433.34497       1.56613719    
  -1.73421395     -0.718334973     -0.606999993       3433.34497       1.56613719    
  -1.73421395     -0.718334973     -0.606999993       3624.32642       1.56663084    
  -1.26109600     -0.522363007     -0.606999993       3624.32642       1.56663084    
  -1.13495600     -0.758352995     -0.606999993       3624.32642       1.56663084    
  -1.56075203      -1.04286098     -0.606999993       3624.32642       1.56663084    
  -1.73421395     -0.718334973     -0.606999993       3729.17505       1.56593585    
  -2.40179110     -0.994853973     -0.517000020       3729.17505       1.56593585    
  -2.54972792     -0.507171988     -0.517000020       3729.17505       1.56593585    
  -1.84103203     -0.366203994     -0.606999993       3729.17505       1.56593585    
  -1.84103203     -0.366203994     -0.606999993       3943.33862       1.56643736    
  -1.33877206     -0.266297996     -0.606999993       3943.33862       1.56643736    
  -1.26109600     -0.522363007     -0.606999993       3943.33862       1.56643736    
  -1.73421395     -0.718334973     -0.606999993       3943.33862       1.56643736    
  -1.84103203     -0.366203994     -0.606999993       3876.86841       1.56574380    
  -2.54972792     -0.507171988     -0.517000020       3876.86841       1.56574380    
  -2.59967995       0.00000000     -0.517000020       3876.86841       1.56574380    
  -1.87709999       0.00000000     -0.606999993       3876.86841       1.56574380    
  -1.87709999       0.00000000     -0.606999993       4108.52832       1.56628549    
  -1.36500001       0.00000000     -0.606999993       4108.52832       1.56628549    
  -1.33877206     -0.266297996     -0.606999993       4108.52832       1.56628549    
  -1.84103203     -0.366203994     -0.606999993       4108.52832       1.56628549    
  -1.87709999       0.00000000     -0.606999993       3880.87891       1.56561315    
  -2.59967995       0.00000000     -0.517000020       3880.87891       1.56561315    
  -2.54972792      0.507171988     -0.517000020       3880.87891       1.56561315    
  -1.84103203      0.366203994     -0.606999993       3880.87891       1.56561315    
  -1.84103203      0.366203994     -0.606999993       4116.82764       1.56617618    
  -1.33877206      0.266297996     -0.606999993       4116.82764       1.56617618    
  -1.36500001       0.00000000     -0.606999993       4116.82764       1.56617618    
  -1.87709999       0.00000000     -0.606999993       4116.82764       1.56617618    
  -1.84103203      0.366203994     -0.606999993       3742.41553       1.56554186    
  -2.54972792      0.507171988     -0.517000020       3742.41553       1.56554186    
  -2.40179110      0.994853973     -0.517000020       3742.41553       1.56554186    
  -1.73421395      0.718334973     -0.606999993       3742.41553       1.56554186    
  -1.73421395      0.718334973     -0.606999993       3968.05078       1.56612778    
  -1.26109600      0.522363007     -0.606999993       3968.05078       1.56612778    
  -1.33877206      0.266297996     -0.606999993       3968.05078       1.56612778    
  -1.84103203      0.366203994     -0.606999993       3968.05078       1.56612778    
  -1.73421395      0.718334973     -0.606999993       3456.90625       1.56553376    
  -2.40179110      0.994853973     -0.517000020       3456.90625       1.56553376    
  -2.16155505       1.44430494     -0.517000020       3456.90625       1.56553376    
  -1.56075203       1.04286098     -0.606999993       3456.90625       1.56553376    
  -1.56075203       1.04286098     -0.606999993       3663.75854       1.56612396    
  -1.13495600      0.758352995     -0.606999993       3663.75854       1.56612396    
  -1.26109600      0.522363007     -0.606999993       3663.75854       1.56612396    
  -1.73421395      0.718334973     -0.606999993       3663.75854       1.56612396    
  -1.56075203       1.04286098     -0.606999993       3027.94238       1.56555867    
  -2.16155505       1.44430494     -0.517000020       3027.94238       1.56555867    
  -1.83825099       1.83825099     -0.517000020       3027.94238       1.56555867    
  -1.32730997       1.32730997     -0.606999993       3027.94238       1.56555867    
  -1.32730997       1.32730997     -0.606999993       3212.58350       1.56616354    
 -0.965201020      0.965201020     -0.606999993       3212.58350       1.56616354    
  -1.13495600      0.758352995     -0.606999993       3212.58350       1.56616354    
  -1.56075203       1.04286098     -0.606999993       3212.58350       1.56616354    
  -1.32730997       1.32730997     -0.606999993       2478.60571       1.56554806    
  -1.83825099       1.83825099     -0.517000020       2478.60571       1.56554806    
  -1.44430494       2.16155505     -0.517000020       2478.60571       1.56554806    
  -1.04286098       1.56075203     -0.606999993       2478.60571       1.56554806    
  -1.04286098       1.56075203     -0.606999993       2634.35840       1.56621981    
 -0.758352995       1.13495600     -0.606999993       2634.35840       1.56621981    
 -0.965201020      0.965201020     -0.606999993       2634.35840       1.56621981    
  -1.32730997       1.32730997     -0.606999993       2634.35840       1.56621981    
  -1.04286098       1.56075203     -0.606999993       1839.40454       1.56550276    
  -1.44430494       2.16155505     -0.517000020       1839.40454       1.56550276    
 -0.994853973       2.40179110     -0.517000020       1839.40454       1.56550276    
 -0.718334973       1.73421395     -0.606999993       1839.40454       1.56550276    
 -0.718334973       1.73421395     -0.606999993       1955.21936       1.56629562    
 -0.522363007       1.26109600     -0.606999993       1955.21936       1.56629562    
 -0.758352995       1.13495600     -0.606999993       1955.21936       1.56629562    
  -1.04286098       1.56075203     -0.606999993       1955.21936       1.56629562    
 -0.718334973       1.73421395     -0.606999993       1133.80347       1.56538177    
 -0.994853973       2.40179110     -0.517000020       1133.80347       1.56538177    
 -0.507171988       2.54972792     -0.517000020       1133.80347       1.56538177    
 -0.366203994       1.84103203     -0.606999993       1133.80347       1.56538177    
 -0.366203994       1.84103203     -0.606999993       1202.50879       1.56640649    
 -0.266297996       1.33877206     -0.606999993       1202.50879       1.56640649    
 -0.522363007       1.26109600     -0.606999993       1202.50879       1.56640649    
 -0.718334973       1.73421395     -0.606999993       1202.50879       1.56640649    
 -0.366203994       1.84103203     -0.606999993       383.351379       1.56475341    
 -0.507171988       2.54972792     -0.517000020       383.351379       1.56475341    
   0.00000000       2.59967995     -0.517000020       383.351379       1.56475341    
   0.00000000       1.87709999     -0.606999993       383.351379       1.56475341    
   0.00000000       1.87709999     -0.606999993       403.798737       1.56661975    
   0.00000000       1.36500001     -0.606999993       403.798737       1.56661975    
 -0.266297996       1.33877206     -0.606999993       403.798737       1.56661975    
 -0.366203994       1.84103203     -0.606999993       403.798737       1.56661975    
   0.00000000       1.87709999     -0.606999993       383.417572      -1.57467711    
   0.00000000       2.59967995     -0.517000020       383.417572      -1.57467711    
  0.507171988       2.54972792     -0.517000020       383.417572      -1.57467711    
  0.366203994       1.84103203     -0.606999993       383.417572      -1.57467711    
  0.366203994       1.84103203     -0.606999993       409.950195      -1.57514167    
  0.266297996       1.33877206     -0.606999993       409.950195      -1.57514167    
   0.00000000       1.36500001     -0.606999993       409.950195      -1.57514167    
   0.00000000       1.87709999     -0.606999993       409.950195      -1.57514167    
  0.366203994       1.84103203     -0.606999993       1133.00134      -1.57518613    
  0.507171988       2.54972792     -0.517000020       1133.00134      -1.57518613    
  0.994853973       2.40179110     -0.517000020       1133.00134      -1.57518613    
  0.718334973       1.73421395     -0.606999993       1133.00134      -1.57518613    
  0.718334973       1.73421395     -0.606999993       1206.47400      -1.57488716    
  0.522363007       1.26109600     -0.606999993       1206.47400      -1.57488716    
  0.266297996       1.33877206     -0.606999993       1206.47400      -1.57488716    
  0.366203994       1.84103203     -0.606999993       1206.47400      -1.57488716    
  0.718334973       1.73421395     -0.606999993       1836.90845      -1.57515585    
  0.994853973       2.40179110     -0.517000020       1836.90845      -1.57515585    
   1.44430494       2.16155505     -0.517000020       1836.90845      -1.57515585    
   1.04286098       1.56075203     -0.606999993       1836.90845      -1.57515585    
   1.04286098       1.56075203     -0.606999993       1955.69421      -1.57470405    
  0.758352995       1.13495600     -0.606999993       1955.69421      -1.57470405    
  0.522363007       1.26109600     -0.606999993       1955.69421      -1.57470405    
  0.718334973       1.73421395     -0.606999993       1955.69421      -1.57470405    
   1.04286098       1.56075203     -0.606999993       2474.00171      -1.57509243    
   1.44430494       2.16155505     -0.517000020       2474.00171      -1.57509243    
   1.83825099       1.83825099     -0.517000020       2474.00171      -1.57509243    
   1.32730997       1.32730997     -0.606999993       2474.00171      -1.57509243    
   1.32730997       1.32730997     -0.606999993       2630.00049      -1.57456625    
  0.965201020      0.965201020     -0.606999993       2630.00049      -1.57456625    
  0.758352995       1.13495600     -0.606999993       2630.00049      -1.57456625    
   1.04286098       1.56075203     -0.606999993       2630.00049      -1.57456625    
   1.32730997       1.32730997     -0.606999993       3020.96948      -1.57507789    
   1.83825099       1.83825099     -0.517000020       3020.96948      -1.57507789    
   2.16155505       1.44430494     -0.517000020       3020.96948      -1.57507789    
   1.56075203       1.04286098     -0.606999993       3020.96948      -1.57507789    
   1.56075203       1.04286098     -0.606999993       3203.00000      -1.57448363    
   1.13495600      0.758352995     -0.606999993       3203.00000      -1.57448363    
  0.965201020      0.965201020     -0.606999993       3203.00000      -1.57448363    
   1.32730997       1.32730997     -0.606999993       3203.00000      -1.57448363    
   1.56075203       1.04286098     -0.606999993       3447.58423      -1.57512629    
   2.16155505       1.44430494     -0.517000020       3447.58423      -1.57512629    
   2.40179110      0.994853973     -0.517000020       3447.58423      -1.57512629    
   1.73421395      0.718334973     -0.606999993       3447.58423      -1.57512629    
   1.73421395      0.718334973     -0.606999993       3648.79907      -1.57445073    
   1.26109600      0.522363007     -0.606999993       3648.79907      -1.57445073    
   1.13495600      0.758352995     -0.606999993       3648.79907      -1.57445073    
   1.56075203       1.04286098     -0.606999993       3648.79907      -1.57445073    
   1.73421395      0.718334973     -0.606999993       3731.35522      -1.57521713    
   2.40179110      0.994853973     -0.517000020       3731.35522      -1.57521713    
   2.54972792      0.507171988     -0.517000020       3731.35522      -1.57521713    
   1.84103203      0.366203994     -0.606999993       3731.35522      -1.57521713    
   1.84103203      0.366203994     -0.606999993       3948.89673      -1.57445443    
   1.33877206      0.266297996     -0.606999993       3948.89673      -1.57445443    
   1.26109600      0.522363007     -0.606999993       3948.89673      -1.57445443    
   1.73421395      0.718334973     -0.606999993       3948.89673      -1.57445443    
   1.84103203      0.366203994     -0.606999993       3869.27856      -1.57531607    
   2.54972792      0.507171988     -0.517000020       3869.27856      -1.57531607    
   2.59967995       0.00000000     -0.517000020       3869.27856      -1.57531607    
   1.87709999       0.00000000     -0.606999993       3869.27856      -1.57531607    
   1.87709999       0.00000000     -0.606999993       4095.86963      -1.57448339    
   1.36500001       0.00000000     -0.606999993       4095.86963      -1.57448339    
   1.33877206      0.266297996     -0.606999993       4095.86963      -1.57448339    
   1.84103203      0.366203994     -0.606999993       4095.86963      -1.57448339    
   1.87709999       0.00000000     -0.606999993       3866.22729      -1.57538438    
   2.59967995       0.00000000     -0.517000020       3866.22729      -1.57538438    
   2.54972792     -0.507171988     -0.517000020       3866.22729      -1.57538438    
   1.84103203     -0.366203994     -0.606999993       3866.22729      -1.57538438    
   1.84103203     -0.366203994     -0.606999993       4088.45605      -1.57453001    
   1.33877206     -0.266297996     -0.606999993       4088.45605      -1.57453001    
   1.36500001       0.00000000     -0.606999993       4088.45605      -1.57453001    
   1.87709999       0.00000000     -0.606999993       4088.45605      -1.57453001    
   1.84103203     -0.366203994     -0.606999993       3720.90088      -1.57544470    
   2.54972792     -0.507171988     -0.517000020       3720.90088      -1.57544470    
   2.40179110     -0.994853973     -0.517000020       3720.90088      -1.57544470    
   1.73421395     -0.718334973     -0.606999993       3720.90088      -1.57544470    
   1.73421395     -0.718334973     -0.606999993       3927.04810      -1.57458997    
   1.26109600     -0.522363007     -0.606999993       3927.04810      -1.57458997    
   1.33877206     -0.266297996     -0.606999993       3927.04810      -1.57458997    
   1.84103203     -0.366203994     -0.606999993       3927.04810      -1.57458997    
   1.73421395     -0.718334973     -0.606999993       3428.58862      -1.57550514    
   2.40179110     -0.994853973     -0.517000020       3428.58862      -1.57550514    
   2.16155505      -1.44430494     -0.517000020       3428.58862      -1.57550514    
   1.56075203      -1.04286098     -0.606999993       3428.58862      -1.57550514    
   1.56075203      -1.04286098     -0.606999993       3614.24512      -1.57468724    
   1.13495600     -0.758352995     -0.606999993       3614.24512      -1.57468724    
   1.26109600     -0.522363007     -0.606999993       3614.24512      -1.57468724    