 VARIABLES="X" "Y" "Z" "abs(p) (Pa)" "angle(p) (rad)"
ZONE N=   2709,E =    2358, F=FEPOINT, ET=QUADRILATERAL
   0.00000000      -5.48999977     -0.157000005       4522.57715      -1.32219517    
   0.00000000      -4.76741982     -0.246999994       4522.57715      -1.32219517    
  0.930077016      -4.67581606     -0.246999994       4522.57715      -1.32219517    
   1.07104599      -5.38451099     -0.157000005       4522.57715      -1.32219517    
  -1.07104599      -5.38451099     -0.157000005       4525.57178      -1.32246482    
 -0.930077016      -4.67581606     -0.246999994       4525.57178      -1.32246482    
   0.00000000      -4.76741982     -0.246999994       4525.57178      -1.32246482    
   0.00000000      -5.48999977     -0.157000005       4525.57178      -1.32246482    
  -2.10093188      -5.07209921     -0.157000005       4379.48975      -1.32523596    
  -1.82441294      -4.40452194     -0.246999994       4379.48975      -1.32523596    
 -0.930077016      -4.67581606     -0.246999994       4379.48975      -1.32523596    
  -1.07104599      -5.38451099     -0.157000005       4379.48975      -1.32523596    
  -3.05008101      -4.56476784     -0.157000005       4012.71387      -1.32273626    
  -2.64863706      -3.96396494     -0.246999994       4012.71387      -1.32273626    
  -1.82441294      -4.40452194     -0.246999994       4012.71387      -1.32273626    
  -2.10093188      -5.07209921     -0.157000005       4012.71387      -1.32273626    
  -3.88201594      -3.88201594     -0.157000005       3518.45312      -1.32282245    
  -3.37107491      -3.37107491     -0.246999994       3518.45312      -1.32282245    
  -2.64863706      -3.96396494     -0.246999994       3518.45312      -1.32282245    
  -3.05008101      -4.56476784     -0.157000005       3518.45312      -1.32282245    
  -4.56476784      -3.05008101     -0.157000005       2913.39502      -1.32663524    
  -3.96396494      -2.64863706     -0.246999994       2913.39502      -1.32663524    
  -3.37107491      -3.37107491     -0.246999994       2913.39502      -1.32663524    
  -3.88201594      -3.88201594     -0.157000005       2913.39502      -1.32663524    
  -5.07209921      -2.10093188     -0.157000005       2149.24634      -1.32379878    
  -4.40452194      -1.82441294     -0.246999994       2149.24634      -1.32379878    
  -3.96396494      -2.64863706     -0.246999994       2149.24634      -1.32379878    
  -4.56476784      -3.05008101     -0.157000005       2149.24634      -1.32379878    
  -5.38451099      -1.07104599     -0.157000005       1318.08972      -1.32282293    
  -4.67581606     -0.930077016     -0.246999994       1318.08972      -1.32282293    
  -4.40452194      -1.82441294     -0.246999994       1318.08972      -1.32282293    
  -5.07209921      -2.10093188     -0.157000005       1318.08972      -1.32282293    
  -5.48999977       0.00000000     -0.157000005       442.672729      -1.32420790    
  -4.76741982       0.00000000     -0.246999994       442.672729      -1.32420790    
  -4.67581606     -0.930077016     -0.246999994       442.672729      -1.32420790    
  -5.38451099      -1.07104599     -0.157000005       442.672729      -1.32420790    
  -5.38451099       1.07104599     -0.157000005       456.374908       1.81478834    
  -4.67581606      0.930077016     -0.246999994       456.374908       1.81478834    
  -4.76741982       0.00000000     -0.246999994       456.374908       1.81478834    
  -5.48999977       0.00000000     -0.157000005       456.374908       1.81478834    
  -5.07209921       2.10093188     -0.157000005       1339.09277       1.81552029    
  -4.40452194       1.82441294     -0.246999994       1339.09277       1.81552029    
  -4.67581606      0.930077016     -0.246999994       1339.09277       1.81552029    
  -5.38451099       1.07104599     -0.157000005       1339.09277       1.81552029    
  -4.56476784       3.05008101     -0.157000005       2168.74390       1.81622064    
  -3.96396494       2.64863706     -0.246999994       2168.74390       1.81622064    
  -4.40452194       1.82441294     -0.246999994       2168.74390       1.81622064    
  -5.07209921       2.10093188     -0.157000005       2168.74390       1.81622064    
  -3.88201594       3.88201594     -0.157000005       2897.84814       1.81913292    
  -3.37107491       3.37107491     -0.246999994       2897.84814       1.81913292    
  -3.96396494       2.64863706     -0.246999994       2897.84814       1.81913292    
  -4.56476784       3.05008101     -0.157000005       2897.84814       1.81913292    
  -3.05008101       4.56476784     -0.157000005       3548.54541       1.81682658    
  -2.64863706       3.96396494     -0.246999994       3548.54541       1.81682658    
  -3.37107491       3.37107491     -0.246999994       3548.54541       1.81682658    
  -3.88201594       3.88201594     -0.157000005       3548.54541       1.81682658    
  -2.10093188       5.07209921     -0.157000005       4023.46313       1.81933439    
  -1.82441294       4.40452194     -0.246999994       4023.46313       1.81933439    
  -2.64863706       3.96396494     -0.246999994       4023.46313       1.81933439    
  -3.05008101       4.56476784     -0.157000005       4023.46313       1.81933439    
  -1.07104599       5.38451099     -0.157000005       4388.54980       1.81704068    
 -0.930077016       4.67581606     -0.246999994       4388.54980       1.81704068    
  -1.82441294       4.40452194     -0.246999994       4388.54980       1.81704068    
  -2.10093188       5.07209921     -0.157000005       4388.54980       1.81704068    
   0.00000000       5.48999977     -0.157000005       4538.15088       1.81951022    
   0.00000000       4.76741982     -0.246999994       4538.15088       1.81951022    
 -0.930077016       4.67581606     -0.246999994       4538.15088       1.81951022    
  -1.07104599       5.38451099     -0.157000005       4538.15088       1.81951022    
   1.07104599       5.38451099     -0.157000005       4562.05566       1.81725514    
  0.930077016       4.67581606     -0.246999994       4562.05566       1.81725514    
   0.00000000       4.76741982     -0.246999994       4562.05566       1.81725514    
   0.00000000       5.48999977     -0.157000005       4562.05566       1.81725514    
   2.10093188       5.07209921     -0.157000005       4360.34033       1.81992078    
   1.82441294       4.40452194     -0.246999994       4360.34033       1.81992078    
  0.930077016       4.67581606     -0.246999994       4360.34033       1.81992078    
   1.07104599       5.38451099     -0.157000005       4360.34033       1.81992078    
   3.05008101       4.56476784     -0.157000005       4018.06592       1.82006371    
   2.64863706       3.96396494     -0.246999994       4018.06592       1.82006371    
   1.82441294       4.40452194     -0.246999994       4018.06592       1.82006371    
   2.10093188       5.07209921     -0.157000005       4018.06592       1.82006371    
   3.88201594       3.88201594     -0.157000005       3549.19409       1.81694126    
   3.37107491       3.37107491     -0.246999994       3549.19409       1.81694126    
   2.64863706       3.96396494     -0.246999994       3549.19409       1.81694126    
   3.05008101       4.56476784     -0.157000005       3549.19409       1.81694126    
   4.56476784       3.05008101     -0.157000005       2913.34155       1.81714225    
   3.96396494       2.64863706     -0.246999994       2913.34155       1.81714225    
   3.37107491       3.37107491     -0.246999994       2913.34155       1.81714225    
   3.88201594       3.88201594     -0.157000005       2913.34155       1.81714225    
   5.07209921       2.10093188     -0.157000005       2169.68652       1.81646729    
   4.40452194       1.82441294     -0.246999994       2169.68652       1.81646729    
   3.96396494       2.64863706     -0.246999994       2169.68652       1.81646729    
   4.56476784       3.05008101     -0.157000005       2169.68652       1.81646729    
   5.38451099       1.07104599     -0.157000005       1325.70898       1.82061231    
   4.67581606      0.930077016     -0.246999994       1325.70898       1.82061231    
   4.40452194       1.82441294     -0.246999994       1325.70898       1.82061231    
   5.07209921       2.10093188     -0.157000005       1325.70898       1.82061231    
   5.48999977       0.00000000     -0.157000005       446.346985       1.82663476    
   4.76741982       0.00000000     -0.246999994       446.346985       1.82663476    
   4.67581606      0.930077016     -0.246999994       446.346985       1.82663476    
   5.38451099       1.07104599     -0.157000005       446.346985       1.82663476    
   5.38451099      -1.07104599     -0.157000005       446.120392      -1.32964754    
   4.67581606     -0.930077016     -0.246999994       446.120392      -1.32964754    
   4.76741982       0.00000000     -0.246999994       446.120392      -1.32964754    
   5.48999977       0.00000000     -0.157000005       446.120392      -1.32964754    
   5.07209921      -2.10093188     -0.157000005       1321.10803      -1.32454407    
   4.40452194      -1.82441294     -0.246999994       1321.10803      -1.32454407    
   4.67581606     -0.930077016     -0.246999994       1321.10803      -1.32454407    
   5.38451099      -1.07104599     -0.157000005       1321.10803      -1.32454407    
   4.56476784      -3.05008101     -0.157000005       2145.48828      -1.32347107    
   3.96396494      -2.64863706     -0.246999994       2145.48828      -1.32347107    
   4.40452194      -1.82441294     -0.246999994       2145.48828      -1.32347107    
   5.07209921      -2.10093188     -0.157000005       2145.48828      -1.32347107    
   3.88201594      -3.88201594     -0.157000005       2889.36230      -1.32336640    
   3.37107491      -3.37107491     -0.246999994       2889.36230      -1.32336640    
   3.96396494      -2.64863706     -0.246999994       2889.36230      -1.32336640    
   4.56476784      -3.05008101     -0.157000005       2889.36230      -1.32336640    
   3.05008101      -4.56476784     -0.157000005       3541.39551      -1.32580388    
   2.64863706      -3.96396494     -0.246999994       3541.39551      -1.32580388    
   3.37107491      -3.37107491     -0.246999994       3541.39551      -1.32580388    
   3.88201594      -3.88201594     -0.157000005       3541.39551      -1.32580388    
   2.10093188      -5.07209921     -0.157000005       4012.56494      -1.32282817    
   1.82441294      -4.40452194     -0.246999994       4012.56494      -1.32282817    
   2.64863706      -3.96396494     -0.246999994       4012.56494      -1.32282817    
   3.05008101      -4.56476784     -0.157000005       4012.56494      -1.32282817    
   1.07104599      -5.38451099     -0.157000005       4349.23779      -1.32229304    
  0.930077016      -4.67581606     -0.246999994       4349.23779      -1.32229304    
   1.82441294      -4.40452194     -0.246999994       4349.23779      -1.32229304    
   2.10093188      -5.07209921     -0.157000005       4349.23779      -1.32229304    
   0.00000000      -1.87709999     -0.606999993       2852.56763      -1.47735035    
   0.00000000      -1.36500001     -0.606999993       2852.56763      -1.47735035    
  0.266297996      -1.33877206     -0.606999993       2852.56763      -1.47735035    
  0.366203994      -1.84103203     -0.606999993       2852.56763      -1.47735035    
   0.00000000      -1.87709999     -0.606999993       3654.01709      -1.46365643    
   0.00000000      -2.59967995     -0.517000020       3654.01709      -1.46365643    
 -0.507171988      -2.54972792     -0.517000020       3654.01709      -1.46365643    
 -0.366203994      -1.84103203     -0.606999993       3654.01709      -1.46365643    
 -0.366203994      -1.84103203     -0.606999993       2854.39600      -1.47732353    
 -0.266297996      -1.33877206     -0.606999993       2854.39600      -1.47732353    
   0.00000000      -1.36500001     -0.606999993       2854.39600      -1.47732353    
   0.00000000      -1.87709999     -0.606999993       2854.39600      -1.47732353    
 -0.366203994      -1.84103203     -0.606999993       3505.62671      -1.46319616    
 -0.507171988      -2.54972792     -0.517000020       3505.62671      -1.46319616    
 -0.994853973      -2.40179110     -0.517000020       3505.62671      -1.46319616    
 -0.718334973      -1.73421395     -0.606999993       3505.62671      -1.46319616    
 -0.718334973      -1.73421395     -0.606999993       2742.99585      -1.47691321    
 -0.522363007      -1.26109600     -0.606999993       2742.99585      -1.47691321    
 -0.266297996      -1.33877206     -0.606999993       2742.99585      -1.47691321    
 -0.366203994      -1.84103203     -0.606999993       2742.99585      -1.47691321    
 -0.718334973      -1.73421395     -0.606999993       3225.16577      -1.46255553    
 -0.994853973      -2.40179110     -0.517000020       3225.16577      -1.46255553    
  -1.44430494      -2.16155505     -0.517000020       3225.16577      -1.46255553    
  -1.04286098      -1.56075203     -0.606999993       3225.16577      -1.46255553    
  -1.04286098      -1.56075203     -0.606999993       2527.01025      -1.47634685    
 -0.758352995      -1.13495600     -0.606999993       2527.01025      -1.47634685    
 -0.522363007      -1.26109600     -0.606999993       2527.01025      -1.47634685    
 -0.718334973      -1.73421395     -0.606999993       2527.01025      -1.47634685    
  -1.04286098      -1.56075203     -0.606999993       2829.50708      -1.46213305    
  -1.44430494      -2.16155505     -0.517000020       2829.50708      -1.46213305    
  -1.83825099      -1.83825099     -0.517000020       2829.50708      -1.46213305    
  -1.32730997      -1.32730997     -0.606999993       2829.50708      -1.46213305    
  -1.32730997      -1.32730997     -0.606999993       2217.19946      -1.47593081    
 -0.965201020     -0.965201020     -0.606999993       2217.19946      -1.47593081    
 -0.758352995      -1.13495600     -0.606999993       2217.19946      -1.47593081    
  -1.04286098      -1.56075203     -0.606999993       2217.19946      -1.47593081    
  -1.32730997      -1.32730997     -0.606999993       2328.45874      -1.46224284    
  -1.83825099      -1.83825099     -0.517000020       2328.45874      -1.46224284    
  -2.16155505      -1.44430494     -0.517000020       2328.45874      -1.46224284    
  -1.56075203      -1.04286098     -0.606999993       2328.45874      -1.46224284    
  -1.56075203      -1.04286098     -0.606999993       1823.44202      -1.47591102    
  -1.13495600     -0.758352995     -0.606999993       1823.44202      -1.47591102    
 -0.965201020     -0.965201020     -0.606999993       1823.44202      -1.47591102    
  -1.32730997      -1.32730997     -0.606999993       1823.44202      -1.47591102    
  -1.56075203      -1.04286098     -0.606999993       1732.95068      -1.46301603    
  -2.16155505      -1.44430494     -0.517000020       1732.95068      -1.46301603    
  -2.40179110     -0.994853973     -0.517000020       1732.95068      -1.46301603    
  -1.73421395     -0.718334973     -0.606999993       1732.95068      -1.46301603    
  -1.73421395     -0.718334973     -0.606999993       1357.23621      -1.47634721    
  -1.26109600     -0.522363007     -0.606999993       1357.23621      -1.47634721    
  -1.13495600     -0.758352995     -0.606999993       1357.23621      -1.47634721    
  -1.56075203      -1.04286098     -0.606999993       1357.23621      -1.47634721    
  -1.73421395     -0.718334973     -0.606999993       1064.93274      -1.46416080    
  -2.40179110     -0.994853973     -0.517000020       1064.93274      -1.46416080    
  -2.54972792     -0.507171988     -0.517000020       1064.93274      -1.46416080    
  -1.84103203     -0.366203994     -0.606999993       1064.93274      -1.46416080    
  -1.84103203     -0.366203994     -0.606999993       835.686401      -1.47697353    
  -1.33877206     -0.266297996     -0.606999993       835.686401      -1.47697353    
  -1.26109600     -0.522363007     -0.606999993       835.686401      -1.47697353    
  -1.73421395     -0.718334973     -0.606999993       835.686401      -1.47697353    
  -1.84103203     -0.366203994     -0.606999993       356.073059      -1.46555877    
  -2.54972792     -0.507171988     -0.517000020       356.073059      -1.46555877    
  -2.59967995       0.00000000     -0.517000020       356.073059      -1.46555877    
  -1.87709999       0.00000000     -0.606999993       356.073059      -1.46555877    
  -1.87709999       0.00000000     -0.606999993       280.855042      -1.47713268    
  -1.36500001       0.00000000     -0.606999993       280.855042      -1.47713268    
  -1.33877206     -0.266297996     -0.606999993       280.855042      -1.47713268    
  -1.84103203     -0.366203994     -0.606999993       280.855042      -1.47713268    
  -1.87709999       0.00000000     -0.606999993       364.359650       1.67726445    
  -2.59967995       0.00000000     -0.517000020       364.359650       1.67726445    
  -2.54972792      0.507171988     -0.517000020       364.359650       1.67726445    
  -1.84103203      0.366203994     -0.606999993       364.359650       1.67726445    
  -1.84103203      0.366203994     -0.606999993       284.698242       1.66295910    
  -1.33877206      0.266297996     -0.606999993       284.698242       1.66295910    
  -1.36500001       0.00000000     -0.606999993       284.698242       1.66295910    
  -1.87709999       0.00000000     -0.606999993       284.698242       1.66295910    
  -1.84103203      0.366203994     -0.606999993       1072.85767       1.67736292    
  -2.54972792      0.507171988     -0.517000020       1072.85767       1.67736292    
  -2.40179110      0.994853973     -0.517000020       1072.85767       1.67736292    
  -1.73421395      0.718334973     -0.606999993       1072.85767       1.67736292    
  -1.73421395      0.718334973     -0.606999993       839.572327       1.66372955    
  -1.26109600      0.522363007     -0.606999993       839.572327       1.66372955    
  -1.33877206      0.266297996     -0.606999993       839.572327       1.66372955    
  -1.84103203      0.366203994     -0.606999993       839.572327       1.66372955    
  -1.73421395      0.718334973     -0.606999993       1742.04260       1.67823851    
  -2.40179110      0.994853973     -0.517000020       1742.04260       1.67823851    
  -2.16155505       1.44430494     -0.517000020       1742.04260       1.67823851    
  -1.56075203       1.04286098     -0.606999993       1742.04260       1.67823851    
  -1.56075203       1.04286098     -0.606999993       1361.93433       1.66442335    
  -1.13495600      0.758352995     -0.606999993       1361.93433       1.66442335    
  -1.26109600      0.522363007     -0.606999993       1361.93433       1.66442335    
  -1.73421395      0.718334973     -0.606999993       1361.93433       1.66442335    
  -1.56075203       1.04286098     -0.606999993       2340.00073       1.67909825    
  -2.16155505       1.44430494     -0.517000020       2340.00073       1.67909825    
  -1.83825099       1.83825099     -0.517000020       2340.00073       1.67909825    
  -1.32730997       1.32730997     -0.606999993       2340.00073       1.67909825    
  -1.32730997       1.32730997     -0.606999993       1830.00012       1.66501570    
 -0.965201020      0.965201020     -0.606999993       1830.00012       1.66501570    
  -1.13495600      0.758352995     -0.606999993       1830.00012       1.66501570    
  -1.56075203       1.04286098     -0.606999993       1830.00012       1.66501570    
  -1.32730997       1.32730997     -0.606999993       2842.87061       1.67942941    
  -1.83825099       1.83825099     -0.517000020       2842.87061       1.67942941    
  -1.44430494       2.16155505     -0.517000020       2842.87061       1.67942941    
  -1.04286098       1.56075203     -0.606999993       2842.87061       1.67942941    
  -1.04286098       1.56075203     -0.606999993       2226.14478       1.66524243    
 -0.758352995       1.13495600     -0.606999993       2226.14478       1.66524243    
 -0.965201020      0.965201020     -0.606999993       2226.14478       1.66524243    
  -1.32730997       1.32730997     -0.606999993       2226.14478       1.66524243    
  -1.04286098       1.56075203     -0.606999993       3239.15967       1.67919707    
  -1.44430494       2.16155505     -0.517000020       3239.15967       1.67919707    
 -0.994853973       2.40179110     -0.517000020       3239.15967       1.67919707    
 -0.718334973       1.73421395     -0.606999993       3239.15967       1.67919707    
 -0.718334973       1.73421395     -0.606999993       2538.30249       1.66506457    
 -0.522363007       1.26109600     -0.606999993       2538.30249       1.66506457    
 -0.758352995       1.13495600     -0.606999993       2538.30249       1.66506457    
  -1.04286098       1.56075203     -0.606999993       2538.30249       1.66506457    
 -0.718334973       1.73421395     -0.606999993       3519.72290       1.67866731    
 -0.994853973       2.40179110     -0.517000020       3519.72290       1.67866731    
 -0.507171988       2.54972792     -0.517000020       3519.72290       1.67866731    
 -0.366203994       1.84103203     -0.606999993       3519.72290       1.67866731    
 -0.366203994       1.84103203     -0.606999993       2756.55127       1.66468132    
 -0.266297996       1.33877206     -0.606999993       2756.55127       1.66468132    
 -0.522363007       1.26109600     -0.606999993       2756.55127       1.66468132    
 -0.718334973       1.73421395     -0.606999993       2756.55127       1.66468132    
 -0.366203994       1.84103203     -0.606999993       3668.59937       1.67825353    
 -0.507171988       2.54972792     -0.517000020       3668.59937       1.67825353    
   0.00000000       2.59967995     -0.517000020       3668.59937       1.67825353    
   0.00000000       1.87709999     -0.606999993       3668.59937       1.67825353    
   0.00000000       1.87709999     -0.606999993       2870.17456       1.66438687    
   0.00000000       1.36500001     -0.606999993       2870.17456       1.66438687    
 -0.266297996       1.33877206     -0.606999993       2870.17456       1.66438687    
 -0.366203994       1.84103203     -0.606999993       2870.17456       1.66438687    
   0.00000000       1.87709999     -0.606999993       3668.75146       1.67826200    
   0.00000000       2.59967995     -0.517000020       3668.75146       1.67826200    
  0.507171988       2.54972792     -0.517000020       3668.75146       1.67826200    
  0.366203994       1.84103203     -0.606999993       3668.75146       1.67826200    
  0.366203994       1.84103203     -0.606999993       2870.66919       1.66440499    
  0.266297996       1.33877206     -0.606999993       2870.66919       1.66440499    
   0.00000000       1.36500001     -0.606999993       2870.66919       1.66440499    
   0.00000000       1.87709999     -0.606999993       2870.66919       1.66440499    
  0.366203994       1.84103203     -0.606999993       3520.28613       1.67869055    
  0.507171988       2.54972792     -0.517000020       3520.28613       1.67869055    
  0.994853973       2.40179110     -0.517000020       3520.28613       1.67869055    
  0.718334973       1.73421395     -0.606999993       3520.28613       1.67869055    
  0.718334973       1.73421395     -0.606999993       2758.09961       1.66473031    
  0.522363007       1.26109600     -0.606999993       2758.09961       1.66473031    
  0.266297996       1.33877206     -0.606999993       2758.09961       1.66473031    
  0.366203994       1.84103203     -0.606999993       2758.09961       1.66473031    
  0.718334973       1.73421395     -0.606999993       3240.17041       1.67923295    
  0.994853973       2.40179110     -0.517000020       3240.17041       1.67923295    
   1.44430494       2.16155505     -0.517000020       3240.17041       1.67923295    
   1.04286098       1.56075203     -0.606999993       3240.17041       1.67923295    
   1.04286098       1.56075203     -0.606999993       2541.14062       1.66514599    
  0.758352995       1.13495600     -0.606999993       2541.14062       1.66514599    
  0.522363007       1.26109600     -0.606999993       2541.14062       1.66514599    
  0.718334973       1.73421395     -0.606999993       2541.14062       1.66514599    
   1.04286098       1.56075203     -0.606999993       2844.47998       1.67947638    
   1.44430494       2.16155505     -0.517000020       2844.47998       1.67947638    
   1.83825099       1.83825099     -0.517000020       2844.47998       1.67947638    
   1.32730997       1.32730997     -0.606999993       2844.47998       1.67947638    
   1.32730997       1.32730997     -0.606999993       2230.32617       1.66535997    
  0.965201020      0.965201020     -0.606999993       2230.32617       1.66535997    
  0.758352995       1.13495600     -0.606999993       2230.32617       1.66535997    
   1.04286098       1.56075203     -0.606999993       2230.32617       1.66535997    
   1.32730997       1.32730997     -0.606999993       2342.20801       1.67917049    
   1.83825099       1.83825099     -0.517000020       2342.20801       1.67917049    
   2.16155505       1.44430494     -0.517000020       2342.20801       1.67917049    
   1.56075203       1.04286098     -0.606999993       2342.20801       1.67917049    
   1.56075203       1.04286098     -0.606999993       1835.65967       1.66520464    
   1.13495600      0.758352995     -0.606999993       1835.65967       1.66520464    
  0.965201020      0.965201020     -0.606999993       1835.65967       1.66520464    
   1.32730997       1.32730997     -0.606999993       1835.65967       1.66520464    
   1.56075203       1.04286098     -0.606999993       1744.89404       1.67836380    
   2.16155505       1.44430494     -0.517000020       1744.89404       1.67836380    
   2.40179110      0.994853973     -0.517000020       1744.89404       1.67836380    
   1.73421395      0.718334973     -0.606999993       1744.89404       1.67836380    
   1.73421395      0.718334973     -0.606999993       1369.17310       1.66474450    
   1.26109600      0.522363007     -0.606999993       1369.17310       1.66474450    
   1.13495600      0.758352995     -0.606999993       1369.17310       1.66474450    
   1.56075203       1.04286098     -0.606999993       1369.17310       1.66474450    
   1.73421395      0.718334973     -0.606999993       1076.27136       1.67761660    
   2.40179110      0.994853973     -0.517000020       1076.27136       1.67761660    
   2.54972792      0.507171988     -0.517000020       1076.27136       1.67761660    
   1.84103203      0.366203994     -0.606999993       1076.27136       1.67761660    
   1.84103203      0.366203994     -0.606999993       848.270142       1.66435242    
   1.33877206      0.266297996     -0.606999993       848.270142       1.66435242    
   1.26109600      0.522363007     -0.606999993       848.270142       1.66435242    
   1.73421395      0.718334973     -0.606999993       848.270142       1.66435242    
   1.84103203      0.366203994     -0.606999993       368.336121       1.67810428    
   2.54972792      0.507171988     -0.517000020       368.336121       1.67810428    
   2.59967995       0.00000000     -0.517000020       368.336121       1.67810428    
   1.87709999       0.00000000     -0.606999993       368.336121       1.67810428    
   1.87709999       0.00000000     -0.606999993       294.648804       1.66497612    
   1.36500001       0.00000000     -0.606999993       294.648804       1.66497612    
   1.33877206      0.266297996     -0.606999993       294.648804       1.66497612    
   1.84103203      0.366203994     -0.606999993       294.648804       1.66497612    
   1.87709999       0.00000000     -0.606999993       351.551147      -1.46643305    
   2.59967995       0.00000000     -0.517000020       351.551147      -1.46643305    
   2.54972792     -0.507171988     -0.517000020       351.551147      -1.46643305    
   1.84103203     -0.366203994     -0.606999993       351.551147      -1.46643305    
   1.84103203     -0.366203994     -0.606999993       269.815247      -1.47938800    
   1.33877206     -0.266297996     -0.606999993       269.815247      -1.47938800    
   1.36500001       0.00000000     -0.606999993       269.815247      -1.47938800    
   1.87709999       0.00000000     -0.606999993       269.815247      -1.47938800    
   1.84103203     -0.366203994     -0.606999993       1059.97070      -1.46441698    
   2.54972792     -0.507171988     -0.517000020       1059.97070      -1.46441698    
   2.40179110     -0.994853973     -0.517000020       1059.97070      -1.46441698    
   1.73421395     -0.718334973     -0.606999993       1059.97070      -1.46441698    
   1.73421395     -0.718334973     -0.606999993       823.894897      -1.47770739    
   1.26109600     -0.522363007     -0.606999993       823.894897      -1.47770739    
   1.33877206     -0.266297996     -0.606999993       823.894897      -1.47770739    
   1.84103203     -0.366203994     -0.606999993       823.894897      -1.47770739    
   1.73421395     -0.718334973     -0.606999993       1727.68945      -1.46313345    
   2.40179110     -0.994853973     -0.517000020       1727.68945      -1.46313345    
   2.16155505      -1.44430494     -0.517000020       1727.68945      -1.46313345    
   1.56075203      -1.04286098     -0.606999993       1727.68945      -1.46313345    
   1.56075203      -1.04286098     -0.606999993       1345.08948      -1.47678006    
   1.13495600     -0.758352995     -0.606999993       1345.08948      -1.47678006    
   1.26109600     -0.522363007     -0.606999993       1345.08948      -1.47678006    