 VARIABLES="X" "Y" "Z" "abs(p) (Pa)" "angle(p) (rad)"
ZONE N=   2709,E =    2358, F=FEPOINT, ET=QUADRILATERAL
   0.00000000      -5.48999977     -0.157000005       1046.88928       2.10851312    
   0.00000000      -4.76741982     -0.246999994       1046.88928       2.10851312    
  0.930077016      -4.67581606     -0.246999994       1046.88928       2.10851312    
   1.07104599      -5.38451099     -0.157000005       1046.88928       2.10851312    
  -1.07104599      -5.38451099     -0.157000005       1048.37317       2.10787272    
 -0.930077016      -4.67581606     -0.246999994       1048.37317       2.10787272    
   0.00000000      -4.76741982     -0.246999994       1048.37317       2.10787272    
   0.00000000      -5.48999977     -0.157000005       1048.37317       2.10787272    
  -2.10093188      -5.07209921     -0.157000005       1056.32959       2.09886479    
  -1.82441294      -4.40452194     -0.246999994       1056.32959       2.09886479    
 -0.930077016      -4.67581606     -0.246999994       1056.32959       2.09886479    
  -1.07104599      -5.38451099     -0.157000005       1056.32959       2.09886479    
  -3.05008101      -4.56476784     -0.157000005       1051.31201       2.10678864    
  -2.64863706      -3.96396494     -0.246999994       1051.31201       2.10678864    
  -1.82441294      -4.40452194     -0.246999994       1051.31201       2.10678864    
  -2.10093188      -5.07209921     -0.157000005       1051.31201       2.10678864    
  -3.88201594      -3.88201594     -0.157000005       1052.63000       2.10579395    
  -3.37107491      -3.37107491     -0.246999994       1052.63000       2.10579395    
  -2.64863706      -3.96396494     -0.246999994       1052.63000       2.10579395    
  -3.05008101      -4.56476784     -0.157000005       1052.63000       2.10579395    
  -4.56476784      -3.05008101     -0.157000005       1061.30566       2.09450698    
  -3.96396494      -2.64863706     -0.246999994       1061.30566       2.09450698    
  -3.37107491      -3.37107491     -0.246999994       1061.30566       2.09450698    
  -3.88201594      -3.88201594     -0.157000005       1061.30566       2.09450698    
  -5.07209921      -2.10093188     -0.157000005       1053.62988       2.10425496    
  -4.40452194      -1.82441294     -0.246999994       1053.62988       2.10425496    
  -3.96396494      -2.64863706     -0.246999994       1053.62988       2.10425496    
  -4.56476784      -3.05008101     -0.157000005       1053.62988       2.10425496    
  -5.38451099      -1.07104599     -0.157000005       1051.73877       2.10609865    
  -4.67581606     -0.930077016     -0.246999994       1051.73877       2.10609865    
  -4.40452194      -1.82441294     -0.246999994       1051.73877       2.10609865    
  -5.07209921      -2.10093188     -0.157000005       1051.73877       2.10609865    
  -5.48999977       0.00000000     -0.157000005       1057.85229       2.09688878    
  -4.76741982       0.00000000     -0.246999994       1057.85229       2.09688878    
  -4.67581606     -0.930077016     -0.246999994       1057.85229       2.09688878    
  -5.38451099      -1.07104599     -0.157000005       1057.85229       2.09688878    
  -5.38451099       1.07104599     -0.157000005       1057.72571       2.09563828    
  -4.67581606      0.930077016     -0.246999994       1057.72571       2.09563828    
  -4.76741982       0.00000000     -0.246999994       1057.72571       2.09563828    
  -5.48999977       0.00000000     -0.157000005       1057.72571       2.09563828    
  -5.07209921       2.10093188     -0.157000005       1056.71497       2.09550858    
  -4.40452194       1.82441294     -0.246999994       1056.71497       2.09550858    
  -4.67581606      0.930077016     -0.246999994       1056.71497       2.09550858    
  -5.38451099       1.07104599     -0.157000005       1056.71497       2.09550858    
  -4.56476784       3.05008101     -0.157000005       1055.29858       2.09618950    
  -3.96396494       2.64863706     -0.246999994       1055.29858       2.09618950    
  -4.40452194       1.82441294     -0.246999994       1055.29858       2.09618950    
  -5.07209921       2.10093188     -0.157000005       1055.29858       2.09618950    
  -3.88201594       3.88201594     -0.157000005       1048.30249       2.10478759    
  -3.37107491       3.37107491     -0.246999994       1048.30249       2.10478759    
  -3.96396494       2.64863706     -0.246999994       1048.30249       2.10478759    
  -4.56476784       3.05008101     -0.157000005       1048.30249       2.10478759    
  -3.05008101       4.56476784     -0.157000005       1054.17249       2.09701490    
  -2.64863706       3.96396494     -0.246999994       1054.17249       2.09701490    
  -3.37107491       3.37107491     -0.246999994       1054.17249       2.09701490    
  -3.88201594       3.88201594     -0.157000005       1054.17249       2.09701490    
  -2.10093188       5.07209921     -0.157000005       1048.53857       2.10480618    
  -1.82441294       4.40452194     -0.246999994       1048.53857       2.10480618    
  -2.64863706       3.96396494     -0.246999994       1048.53857       2.10480618    
  -3.05008101       4.56476784     -0.157000005       1048.53857       2.10480618    
  -1.07104599       5.38451099     -0.157000005       1054.64368       2.09761095    
 -0.930077016       4.67581606     -0.246999994       1054.64368       2.09761095    
  -1.82441294       4.40452194     -0.246999994       1054.64368       2.09761095    
  -2.10093188       5.07209921     -0.157000005       1054.64368       2.09761095    
   0.00000000       5.48999977     -0.157000005       1049.28296       2.10585809    
   0.00000000       4.76741982     -0.246999994       1049.28296       2.10585809    
 -0.930077016       4.67581606     -0.246999994       1049.28296       2.10585809    
  -1.07104599       5.38451099     -0.157000005       1049.28296       2.10585809    
   1.07104599       5.38451099     -0.157000005       1055.89795       2.09863997    
  0.930077016       4.67581606     -0.246999994       1055.89795       2.09863997    
   0.00000000       4.76741982     -0.246999994       1055.89795       2.09863997    
   0.00000000       5.48999977     -0.157000005       1055.89795       2.09863997    
   2.10093188       5.07209921     -0.157000005       1050.79504       2.10706854    
   1.82441294       4.40452194     -0.246999994       1050.79504       2.10706854    
  0.930077016       4.67581606     -0.246999994       1050.79504       2.10706854    
   1.07104599       5.38451099     -0.157000005       1050.79504       2.10706854    
   3.05008101       4.56476784     -0.157000005       1051.98706       2.10681248    
   2.64863706       3.96396494     -0.246999994       1051.98706       2.10681248    
   1.82441294       4.40452194     -0.246999994       1051.98706       2.10681248    
   2.10093188       5.07209921     -0.157000005       1051.98706       2.10681248    
   3.88201594       3.88201594     -0.157000005       1060.85437       2.09587383    
   3.37107491       3.37107491     -0.246999994       1060.85437       2.09587383    
   2.64863706       3.96396494     -0.246999994       1060.85437       2.09587383    
   3.05008101       4.56476784     -0.157000005       1060.85437       2.09587383    
   4.56476784       3.05008101     -0.157000005       1060.24231       2.09670067    
   3.96396494       2.64863706     -0.246999994       1060.24231       2.09670067    
   3.37107491       3.37107491     -0.246999994       1060.24231       2.09670067    
   3.88201594       3.88201594     -0.157000005       1060.24231       2.09670067    
   5.07209921       2.10093188     -0.157000005       1061.71484       2.09443045    
   4.40452194       1.82441294     -0.246999994       1061.71484       2.09443045    
   3.96396494       2.64863706     -0.246999994       1061.71484       2.09443045    
   4.56476784       3.05008101     -0.157000005       1061.71484       2.09443045    
   5.38451099       1.07104599     -0.157000005       1052.57166       2.10594702    
   4.67581606      0.930077016     -0.246999994       1052.57166       2.10594702    
   4.40452194       1.82441294     -0.246999994       1052.57166       2.10594702    
   5.07209921       2.10093188     -0.157000005       1052.57166       2.10594702    
   5.48999977       0.00000000     -0.157000005       1049.89111       2.10837913    
   4.76741982       0.00000000     -0.246999994       1049.89111       2.10837913    
   4.67581606      0.930077016     -0.246999994       1049.89111       2.10837913    
   5.38451099       1.07104599     -0.157000005       1049.89111       2.10837913    
   5.38451099      -1.07104599     -0.157000005       1048.46582       2.10876751    
   4.67581606     -0.930077016     -0.246999994       1048.46582       2.10876751    
   4.76741982       0.00000000     -0.246999994       1048.46582       2.10876751    
   5.48999977       0.00000000     -0.157000005       1048.46582       2.10876751    
   5.07209921      -2.10093188     -0.157000005       1047.31763       2.10868859    
   4.40452194      -1.82441294     -0.246999994       1047.31763       2.10868859    
   4.67581606     -0.930077016     -0.246999994       1047.31763       2.10868859    
   5.38451099      -1.07104599     -0.157000005       1047.31763       2.10868859    
   4.56476784      -3.05008101     -0.157000005       1046.61694       2.10831666    
   3.96396494      -2.64863706     -0.246999994       1046.61694       2.10831666    
   4.40452194      -1.82441294     -0.246999994       1046.61694       2.10831666    
   5.07209921      -2.10093188     -0.157000005       1046.61694       2.10831666    
   3.88201594      -3.88201594     -0.157000005       1047.00671       2.10700750    
   3.37107491      -3.37107491     -0.246999994       1047.00671       2.10700750    
   3.96396494      -2.64863706     -0.246999994       1047.00671       2.10700750    
   4.56476784      -3.05008101     -0.157000005       1047.00671       2.10700750    
   3.05008101      -4.56476784     -0.157000005       1053.68896       2.09789658    
   2.64863706      -3.96396494     -0.246999994       1053.68896       2.09789658    
   3.37107491      -3.37107491     -0.246999994       1053.68896       2.09789658    
   3.88201594      -3.88201594     -0.157000005       1053.68896       2.09789658    
   2.10093188      -5.07209921     -0.157000005       1047.27307       2.10648680    
   1.82441294      -4.40452194     -0.246999994       1047.27307       2.10648680    
   2.64863706      -3.96396494     -0.246999994       1047.27307       2.10648680    
   3.05008101      -4.56476784     -0.157000005       1047.27307       2.10648680    
   1.07104599      -5.38451099     -0.157000005       1046.52515       2.10806346    
  0.930077016      -4.67581606     -0.246999994       1046.52515       2.10806346    
   1.82441294      -4.40452194     -0.246999994       1046.52515       2.10806346    
   2.10093188      -5.07209921     -0.157000005       1046.52515       2.10806346    
   0.00000000      -1.87709999     -0.606999993       2446.65552       1.68556952    
   0.00000000      -1.36500001     -0.606999993       2446.65552       1.68556952    
  0.266297996      -1.33877206     -0.606999993       2446.65552       1.68556952    
  0.366203994      -1.84103203     -0.606999993       2446.65552       1.68556952    
   0.00000000      -1.87709999     -0.606999993       2135.45776       1.69058752    
   0.00000000      -2.59967995     -0.517000020       2135.45776       1.69058752    
 -0.507171988      -2.54972792     -0.517000020       2135.45776       1.69058752    
 -0.366203994      -1.84103203     -0.606999993       2135.45776       1.69058752    
 -0.366203994      -1.84103203     -0.606999993       2447.07861       1.68559182    
 -0.266297996      -1.33877206     -0.606999993       2447.07861       1.68559182    
   0.00000000      -1.36500001     -0.606999993       2447.07861       1.68559182    
   0.00000000      -1.87709999     -0.606999993       2447.07861       1.68559182    
 -0.366203994      -1.84103203     -0.606999993       2130.79712       1.69084835    
 -0.507171988      -2.54972792     -0.517000020       2130.79712       1.69084835    
 -0.994853973      -2.40179110     -0.517000020       2130.79712       1.69084835    
 -0.718334973      -1.73421395     -0.606999993       2130.79712       1.69084835    
 -0.718334973      -1.73421395     -0.606999993       2445.39233       1.68570423    
 -0.522363007      -1.26109600     -0.606999993       2445.39233       1.68570423    
 -0.266297996      -1.33877206     -0.606999993       2445.39233       1.68570423    
 -0.366203994      -1.84103203     -0.606999993       2445.39233       1.68570423    
 -0.718334973      -1.73421395     -0.606999993       2127.10327       1.69105291    
 -0.994853973      -2.40179110     -0.517000020       2127.10327       1.69105291    
  -1.44430494      -2.16155505     -0.517000020       2127.10327       1.69105291    
  -1.04286098      -1.56075203     -0.606999993       2127.10327       1.69105291    
  -1.04286098      -1.56075203     -0.606999993       2444.59277       1.68575418    
 -0.758352995      -1.13495600     -0.606999993       2444.59277       1.68575418    
 -0.522363007      -1.26109600     -0.606999993       2444.59277       1.68575418    
 -0.718334973      -1.73421395     -0.606999993       2444.59277       1.68575418    
  -1.04286098      -1.56075203     -0.606999993       2128.84351       1.69094622    
  -1.44430494      -2.16155505     -0.517000020       2128.84351       1.69094622    
  -1.83825099      -1.83825099     -0.517000020       2128.84351       1.69094622    
  -1.32730997      -1.32730997     -0.606999993       2128.84351       1.69094622    
  -1.32730997      -1.32730997     -0.606999993       2446.96802       1.68563735    
 -0.965201020     -0.965201020     -0.606999993       2446.96802       1.68563735    
 -0.758352995      -1.13495600     -0.606999993       2446.96802       1.68563735    
  -1.04286098      -1.56075203     -0.606999993       2446.96802       1.68563735    
  -1.32730997      -1.32730997     -0.606999993       2135.01636       1.69059920    
  -1.83825099      -1.83825099     -0.517000020       2135.01636       1.69059920    
  -2.16155505      -1.44430494     -0.517000020       2135.01636       1.69059920    
  -1.56075203      -1.04286098     -0.606999993       2135.01636       1.69059920    
  -1.56075203      -1.04286098     -0.606999993       2451.96289       1.68537986    
  -1.13495600     -0.758352995     -0.606999993       2451.96289       1.68537986    
 -0.965201020     -0.965201020     -0.606999993       2451.96289       1.68537986    
  -1.32730997      -1.32730997     -0.606999993       2451.96289       1.68537986    
  -1.56075203      -1.04286098     -0.606999993       2140.11011       1.69028115    
  -2.16155505      -1.44430494     -0.517000020       2140.11011       1.69028115    
  -2.40179110     -0.994853973     -0.517000020       2140.11011       1.69028115    
  -1.73421395     -0.718334973     -0.606999993       2140.11011       1.69028115    
  -1.73421395     -0.718334973     -0.606999993       2456.43115       1.68512869    
  -1.26109600     -0.522363007     -0.606999993       2456.43115       1.68512869    
  -1.13495600     -0.758352995     -0.606999993       2456.43115       1.68512869    
  -1.56075203      -1.04286098     -0.606999993       2456.43115       1.68512869    
  -1.73421395     -0.718334973     -0.606999993       2140.00757       1.69021189    
  -2.40179110     -0.994853973     -0.517000020       2140.00757       1.69021189    
  -2.54972792     -0.507171988     -0.517000020       2140.00757       1.69021189    
  -1.84103203     -0.366203994     -0.606999993       2140.00757       1.69021189    
  -1.84103203     -0.366203994     -0.606999993       2458.06250       1.68499720    
  -1.33877206     -0.266297996     -0.606999993       2458.06250       1.68499720    
  -1.26109600     -0.522363007     -0.606999993       2458.06250       1.68499720    
  -1.73421395     -0.718334973     -0.606999993       2458.06250       1.68499720    
  -1.84103203     -0.366203994     -0.606999993       2137.33789       1.69027591    
  -2.54972792     -0.507171988     -0.517000020       2137.33789       1.69027591    
  -2.59967995       0.00000000     -0.517000020       2137.33789       1.69027591    
  -1.87709999       0.00000000     -0.606999993       2137.33789       1.69027591    
  -1.87709999       0.00000000     -0.606999993       2457.69409       1.68494308    
  -1.36500001       0.00000000     -0.606999993       2457.69409       1.68494308    
  -1.33877206     -0.266297996     -0.606999993       2457.69409       1.68494308    
  -1.84103203     -0.366203994     -0.606999993       2457.69409       1.68494308    
  -1.87709999       0.00000000     -0.606999993       2137.43750       1.69020200    
  -2.59967995       0.00000000     -0.517000020       2137.43750       1.69020200    
  -2.54972792      0.507171988     -0.517000020       2137.43750       1.69020200    
  -1.84103203      0.366203994     -0.606999993       2137.43750       1.69020200    
  -1.84103203      0.366203994     -0.606999993       2457.84473       1.68485951    
  -1.33877206      0.266297996     -0.606999993       2457.84473       1.68485951    
  -1.36500001       0.00000000     -0.606999993       2457.84473       1.68485951    
  -1.87709999       0.00000000     -0.606999993       2457.84473       1.68485951    
  -1.84103203      0.366203994     -0.606999993       2141.20654       1.68994701    
  -2.54972792      0.507171988     -0.517000020       2141.20654       1.68994701    
  -2.40179110      0.994853973     -0.517000020       2141.20654       1.68994701    
  -1.73421395      0.718334973     -0.606999993       2141.20654       1.68994701    
  -1.73421395      0.718334973     -0.606999993       2459.08008       1.68474090    
  -1.26109600      0.522363007     -0.606999993       2459.08008       1.68474090    
  -1.33877206      0.266297996     -0.606999993       2459.08008       1.68474090    
  -1.84103203      0.366203994     -0.606999993       2459.08008       1.68474090    
  -1.73421395      0.718334973     -0.606999993       2143.83765       1.68977416    
  -2.40179110      0.994853973     -0.517000020       2143.83765       1.68977416    
  -2.16155505       1.44430494     -0.517000020       2143.83765       1.68977416    
  -1.56075203       1.04286098     -0.606999993       2143.83765       1.68977416    
  -1.56075203       1.04286098     -0.606999993       2459.24951       1.68469477    
  -1.13495600      0.758352995     -0.606999993       2459.24951       1.68469477    
  -1.26109600      0.522363007     -0.606999993       2459.24951       1.68469477    
  -1.73421395      0.718334973     -0.606999993       2459.24951       1.68469477    
  -1.56075203       1.04286098     -0.606999993       2140.98950       1.68989623    
  -2.16155505       1.44430494     -0.517000020       2140.98950       1.68989623    
  -1.83825099       1.83825099     -0.517000020       2140.98950       1.68989623    
  -1.32730997       1.32730997     -0.606999993       2140.98950       1.68989623    
  -1.32730997       1.32730997     -0.606999993       2456.71973       1.68476927    
 -0.965201020      0.965201020     -0.606999993       2456.71973       1.68476927    
  -1.13495600      0.758352995     -0.606999993       2456.71973       1.68476927    
  -1.56075203       1.04286098     -0.606999993       2456.71973       1.68476927    
  -1.32730997       1.32730997     -0.606999993       2135.30396       1.69018137    
  -1.83825099       1.83825099     -0.517000020       2135.30396       1.69018137    
  -1.44430494       2.16155505     -0.517000020       2135.30396       1.69018137    
  -1.04286098       1.56075203     -0.606999993       2135.30396       1.69018137    
  -1.04286098       1.56075203     -0.606999993       2452.85913       1.68493080    
 -0.758352995       1.13495600     -0.606999993       2452.85913       1.68493080    
 -0.965201020      0.965201020     -0.606999993       2452.85913       1.68493080    
  -1.32730997       1.32730997     -0.606999993       2452.85913       1.68493080    
  -1.04286098       1.56075203     -0.606999993       2132.90308       1.69032347    
  -1.44430494       2.16155505     -0.517000020       2132.90308       1.69032347    
 -0.994853973       2.40179110     -0.517000020       2132.90308       1.69032347    
 -0.718334973       1.73421395     -0.606999993       2132.90308       1.69032347    
 -0.718334973       1.73421395     -0.606999993       2450.76172       1.68503237    
 -0.522363007       1.26109600     -0.606999993       2450.76172       1.68503237    
 -0.758352995       1.13495600     -0.606999993       2450.76172       1.68503237    
  -1.04286098       1.56075203     -0.606999993       2450.76172       1.68503237    
 -0.718334973       1.73421395     -0.606999993       2135.96973       1.69021666    
 -0.994853973       2.40179110     -0.517000020       2135.96973       1.69021666    
 -0.507171988       2.54972792     -0.517000020       2135.96973       1.69021666    
 -0.366203994       1.84103203     -0.606999993       2135.96973       1.69021666    
 -0.366203994       1.84103203     -0.606999993       2451.66138       1.68504012    
 -0.266297996       1.33877206     -0.606999993       2451.66138       1.68504012    
 -0.522363007       1.26109600     -0.606999993       2451.66138       1.68504012    
 -0.718334973       1.73421395     -0.606999993       2451.66138       1.68504012    
 -0.366203994       1.84103203     -0.606999993       2140.46606       1.69005752    
 -0.507171988       2.54972792     -0.517000020       2140.46606       1.69005752    
   0.00000000       2.59967995     -0.517000020       2140.46606       1.69005752    
   0.00000000       1.87709999     -0.606999993       2140.46606       1.69005752    
   0.00000000       1.87709999     -0.606999993       2453.57080       1.68499720    
   0.00000000       1.36500001     -0.606999993       2453.57080       1.68499720    
 -0.266297996       1.33877206     -0.606999993       2453.57080       1.68499720    
 -0.366203994       1.84103203     -0.606999993       2453.57080       1.68499720    
   0.00000000       1.87709999     -0.606999993       2140.65552       1.69010735    
   0.00000000       2.59967995     -0.517000020       2140.65552       1.69010735    
  0.507171988       2.54972792     -0.517000020       2140.65552       1.69010735    
  0.366203994       1.84103203     -0.606999993       2140.65552       1.69010735    
  0.366203994       1.84103203     -0.606999993       2453.78711       1.68505037    
  0.266297996       1.33877206     -0.606999993       2453.78711       1.68505037    
   0.00000000       1.36500001     -0.606999993       2453.78711       1.68505037    
   0.00000000       1.87709999     -0.606999993       2453.78711       1.68505037    
  0.366203994       1.84103203     -0.606999993       2136.46631       1.69037175    
  0.507171988       2.54972792     -0.517000020       2136.46631       1.69037175    
  0.994853973       2.40179110     -0.517000020       2136.46631       1.69037175    
  0.718334973       1.73421395     -0.606999993       2136.46631       1.69037175    
  0.718334973       1.73421395     -0.606999993       2452.30688       1.68516493    
  0.522363007       1.26109600     -0.606999993       2452.30688       1.68516493    
  0.266297996       1.33877206     -0.606999993       2452.30688       1.68516493    
  0.366203994       1.84103203     -0.606999993       2452.30688       1.68516493    
  0.718334973       1.73421395     -0.606999993       2133.70996       1.69054770    
  0.994853973       2.40179110     -0.517000020       2133.70996       1.69054770    
   1.44430494       2.16155505     -0.517000020       2133.70996       1.69054770    
   1.04286098       1.56075203     -0.606999993       2133.70996       1.69054770    
   1.04286098       1.56075203     -0.606999993       2451.77612       1.68524313    
  0.758352995       1.13495600     -0.606999993       2451.77612       1.68524313    
  0.522363007       1.26109600     -0.606999993       2451.77612       1.68524313    
  0.718334973       1.73421395     -0.606999993       2451.77612       1.68524313    
   1.04286098       1.56075203     -0.606999993       2136.28516       1.69045699    
   1.44430494       2.16155505     -0.517000020       2136.28516       1.69045699    
   1.83825099       1.83825099     -0.517000020       2136.28516       1.69045699    
   1.32730997       1.32730997     -0.606999993       2136.28516       1.69045699    
   1.32730997       1.32730997     -0.606999993       2454.03662       1.68518102    
  0.965201020      0.965201020     -0.606999993       2454.03662       1.68518102    
  0.758352995       1.13495600     -0.606999993       2454.03662       1.68518102    
   1.04286098       1.56075203     -0.606999993       2454.03662       1.68518102    
   1.32730997       1.32730997     -0.606999993       2141.92480       1.69018364    
   1.83825099       1.83825099     -0.517000020       2141.92480       1.69018364    
   2.16155505       1.44430494     -0.517000020       2141.92480       1.69018364    
   1.56075203       1.04286098     -0.606999993       2141.92480       1.69018364    
   1.56075203       1.04286098     -0.606999993       2457.79883       1.68504345    
   1.13495600      0.758352995     -0.606999993       2457.79883       1.68504345    
  0.965201020      0.965201020     -0.606999993       2457.79883       1.68504345    
   1.32730997       1.32730997     -0.606999993       2457.79883       1.68504345    
   1.56075203       1.04286098     -0.606999993       2144.48560       1.69007337    
   2.16155505       1.44430494     -0.517000020       2144.48560       1.69007337    
   2.40179110      0.994853973     -0.517000020       2144.48560       1.69007337    
   1.73421395      0.718334973     -0.606999993       2144.48560       1.69007337    
   1.73421395      0.718334973     -0.606999993       2459.85205       1.68494797    
   1.26109600      0.522363007     -0.606999993       2459.85205       1.68494797    
   1.13495600      0.758352995     -0.606999993       2459.85205       1.68494797    
   1.56075203       1.04286098     -0.606999993       2459.85205       1.68494797    
   1.73421395      0.718334973     -0.606999993       2141.31714       1.69023430    
   2.40179110      0.994853973     -0.517000020       2141.31714       1.69023430    
   2.54972792      0.507171988     -0.517000020       2141.31714       1.69023430    
   1.84103203      0.366203994     -0.606999993       2141.31714       1.69023430    
   1.84103203      0.366203994     -0.606999993       2458.96899       1.68496585    
   1.33877206      0.266297996     -0.606999993       2458.96899       1.68496585    
   1.26109600      0.522363007     -0.606999993       2458.96899       1.68496585    
   1.73421395      0.718334973     -0.606999993       2458.96899       1.68496585    
   1.84103203      0.366203994     -0.606999993       2136.91113       1.69044518    
   2.54972792      0.507171988     -0.517000020       2136.91113       1.69044518    
   2.59967995       0.00000000     -0.517000020       2136.91113       1.69044518    
   1.87709999       0.00000000     -0.606999993       2136.91113       1.69044518    
   1.87709999       0.00000000     -0.606999993       2457.04346       1.68502545    
   1.36500001       0.00000000     -0.606999993       2457.04346       1.68502545    
   1.33877206      0.266297996     -0.606999993       2457.04346       1.68502545    
   1.84103203      0.366203994     -0.606999993       2457.04346       1.68502545    
   1.87709999       0.00000000     -0.606999993       2136.22778       1.69044852    
   2.59967995       0.00000000     -0.517000020       2136.22778       1.69044852    
   2.54972792     -0.507171988     -0.517000020       2136.22778       1.69044852    
   1.84103203     -0.366203994     -0.606999993       2136.22778       1.69044852    
   1.84103203     -0.366203994     -0.606999993       2456.17139       1.68502903    
   1.33877206     -0.266297996     -0.606999993       2456.17139       1.68502903    
   1.36500001       0.00000000     -0.606999993       2456.17139       1.68502903    
   1.87709999       0.00000000     -0.606999993       2456.17139       1.68502903    
   1.84103203     -0.366203994     -0.606999993       2138.48438       1.69031000    
   2.54972792     -0.507171988     -0.517000020       2138.48438       1.69031000    
   2.40179110     -0.994853973     -0.517000020       2138.48438       1.69031000    
   1.73421395     -0.718334973     -0.606999993       2138.48438       1.69031000    
   1.73421395     -0.718334973     -0.606999993       2455.95923       1.68501091    
   1.26109600     -0.522363007     -0.606999993       2455.95923       1.68501091    
   1.33877206     -0.266297996     -0.606999993       2455.95923       1.68501091    
   1.84103203     -0.366203994     -0.606999993       2455.95923       1.68501091    
   1.73421395     -0.718334973     -0.606999993       2138.31177       1.69030058    
   2.40179110     -0.994853973     -0.517000020       2138.31177       1.69030058    
   2.16155505      -1.44430494     -0.517000020       2138.31177       1.69030058    
   1.56075203      -1.04286098     -0.606999993       2138.31177       1.69030058    
   1.56075203      -1.04286098     -0.606999993       2454.06909       1.68507767    
   1.13495600     -0.758352995     -0.606999993       2454.06909       1.68507767    
   1.26109600     -0.522363007     -0.606999993       2454.06909       1.68507767    