 VARIABLES="X" "Y" "Z" "abs(p) (Pa)" "angle(p) (rad)"
ZONE N=   2709,E =    2358, F=FEPOINT, ET=QUADRILATERAL
   0.00000000      -5.48999977     -0.157000005       283.481842      -1.52256310    
   0.00000000      -4.76741982     -0.246999994       283.481842      -1.52256310    
  0.930077016      -4.67581606     -0.246999994       283.481842      -1.52256310    
   1.07104599      -5.38451099     -0.157000005       283.481842      -1.52256310    
  -1.07104599      -5.38451099     -0.157000005       287.084747       1.62444568    
 -0.930077016      -4.67581606     -0.246999994       287.084747       1.62444568    
   0.00000000      -4.76741982     -0.246999994       287.084747       1.62444568    
   0.00000000      -5.48999977     -0.157000005       287.084747       1.62444568    
  -2.10093188      -5.07209921     -0.157000005       852.345825       1.62384975    
  -1.82441294      -4.40452194     -0.246999994       852.345825       1.62384975    
 -0.930077016      -4.67581606     -0.246999994       852.345825       1.62384975    
  -1.07104599      -5.38451099     -0.157000005       852.345825       1.62384975    
  -3.05008101      -4.56476784     -0.157000005       1374.43262       1.62168133    
  -2.64863706      -3.96396494     -0.246999994       1374.43262       1.62168133    
  -1.82441294      -4.40452194     -0.246999994       1374.43262       1.62168133    
  -2.10093188      -5.07209921     -0.157000005       1374.43262       1.62168133    
  -3.88201594      -3.88201594     -0.157000005       1843.93567       1.61944687    
  -3.37107491      -3.37107491     -0.246999994       1843.93567       1.61944687    
  -2.64863706      -3.96396494     -0.246999994       1843.93567       1.61944687    
  -3.05008101      -4.56476784     -0.157000005       1843.93567       1.61944687    
  -4.56476784      -3.05008101     -0.157000005       2269.04028       1.62355995    
  -3.96396494      -2.64863706     -0.246999994       2269.04028       1.62355995    
  -3.37107491      -3.37107491     -0.246999994       2269.04028       1.62355995    
  -3.88201594      -3.88201594     -0.157000005       2269.04028       1.62355995    
  -5.07209921      -2.10093188     -0.157000005       2566.53711       1.61998832    
  -4.40452194      -1.82441294     -0.246999994       2566.53711       1.61998832    
  -3.96396494      -2.64863706     -0.246999994       2566.53711       1.61998832    
  -4.56476784      -3.05008101     -0.157000005       2566.53711       1.61998832    
  -5.38451099      -1.07104599     -0.157000005       2783.02734       1.61957562    
  -4.67581606     -0.930077016     -0.246999994       2783.02734       1.61957562    
  -4.40452194      -1.82441294     -0.246999994       2783.02734       1.61957562    
  -5.07209921      -2.10093188     -0.157000005       2783.02734       1.61957562    
  -5.48999977       0.00000000     -0.157000005       2915.54053       1.62425506    
  -4.76741982       0.00000000     -0.246999994       2915.54053       1.62425506    
  -4.67581606     -0.930077016     -0.246999994       2915.54053       1.62425506    
  -5.38451099      -1.07104599     -0.157000005       2915.54053       1.62425506    
  -5.38451099       1.07104599     -0.157000005       2913.28760       1.62349200    
  -4.67581606      0.930077016     -0.246999994       2913.28760       1.62349200    
  -4.76741982       0.00000000     -0.246999994       2913.28760       1.62349200    
  -5.48999977       0.00000000     -0.157000005       2913.28760       1.62349200    
  -5.07209921       2.10093188     -0.157000005       2801.77075       1.62355244    
  -4.40452194       1.82441294     -0.246999994       2801.77075       1.62355244    
  -4.67581606      0.930077016     -0.246999994       2801.77075       1.62355244    
  -5.38451099       1.07104599     -0.157000005       2801.77075       1.62355244    
  -4.56476784       3.05008101     -0.157000005       2581.13599       1.62436354    
  -3.96396494       2.64863706     -0.246999994       2581.13599       1.62436354    
  -4.40452194       1.82441294     -0.246999994       2581.13599       1.62436354    
  -5.07209921       2.10093188     -0.157000005       2581.13599       1.62436354    
  -3.88201594       3.88201594     -0.157000005       2247.65015       1.61892247    
  -3.37107491       3.37107491     -0.246999994       2247.65015       1.61892247    
  -3.96396494       2.64863706     -0.246999994       2247.65015       1.61892247    
  -4.56476784       3.05008101     -0.157000005       2247.65015       1.61892247    
  -3.05008101       4.56476784     -0.157000005       1855.07739       1.62447381    
  -2.64863706       3.96396494     -0.246999994       1855.07739       1.62447381    
  -3.37107491       3.37107491     -0.246999994       1855.07739       1.62447381    
  -3.88201594       3.88201594     -0.157000005       1855.07739       1.62447381    
  -2.10093188       5.07209921     -0.157000005       1370.22534       1.61873758    
  -1.82441294       4.40452194     -0.246999994       1370.22534       1.61873758    
  -2.64863706       3.96396494     -0.246999994       1370.22534       1.61873758    
  -3.05008101       4.56476784     -0.157000005       1370.22534       1.61873758    
  -1.07104599       5.38451099     -0.157000005       846.454163       1.62314057    
 -0.930077016       4.67581606     -0.246999994       846.454163       1.62314057    
  -1.82441294       4.40452194     -0.246999994       846.454163       1.62314057    
  -2.10093188       5.07209921     -0.157000005       846.454163       1.62314057    
   0.00000000       5.48999977     -0.157000005       284.007874       1.61893213    
   0.00000000       4.76741982     -0.246999994       284.007874       1.61893213    
 -0.930077016       4.67581606     -0.246999994       284.007874       1.61893213    
  -1.07104599       5.38451099     -0.157000005       284.007874       1.61893213    
   1.07104599       5.38451099     -0.157000005       290.673431      -1.51111913    
  0.930077016       4.67581606     -0.246999994       290.673431      -1.51111913    
   0.00000000       4.76741982     -0.246999994       290.673431      -1.51111913    
   0.00000000       5.48999977     -0.157000005       290.673431      -1.51111913    
   2.10093188       5.07209921     -0.157000005       845.963806      -1.52118373    
   1.82441294       4.40452194     -0.246999994       845.963806      -1.52118373    
  0.930077016       4.67581606     -0.246999994       845.963806      -1.52118373    
   1.07104599       5.38451099     -0.157000005       845.963806      -1.52118373    
   3.05008101       4.56476784     -0.157000005       1373.28894      -1.52120924    
   2.64863706       3.96396494     -0.246999994       1373.28894      -1.52120924    
   1.82441294       4.40452194     -0.246999994       1373.28894      -1.52120924    
   2.10093188       5.07209921     -0.157000005       1373.28894      -1.52120924    
   3.88201594       3.88201594     -0.157000005       1858.54602      -1.51737595    
   3.37107491       3.37107491     -0.246999994       1858.54602      -1.51737595    
   2.64863706       3.96396494     -0.246999994       1858.54602      -1.51737595    
   3.05008101       4.56476784     -0.157000005       1858.54602      -1.51737595    
   4.56476784       3.05008101     -0.157000005       2264.90576      -1.51981437    
   3.96396494       2.64863706     -0.246999994       2264.90576      -1.51981437    
   3.37107491       3.37107491     -0.246999994       2264.90576      -1.51981437    
   3.88201594       3.88201594     -0.157000005       2264.90576      -1.51981437    
   5.07209921       2.10093188     -0.157000005       2582.90137      -1.51760209    
   4.40452194       1.82441294     -0.246999994       2582.90137      -1.51760209    
   3.96396494       2.64863706     -0.246999994       2582.90137      -1.51760209    
   4.56476784       3.05008101     -0.157000005       2582.90137      -1.51760209    
   5.38451099       1.07104599     -0.157000005       2784.92651      -1.52150357    
   4.67581606      0.930077016     -0.246999994       2784.92651      -1.52150357    
   4.40452194       1.82441294     -0.246999994       2784.92651      -1.52150357    
   5.07209921       2.10093188     -0.157000005       2784.92651      -1.52150357    
   5.48999977       0.00000000     -0.157000005       2894.72021      -1.52154040    
   4.76741982       0.00000000     -0.246999994       2894.72021      -1.52154040    
   4.67581606      0.930077016     -0.246999994       2894.72021      -1.52154040    
   5.38451099       1.07104599     -0.157000005       2894.72021      -1.52154040    
   5.38451099      -1.07104599     -0.157000005       2895.07935      -1.52127099    
   4.67581606     -0.930077016     -0.246999994       2895.07935      -1.52127099    
   4.76741982       0.00000000     -0.246999994       2895.07935      -1.52127099    
   5.48999977       0.00000000     -0.157000005       2895.07935      -1.52127099    
   5.07209921      -2.10093188     -0.157000005       2783.22656      -1.52187371    
   4.40452194      -1.82441294     -0.246999994       2783.22656      -1.52187371    
   4.67581606     -0.930077016     -0.246999994       2783.22656      -1.52187371    
   5.38451099      -1.07104599     -0.157000005       2783.22656      -1.52187371    
   4.56476784      -3.05008101     -0.157000005       2564.28394      -1.52113008    
   3.96396494      -2.64863706     -0.246999994       2564.28394      -1.52113008    
   4.40452194      -1.82441294     -0.246999994       2564.28394      -1.52113008    
   5.07209921      -2.10093188     -0.157000005       2564.28394      -1.52113008    
   3.88201594      -3.88201594     -0.157000005       2247.46216      -1.52257740    
   3.37107491      -3.37107491     -0.246999994       2247.46216      -1.52257740    
   3.96396494      -2.64863706     -0.246999994       2247.46216      -1.52257740    
   4.56476784      -3.05008101     -0.157000005       2247.46216      -1.52257740    
   3.05008101      -4.56476784     -0.157000005       1855.13086      -1.51726282    
   2.64863706      -3.96396494     -0.246999994       1855.13086      -1.51726282    
   3.37107491      -3.37107491     -0.246999994       1855.13086      -1.51726282    
   3.88201594      -3.88201594     -0.157000005       1855.13086      -1.51726282    
   2.10093188      -5.07209921     -0.157000005       1370.00110      -1.52252340    
   1.82441294      -4.40452194     -0.246999994       1370.00110      -1.52252340    
   2.64863706      -3.96396494     -0.246999994       1370.00110      -1.52252340    
   3.05008101      -4.56476784     -0.157000005       1370.00110      -1.52252340    
   1.07104599      -5.38451099     -0.157000005       842.170654      -1.52236736    
  0.930077016      -4.67581606     -0.246999994       842.170654      -1.52236736    
   1.82441294      -4.40452194     -0.246999994       842.170654      -1.52236736    
   2.10093188      -5.07209921     -0.157000005       842.170654      -1.52236736    
   0.00000000      -1.87709999     -0.606999993       249.998016       1.57281399    
   0.00000000      -1.36500001     -0.606999993       249.998016       1.57281399    
  0.266297996      -1.33877206     -0.606999993       249.998016       1.57281399    
  0.366203994      -1.84103203     -0.606999993       249.998016       1.57281399    
   0.00000000      -1.87709999     -0.606999993       412.378418      -1.56698799    
   0.00000000      -2.59967995     -0.517000020       412.378418      -1.56698799    
 -0.507171988      -2.54972792     -0.517000020       412.378418      -1.56698799    
 -0.366203994      -1.84103203     -0.606999993       412.378418      -1.56698799    
 -0.366203994      -1.84103203     -0.606999993       245.409210      -1.56886363    
 -0.266297996      -1.33877206     -0.606999993       245.409210      -1.56886363    
   0.00000000      -1.36500001     -0.606999993       245.409210      -1.56886363    
   0.00000000      -1.87709999     -0.606999993       245.409210      -1.56886363    
 -0.366203994      -1.84103203     -0.606999993       1224.06982      -1.56704772    
 -0.507171988      -2.54972792     -0.517000020       1224.06982      -1.56704772    
 -0.994853973      -2.40179110     -0.517000020       1224.06982      -1.56704772    
 -0.718334973      -1.73421395     -0.606999993       1224.06982      -1.56704772    
 -0.718334973      -1.73421395     -0.606999993       732.327271      -1.56862497    
 -0.522363007      -1.26109600     -0.606999993       732.327271      -1.56862497    
 -0.266297996      -1.33877206     -0.606999993       732.327271      -1.56862497    
 -0.366203994      -1.84103203     -0.606999993       732.327271      -1.56862497    
 -0.718334973      -1.73421395     -0.606999993       1986.52051      -1.56705117    
 -0.994853973      -2.40179110     -0.517000020       1986.52051      -1.56705117    
  -1.44430494      -2.16155505     -0.517000020       1986.52051      -1.56705117    
  -1.04286098      -1.56075203     -0.606999993       1986.52051      -1.56705117    
  -1.04286098      -1.56075203     -0.606999993       1190.86438      -1.56838214    
 -0.758352995      -1.13495600     -0.606999993       1190.86438      -1.56838214    
 -0.522363007      -1.26109600     -0.606999993       1190.86438      -1.56838214    
 -0.718334973      -1.73421395     -0.606999993       1190.86438      -1.56838214    
  -1.04286098      -1.56075203     -0.606999993       2671.90186      -1.56704271    
  -1.44430494      -2.16155505     -0.517000020       2671.90186      -1.56704271    
  -1.83825099      -1.83825099     -0.517000020       2671.90186      -1.56704271    
  -1.32730997      -1.32730997     -0.606999993       2671.90186      -1.56704271    
  -1.32730997      -1.32730997     -0.606999993       1603.25720      -1.56814051    
 -0.965201020     -0.965201020     -0.606999993       1603.25720      -1.56814051    
 -0.758352995      -1.13495600     -0.606999993       1603.25720      -1.56814051    
  -1.04286098      -1.56075203     -0.606999993       1603.25720      -1.56814051    
  -1.32730997      -1.32730997     -0.606999993       3255.80200      -1.56702352    
  -1.83825099      -1.83825099     -0.517000020       3255.80200      -1.56702352    
  -2.16155505      -1.44430494     -0.517000020       3255.80200      -1.56702352    
  -1.56075203      -1.04286098     -0.606999993       3255.80200      -1.56702352    
  -1.56075203      -1.04286098     -0.606999993       1953.76440      -1.56801093    
  -1.13495600     -0.758352995     -0.606999993       1953.76440      -1.56801093    
 -0.965201020     -0.965201020     -0.606999993       1953.76440      -1.56801093    
  -1.32730997      -1.32730997     -0.606999993       1953.76440      -1.56801093    
  -1.56075203      -1.04286098     -0.606999993       3713.31201      -1.56699860    
  -2.16155505      -1.44430494     -0.517000020       3713.31201      -1.56699860    
  -2.40179110     -0.994853973     -0.517000020       3713.31201      -1.56699860    
  -1.73421395     -0.718334973     -0.606999993       3713.31201      -1.56699860    
  -1.73421395     -0.718334973     -0.606999993       2227.08398      -1.56802332    
  -1.26109600     -0.522363007     -0.606999993       2227.08398      -1.56802332    
  -1.13495600     -0.758352995     -0.606999993       2227.08398      -1.56802332    
  -1.56075203      -1.04286098     -0.606999993       2227.08398      -1.56802332    
  -1.73421395     -0.718334973     -0.606999993       4023.02319      -1.56698346    
  -2.40179110     -0.994853973     -0.517000020       4023.02319      -1.56698346    
  -2.54972792     -0.507171988     -0.517000020       4023.02319      -1.56698346    
  -1.84103203     -0.366203994     -0.606999993       4023.02319      -1.56698346    
  -1.84103203     -0.366203994     -0.606999993       2410.09399      -1.56811357    
  -1.33877206     -0.266297996     -0.606999993       2410.09399      -1.56811357    
  -1.26109600     -0.522363007     -0.606999993       2410.09399      -1.56811357    
  -1.73421395     -0.718334973     -0.606999993       2410.09399      -1.56811357    
  -1.84103203     -0.366203994     -0.606999993       4175.76709      -1.56697559    
  -2.54972792     -0.507171988     -0.517000020       4175.76709      -1.56697559    
  -2.59967995       0.00000000     -0.517000020       4175.76709      -1.56697559    
  -1.87709999       0.00000000     -0.606999993       4175.76709      -1.56697559    
  -1.87709999       0.00000000     -0.606999993       2498.04883      -1.56819892    
  -1.36500001       0.00000000     -0.606999993       2498.04883      -1.56819892    
  -1.33877206     -0.266297996     -0.606999993       2498.04883      -1.56819892    
  -1.84103203     -0.366203994     -0.606999993       2498.04883      -1.56819892    
  -1.87709999       0.00000000     -0.606999993       4171.86816      -1.56696212    
  -2.59967995       0.00000000     -0.517000020       4171.86816      -1.56696212    
  -2.54972792      0.507171988     -0.517000020       4171.86816      -1.56696212    
  -1.84103203      0.366203994     -0.606999993       4171.86816      -1.56696212    
  -1.84103203      0.366203994     -0.606999993       2492.49927      -1.56818926    
  -1.33877206      0.266297996     -0.606999993       2492.49927      -1.56818926    
  -1.36500001       0.00000000     -0.606999993       2492.49927      -1.56818926    
  -1.87709999       0.00000000     -0.606999993       2492.49927      -1.56818926    
  -1.84103203      0.366203994     -0.606999993       4013.39453      -1.56693828    
  -2.54972792      0.507171988     -0.517000020       4013.39453      -1.56693828    
  -2.40179110      0.994853973     -0.517000020       4013.39453      -1.56693828    
  -1.73421395      0.718334973     -0.606999993       4013.39453      -1.56693828    
  -1.73421395      0.718334973     -0.606999993       2396.19263      -1.56808591    
  -1.26109600      0.522363007     -0.606999993       2396.19263      -1.56808591    
  -1.33877206      0.266297996     -0.606999993       2396.19263      -1.56808591    
  -1.84103203      0.366203994     -0.606999993       2396.19263      -1.56808591    
  -1.73421395      0.718334973     -0.606999993       3702.44727      -1.56692052    
  -2.40179110      0.994853973     -0.517000020       3702.44727      -1.56692052    
  -2.16155505       1.44430494     -0.517000020       3702.44727      -1.56692052    
  -1.56075203       1.04286098     -0.606999993       3702.44727      -1.56692052    
  -1.56075203       1.04286098     -0.606999993       2210.94458      -1.56794834    
  -1.13495600      0.758352995     -0.606999993       2210.94458      -1.56794834    
  -1.26109600      0.522363007     -0.606999993       2210.94458      -1.56794834    
  -1.73421395      0.718334973     -0.606999993       2210.94458      -1.56794834    
  -1.56075203       1.04286098     -0.606999993       3246.79785      -1.56693542    
  -2.16155505       1.44430494     -0.517000020       3246.79785      -1.56693542    
  -1.83825099       1.83825099     -0.517000020       3246.79785      -1.56693542    
  -1.32730997       1.32730997     -0.606999993       3246.79785      -1.56693542    
  -1.32730997       1.32730997     -0.606999993       1940.96973      -1.56789529    
 -0.965201020      0.965201020     -0.606999993       1940.96973      -1.56789529    
  -1.13495600      0.758352995     -0.606999993       1940.96973      -1.56789529    
  -1.56075203       1.04286098     -0.606999993       1940.96973      -1.56789529    
  -1.32730997       1.32730997     -0.606999993       2665.64380      -1.56698418    
  -1.83825099       1.83825099     -0.517000020       2665.64380      -1.56698418    
  -1.44430494       2.16155505     -0.517000020       2665.64380      -1.56698418    
  -1.04286098       1.56075203     -0.606999993       2665.64380      -1.56698418    
  -1.04286098       1.56075203     -0.606999993       1595.97937      -1.56799114    
 -0.758352995       1.13495600     -0.606999993       1595.97937      -1.56799114    
 -0.965201020      0.965201020     -0.606999993       1595.97937      -1.56799114    
  -1.32730997       1.32730997     -0.606999993       1595.97937      -1.56799114    
  -1.04286098       1.56075203     -0.606999993       1983.75891      -1.56705356    
  -1.44430494       2.16155505     -0.517000020       1983.75891      -1.56705356    
 -0.994853973       2.40179110     -0.517000020       1983.75891      -1.56705356    
 -0.718334973       1.73421395     -0.606999993       1983.75891      -1.56705356    
 -0.718334973       1.73421395     -0.606999993       1189.36108      -1.56821358    
 -0.522363007       1.26109600     -0.606999993       1189.36108      -1.56821358    
 -0.758352995       1.13495600     -0.606999993       1189.36108      -1.56821358    
  -1.04286098       1.56075203     -0.606999993       1189.36108      -1.56821358    
 -0.718334973       1.73421395     -0.606999993       1225.04785      -1.56712031    
 -0.994853973       2.40179110     -0.517000020       1225.04785      -1.56712031    
 -0.507171988       2.54972792     -0.517000020       1225.04785      -1.56712031    
 -0.366203994       1.84103203     -0.606999993       1225.04785      -1.56712031    
 -0.366203994       1.84103203     -0.606999993       735.815247      -1.56848025    
 -0.266297996       1.33877206     -0.606999993       735.815247      -1.56848025    
 -0.522363007       1.26109600     -0.606999993       735.815247      -1.56848025    
 -0.718334973       1.73421395     -0.606999993       735.815247      -1.56848025    
 -0.366203994       1.84103203     -0.606999993       416.008545      -1.56722939    
 -0.507171988       2.54972792     -0.517000020       416.008545      -1.56722939    
   0.00000000       2.59967995     -0.517000020       416.008545      -1.56722939    
   0.00000000       1.87709999     -0.606999993       416.008545      -1.56722939    
   0.00000000       1.87709999     -0.606999993       251.457184      -1.56864130    
   0.00000000       1.36500001     -0.606999993       251.457184      -1.56864130    
 -0.266297996       1.33877206     -0.606999993       251.457184      -1.56864130    
 -0.366203994       1.84103203     -0.606999993       251.457184      -1.56864130    
   0.00000000       1.87709999     -0.606999993       411.782684       1.57458425    
   0.00000000       2.59967995     -0.517000020       411.782684       1.57458425    
  0.507171988       2.54972792     -0.517000020       411.782684       1.57458425    
  0.366203994       1.84103203     -0.606999993       411.782684       1.57458425    
  0.366203994       1.84103203     -0.606999993       245.024292       1.57300246    
  0.266297996       1.33877206     -0.606999993       245.024292       1.57300246    
   0.00000000       1.36500001     -0.606999993       245.024292       1.57300246    
   0.00000000       1.87709999     -0.606999993       245.024292       1.57300246    
  0.366203994       1.84103203     -0.606999993       1223.07202       1.57454038    
  0.507171988       2.54972792     -0.517000020       1223.07202       1.57454038    
  0.994853973       2.40179110     -0.517000020       1223.07202       1.57454038    
  0.718334973       1.73421395     -0.606999993       1223.07202       1.57454038    
  0.718334973       1.73421395     -0.606999993       732.919800       1.57314932    
  0.522363007       1.26109600     -0.606999993       732.919800       1.57314932    
  0.266297996       1.33877206     -0.606999993       732.919800       1.57314932    
  0.366203994       1.84103203     -0.606999993       732.919800       1.57314932    
  0.718334973       1.73421395     -0.606999993       1985.10535       1.57456911    
  0.994853973       2.40179110     -0.517000020       1985.10535       1.57456911    
   1.44430494       2.16155505     -0.517000020       1985.10535       1.57456911    
   1.04286098       1.56075203     -0.606999993       1985.10535       1.57456911    
   1.04286098       1.56075203     -0.606999993       1191.64697       1.57335496    
  0.758352995       1.13495600     -0.606999993       1191.64697       1.57335496    
  0.522363007       1.26109600     -0.606999993       1191.64697       1.57335496    
  0.718334973       1.73421395     -0.606999993       1191.64697       1.57335496    
   1.04286098       1.56075203     -0.606999993       2670.01587       1.57460093    
   1.44430494       2.16155505     -0.517000020       2670.01587       1.57460093    
   1.83825099       1.83825099     -0.517000020       2670.01587       1.57460093    
   1.32730997       1.32730997     -0.606999993       2670.01587       1.57460093    
   1.32730997       1.32730997     -0.606999993       1602.82690       1.57354999    
  0.965201020      0.965201020     -0.606999993       1602.82690       1.57354999    
  0.758352995       1.13495600     -0.606999993       1602.82690       1.57354999    
   1.04286098       1.56075203     -0.606999993       1602.82690       1.57354999    
   1.32730997       1.32730997     -0.606999993       3252.75928       1.57460630    
   1.83825099       1.83825099     -0.517000020       3252.75928       1.57460630    
   2.16155505       1.44430494     -0.517000020       3252.75928       1.57460630    
   1.56075203       1.04286098     -0.606999993       3252.75928       1.57460630    
   1.56075203       1.04286098     -0.606999993       1949.76880       1.57361794    
   1.13495600      0.758352995     -0.606999993       1949.76880       1.57361794    
  0.965201020      0.965201020     -0.606999993       1949.76880       1.57361794    
   1.32730997       1.32730997     -0.606999993       1949.76880       1.57361794    
   1.56075203       1.04286098     -0.606999993       3708.51465       1.57458210    
   2.16155505       1.44430494     -0.517000020       3708.51465       1.57458210    
   2.40179110      0.994853973     -0.517000020       3708.51465       1.57458210    
   1.73421395      0.718334973     -0.606999993       3708.51465       1.57458210    
   1.73421395      0.718334973     -0.606999993       2219.70020       1.57354581    
   1.26109600      0.522363007     -0.606999993       2219.70020       1.57354581    
   1.13495600      0.758352995     -0.606999993       2219.70020       1.57354581    
   1.56075203       1.04286098     -0.606999993       2219.70020       1.57354581    
   1.73421395      0.718334973     -0.606999993       4018.15405       1.57454419    
   2.40179110      0.994853973     -0.517000020       4018.15405       1.57454419    
   2.54972792      0.507171988     -0.517000020       4018.15405       1.57454419    
   1.84103203      0.366203994     -0.606999993       4018.15405       1.57454419    
   1.84103203      0.366203994     -0.606999993       2403.61572       1.57341123    
   1.33877206      0.266297996     -0.606999993       2403.61572       1.57341123    
   1.26109600      0.522363007     -0.606999993       2403.61572       1.57341123    
   1.73421395      0.718334973     -0.606999993       2403.61572       1.57341123    
   1.84103203      0.366203994     -0.606999993       4173.68213       1.57451582    
   2.54972792      0.507171988     -0.517000020       4173.68213       1.57451582    
   2.59967995       0.00000000     -0.517000020       4173.68213       1.57451582    
   1.87709999       0.00000000     -0.606999993       4173.68213       1.57451582    
   1.87709999       0.00000000     -0.606999993       2495.82373       1.57331312    
   1.36500001       0.00000000     -0.606999993       2495.82373       1.57331312    
   1.33877206      0.266297996     -0.606999993       2495.82373       1.57331312    
   1.84103203      0.366203994     -0.606999993       2495.82373       1.57331312    
   1.87709999       0.00000000     -0.606999993       4173.71289       1.57451177    
   2.59967995       0.00000000     -0.517000020       4173.71289       1.57451177    
   2.54972792     -0.507171988     -0.517000020       4173.71289       1.57451177    
   1.84103203     -0.366203994     -0.606999993       4173.71289       1.57451177    
   1.84103203     -0.366203994     -0.606999993       2495.14453       1.57332385    
   1.33877206     -0.266297996     -0.606999993       2495.14453       1.57332385    
   1.36500001       0.00000000     -0.606999993       2495.14453       1.57332385    
   1.87709999       0.00000000     -0.606999993       2495.14453       1.57332385    
   1.84103203     -0.366203994     -0.606999993       4017.55762       1.57452917    
   2.54972792     -0.507171988     -0.517000020       4017.55762       1.57452917    
   2.40179110     -0.994853973     -0.517000020       4017.55762       1.57452917    
   1.73421395     -0.718334973     -0.606999993       4017.55762       1.57452917    
   1.73421395     -0.718334973     -0.606999993       2401.70728       1.57342398    
   1.26109600     -0.522363007     -0.606999993       2401.70728       1.57342398    
   1.33877206     -0.266297996     -0.606999993       2401.70728       1.57342398    
   1.84103203     -0.366203994     -0.606999993       2401.70728       1.57342398    
   1.73421395     -0.718334973     -0.606999993       3706.19946       1.57454491    
   2.40179110     -0.994853973     -0.517000020       3706.19946       1.57454491    
   2.16155505      -1.44430494     -0.517000020       3706.19946       1.57454491    
   1.56075203      -1.04286098     -0.606999993       3706.19946       1.57454491    
   1.56075203      -1.04286098     -0.606999993       2216.15161       1.57352686    
   1.13495600     -0.758352995     -0.606999993       2216.15161       1.57352686    
   1.26109600     -0.522363007     -0.606999993       2216.15161       1.57352686    