 VARIABLES="X" "Y" "Z" "abs(p) (Pa)" "angle(p) (rad)"
ZONE N=   2709,E =    2358, F=FEPOINT, ET=QUADRILATERAL
   0.00000000      -5.48999977     -0.157000005       2254.95898     -0.482811213    
   0.00000000      -4.76741982     -0.246999994       2254.95898     -0.482811213    
  0.930077016      -4.67581606     -0.246999994       2254.95898     -0.482811213    
   1.07104599      -5.38451099     -0.157000005       2254.95898     -0.482811213    
  -1.07104599      -5.38451099     -0.157000005       2254.30103     -0.483188272    
 -0.930077016      -4.67581606     -0.246999994       2254.30103     -0.483188272    
   0.00000000      -4.76741982     -0.246999994       2254.30103     -0.483188272    
   0.00000000      -5.48999977     -0.157000005       2254.30103     -0.483188272    
  -2.10093188      -5.07209921     -0.157000005       2157.79565     -0.487314433    
  -1.82441294      -4.40452194     -0.246999994       2157.79565     -0.487314433    
 -0.930077016      -4.67581606     -0.246999994       2157.79565     -0.487314433    
  -1.07104599      -5.38451099     -0.157000005       2157.79565     -0.487314433    
  -3.05008101      -4.56476784     -0.157000005       2000.88916     -0.485127181    
  -2.64863706      -3.96396494     -0.246999994       2000.88916     -0.485127181    
  -1.82441294      -4.40452194     -0.246999994       2000.88916     -0.485127181    
  -2.10093188      -5.07209921     -0.157000005       2000.88916     -0.485127181    
  -3.88201594      -3.88201594     -0.157000005       1760.73389     -0.490349650    
  -3.37107491      -3.37107491     -0.246999994       1760.73389     -0.490349650    
  -2.64863706      -3.96396494     -0.246999994       1760.73389     -0.490349650    
  -3.05008101      -4.56476784     -0.157000005       1760.73389     -0.490349650    
  -4.56476784      -3.05008101     -0.157000005       1441.69250     -0.500413418    
  -3.96396494      -2.64863706     -0.246999994       1441.69250     -0.500413418    
  -3.37107491      -3.37107491     -0.246999994       1441.69250     -0.500413418    
  -3.88201594      -3.88201594     -0.157000005       1441.69250     -0.500413418    
  -5.07209921      -2.10093188     -0.157000005       1080.50708     -0.497532845    
  -4.40452194      -1.82441294     -0.246999994       1080.50708     -0.497532845    
  -3.96396494      -2.64863706     -0.246999994       1080.50708     -0.497532845    
  -4.56476784      -3.05008101     -0.157000005       1080.50708     -0.497532845    
  -5.38451099      -1.07104599     -0.157000005       670.048279     -0.495261729    
  -4.67581606     -0.930077016     -0.246999994       670.048279     -0.495261729    
  -4.40452194      -1.82441294     -0.246999994       670.048279     -0.495261729    
  -5.07209921      -2.10093188     -0.157000005       670.048279     -0.495261729    
  -5.48999977       0.00000000     -0.157000005       233.411880     -0.513006687    
  -4.76741982       0.00000000     -0.246999994       233.411880     -0.513006687    
  -4.67581606     -0.930077016     -0.246999994       233.411880     -0.513006687    
  -5.38451099      -1.07104599     -0.157000005       233.411880     -0.513006687    
  -5.38451099       1.07104599     -0.157000005       207.999695       2.69447446    
  -4.67581606      0.930077016     -0.246999994       207.999695       2.69447446    
  -4.76741982       0.00000000     -0.246999994       207.999695       2.69447446    
  -5.48999977       0.00000000     -0.157000005       207.999695       2.69447446    
  -5.07209921       2.10093188     -0.157000005       643.738708       2.66431713    
  -4.40452194       1.82441294     -0.246999994       643.738708       2.66431713    
  -4.67581606      0.930077016     -0.246999994       643.738708       2.66431713    
  -5.38451099       1.07104599     -0.157000005       643.738708       2.66431713    
  -4.56476784       3.05008101     -0.157000005       1060.56445       2.65209961    
  -3.96396494       2.64863706     -0.246999994       1060.56445       2.65209961    
  -4.40452194       1.82441294     -0.246999994       1060.56445       2.65209961    
  -5.07209921       2.10093188     -0.157000005       1060.56445       2.65209961    
  -3.88201594       3.88201594     -0.157000005       1444.35461       2.64961553    
  -3.37107491       3.37107491     -0.246999994       1444.35461       2.64961553    
  -3.96396494       2.64863706     -0.246999994       1444.35461       2.64961553    
  -4.56476784       3.05008101     -0.157000005       1444.35461       2.64961553    
  -3.05008101       4.56476784     -0.157000005       1754.58008       2.64710164    
  -2.64863706       3.96396494     -0.246999994       1754.58008       2.64710164    
  -3.37107491       3.37107491     -0.246999994       1754.58008       2.64710164    
  -3.88201594       3.88201594     -0.157000005       1754.58008       2.64710164    
  -2.10093188       5.07209921     -0.157000005       2009.09802       2.65424037    
  -1.82441294       4.40452194     -0.246999994       2009.09802       2.65424037    
  -2.64863706       3.96396494     -0.246999994       2009.09802       2.65424037    
  -3.05008101       4.56476784     -0.157000005       2009.09802       2.65424037    
  -1.07104599       5.38451099     -0.157000005       2171.04785       2.65203404    
 -0.930077016       4.67581606     -0.246999994       2171.04785       2.65203404    
  -1.82441294       4.40452194     -0.246999994       2171.04785       2.65203404    
  -2.10093188       5.07209921     -0.157000005       2171.04785       2.65203404    
   0.00000000       5.48999977     -0.157000005       2269.76978       2.65506601    
   0.00000000       4.76741982     -0.246999994       2269.76978       2.65506601    
 -0.930077016       4.67581606     -0.246999994       2269.76978       2.65506601    
  -1.07104599       5.38451099     -0.157000005       2269.76978       2.65506601    
   1.07104599       5.38451099     -0.157000005       2260.24976       2.65202069    
  0.930077016       4.67581606     -0.246999994       2260.24976       2.65202069    
   0.00000000       4.76741982     -0.246999994       2260.24976       2.65202069    
   0.00000000       5.48999977     -0.157000005       2260.24976       2.65202069    
   2.10093188       5.07209921     -0.157000005       2184.40405       2.65515375    
   1.82441294       4.40452194     -0.246999994       2184.40405       2.65515375    
  0.930077016       4.67581606     -0.246999994       2184.40405       2.65515375    
   1.07104599       5.38451099     -0.157000005       2184.40405       2.65515375    
   3.05008101       4.56476784     -0.157000005       2013.91174       2.65423918    
   2.64863706       3.96396494     -0.246999994       2013.91174       2.65423918    
   1.82441294       4.40452194     -0.246999994       2013.91174       2.65423918    
   2.10093188       5.07209921     -0.157000005       2013.91174       2.65423918    
   3.88201594       3.88201594     -0.157000005       1757.56323       2.64603114    
   3.37107491       3.37107491     -0.246999994       1757.56323       2.64603114    
   2.64863706       3.96396494     -0.246999994       1757.56323       2.64603114    
   3.05008101       4.56476784     -0.157000005       1757.56323       2.64603114    
   4.56476784       3.05008101     -0.157000005       1442.08398       2.64553452    
   3.96396494       2.64863706     -0.246999994       1442.08398       2.64553452    
   3.37107491       3.37107491     -0.246999994       1442.08398       2.64553452    
   3.88201594       3.88201594     -0.157000005       1442.08398       2.64553452    
   5.07209921       2.10093188     -0.157000005       1064.64575       2.65019155    
   4.40452194       1.82441294     -0.246999994       1064.64575       2.65019155    
   3.96396494       2.64863706     -0.246999994       1064.64575       2.65019155    
   4.56476784       3.05008101     -0.157000005       1064.64575       2.65019155    
   5.38451099       1.07104599     -0.157000005       654.596802       2.66629410    
   4.67581606      0.930077016     -0.246999994       654.596802       2.66629410    
   4.40452194       1.82441294     -0.246999994       654.596802       2.66629410    
   5.07209921       2.10093188     -0.157000005       654.596802       2.66629410    
   5.48999977       0.00000000     -0.157000005       217.776749       2.69537091    
   4.76741982       0.00000000     -0.246999994       217.776749       2.69537091    
   4.67581606      0.930077016     -0.246999994       217.776749       2.69537091    
   5.38451099       1.07104599     -0.157000005       217.776749       2.69537091    
   5.38451099      -1.07104599     -0.157000005       226.411652     -0.509661794    
   4.67581606     -0.930077016     -0.246999994       226.411652     -0.509661794    
   4.76741982       0.00000000     -0.246999994       226.411652     -0.509661794    
   5.48999977       0.00000000     -0.157000005       226.411652     -0.509661794    
   5.07209921      -2.10093188     -0.157000005       663.448853     -0.494200170    
   4.40452194      -1.82441294     -0.246999994       663.448853     -0.494200170    
   4.67581606     -0.930077016     -0.246999994       663.448853     -0.494200170    
   5.38451099      -1.07104599     -0.157000005       663.448853     -0.494200170    
   4.56476784      -3.05008101     -0.157000005       1077.48718     -0.495612472    
   3.96396494      -2.64863706     -0.246999994       1077.48718     -0.495612472    
   4.40452194      -1.82441294     -0.246999994       1077.48718     -0.495612472    
   5.07209921      -2.10093188     -0.157000005       1077.48718     -0.495612472    
   3.88201594      -3.88201594     -0.157000005       1447.58594     -0.495342910    
   3.37107491      -3.37107491     -0.246999994       1447.58594     -0.495342910    
   3.96396494      -2.64863706     -0.246999994       1447.58594     -0.495342910    
   4.56476784      -3.05008101     -0.157000005       1447.58594     -0.495342910    
   3.05008101      -4.56476784     -0.157000005       1748.43091     -0.493532121    
   2.64863706      -3.96396494     -0.246999994       1748.43091     -0.493532121    
   3.37107491      -3.37107491     -0.246999994       1748.43091     -0.493532121    
   3.88201594      -3.88201594     -0.157000005       1748.43091     -0.493532121    
   2.10093188      -5.07209921     -0.157000005       1998.66663     -0.484800726    
   1.82441294      -4.40452194     -0.246999994       1998.66663     -0.484800726    
   2.64863706      -3.96396494     -0.246999994       1998.66663     -0.484800726    
   3.05008101      -4.56476784     -0.157000005       1998.66663     -0.484800726    
   1.07104599      -5.38451099     -0.157000005       2168.83081     -0.483393222    
  0.930077016      -4.67581606     -0.246999994       2168.83081     -0.483393222    
   1.82441294      -4.40452194     -0.246999994       2168.83081     -0.483393222    
   2.10093188      -5.07209921     -0.157000005       2168.83081     -0.483393222    
   0.00000000      -1.87709999     -0.606999993       11682.7100      -1.53322065    
   0.00000000      -1.36500001     -0.606999993       11682.7100      -1.53322065    
  0.266297996      -1.33877206     -0.606999993       11682.7100      -1.53322065    
  0.366203994      -1.84103203     -0.606999993       11682.7100      -1.53322065    
   0.00000000      -1.87709999     -0.606999993       6561.30957      -1.48017251    
   0.00000000      -2.59967995     -0.517000020       6561.30957      -1.48017251    
 -0.507171988      -2.54972792     -0.517000020       6561.30957      -1.48017251    
 -0.366203994      -1.84103203     -0.606999993       6561.30957      -1.48017251    
 -0.366203994      -1.84103203     -0.606999993       11692.5195      -1.53321648    
 -0.266297996      -1.33877206     -0.606999993       11692.5195      -1.53321648    
   0.00000000      -1.36500001     -0.606999993       11692.5195      -1.53321648    
   0.00000000      -1.87709999     -0.606999993       11692.5195      -1.53321648    
 -0.366203994      -1.84103203     -0.606999993       6367.47363      -1.48082817    
 -0.507171988      -2.54972792     -0.517000020       6367.47363      -1.48082817    
 -0.994853973      -2.40179110     -0.517000020       6367.47363      -1.48082817    
 -0.718334973      -1.73421395     -0.606999993       6367.47363      -1.48082817    
 -0.718334973      -1.73421395     -0.606999993       11294.3379      -1.53324544    
 -0.522363007      -1.26109600     -0.606999993       11294.3379      -1.53324544    
 -0.266297996      -1.33877206     -0.606999993       11294.3379      -1.53324544    
 -0.366203994      -1.84103203     -0.606999993       11294.3379      -1.53324544    
 -0.718334973      -1.73421395     -0.606999993       5956.16748      -1.48176777    
 -0.994853973      -2.40179110     -0.517000020       5956.16748      -1.48176777    
  -1.44430494      -2.16155505     -0.517000020       5956.16748      -1.48176777    
  -1.04286098      -1.56075203     -0.606999993       5956.16748      -1.48176777    
  -1.04286098      -1.56075203     -0.606999993       10479.1963      -1.53327560    
 -0.758352995      -1.13495600     -0.606999993       10479.1963      -1.53327560    
 -0.522363007      -1.26109600     -0.606999993       10479.1963      -1.53327560    
 -0.718334973      -1.73421395     -0.606999993       10479.1963      -1.53327560    
  -1.04286098      -1.56075203     -0.606999993       5296.02002      -1.48252165    
  -1.44430494      -2.16155505     -0.517000020       5296.02002      -1.48252165    
  -1.83825099      -1.83825099     -0.517000020       5296.02002      -1.48252165    
  -1.32730997      -1.32730997     -0.606999993       5296.02002      -1.48252165    
  -1.32730997      -1.32730997     -0.606999993       9242.46289      -1.53326070    
 -0.965201020     -0.965201020     -0.606999993       9242.46289      -1.53326070    
 -0.758352995      -1.13495600     -0.606999993       9242.46289      -1.53326070    
  -1.04286098      -1.56075203     -0.606999993       9242.46289      -1.53326070    
  -1.32730997      -1.32730997     -0.606999993       4369.97412      -1.48264682    
  -1.83825099      -1.83825099     -0.517000020       4369.97412      -1.48264682    
  -2.16155505      -1.44430494     -0.517000020       4369.97412      -1.48264682    
  -1.56075203      -1.04286098     -0.606999993       4369.97412      -1.48264682    
  -1.56075203      -1.04286098     -0.606999993       7610.95068      -1.53319180    
  -1.13495600     -0.758352995     -0.606999993       7610.95068      -1.53319180    
 -0.965201020     -0.965201020     -0.606999993       7610.95068      -1.53319180    
  -1.32730997      -1.32730997     -0.606999993       7610.95068      -1.53319180    
  -1.56075203      -1.04286098     -0.606999993       3216.73804      -1.48191428    
  -2.16155505      -1.44430494     -0.517000020       3216.73804      -1.48191428    
  -2.40179110     -0.994853973     -0.517000020       3216.73804      -1.48191428    
  -1.73421395     -0.718334973     -0.606999993       3216.73804      -1.48191428    
  -1.73421395     -0.718334973     -0.606999993       5658.88086      -1.53309953    
  -1.26109600     -0.522363007     -0.606999993       5658.88086      -1.53309953    
  -1.13495600     -0.758352995     -0.606999993       5658.88086      -1.53309953    
  -1.56075203      -1.04286098     -0.606999993       5658.88086      -1.53309953    
  -1.73421395     -0.718334973     -0.606999993       1951.01514      -1.48086882    
  -2.40179110     -0.994853973     -0.517000020       1951.01514      -1.48086882    
  -2.54972792     -0.507171988     -0.517000020       1951.01514      -1.48086882    
  -1.84103203     -0.366203994     -0.606999993       1951.01514      -1.48086882    
  -1.84103203     -0.366203994     -0.606999993       3496.90918      -1.53299975    
  -1.33877206     -0.266297996     -0.606999993       3496.90918      -1.53299975    
  -1.26109600     -0.522363007     -0.606999993       3496.90918      -1.53299975    
  -1.73421395     -0.718334973     -0.606999993       3496.90918      -1.53299975    
  -1.84103203     -0.366203994     -0.606999993       680.046875      -1.48205042    
  -2.54972792     -0.507171988     -0.517000020       680.046875      -1.48205042    
  -2.59967995       0.00000000     -0.517000020       680.046875      -1.48205042    
  -1.87709999       0.00000000     -0.606999993       680.046875      -1.48205042    
  -1.87709999       0.00000000     -0.606999993       1234.34473      -1.53281415    
  -1.36500001       0.00000000     -0.606999993       1234.34473      -1.53281415    
  -1.33877206     -0.266297996     -0.606999993       1234.34473      -1.53281415    
  -1.84103203     -0.366203994     -0.606999993       1234.34473      -1.53281415    
  -1.87709999       0.00000000     -0.606999993       561.427734       1.66936767    
  -2.59967995       0.00000000     -0.517000020       561.427734       1.66936767    
  -2.54972792      0.507171988     -0.517000020       561.427734       1.66936767    
  -1.84103203      0.366203994     -0.606999993       561.427734       1.66936767    
  -1.84103203      0.366203994     -0.606999993       1048.13550       1.60843050    
  -1.33877206      0.266297996     -0.606999993       1048.13550       1.60843050    
  -1.36500001       0.00000000     -0.606999993       1048.13550       1.60843050    
  -1.87709999       0.00000000     -0.606999993       1048.13550       1.60843050    
  -1.84103203      0.366203994     -0.606999993       1807.73096       1.66486704    
  -2.54972792      0.507171988     -0.517000020       1807.73096       1.66486704    
  -2.40179110      0.994853973     -0.517000020       1807.73096       1.66486704    
  -1.73421395      0.718334973     -0.606999993       1807.73096       1.66486704    
  -1.73421395      0.718334973     -0.606999993       3298.77734       1.60858965    
  -1.26109600      0.522363007     -0.606999993       3298.77734       1.60858965    
  -1.33877206      0.266297996     -0.606999993       3298.77734       1.60858965    
  -1.84103203      0.366203994     -0.606999993       3298.77734       1.60858965    
  -1.73421395      0.718334973     -0.606999993       3053.96558       1.66270745    
  -2.40179110      0.994853973     -0.517000020       3053.96558       1.66270745    
  -2.16155505       1.44430494     -0.517000020       3053.96558       1.66270745    
  -1.56075203       1.04286098     -0.606999993       3053.96558       1.66270745    
  -1.56075203       1.04286098     -0.606999993       5451.61768       1.60860741    
  -1.13495600      0.758352995     -0.606999993       5451.61768       1.60860741    
  -1.26109600      0.522363007     -0.606999993       5451.61768       1.60860741    
  -1.73421395      0.718334973     -0.606999993       5451.61768       1.60860741    
  -1.56075203       1.04286098     -0.606999993       4216.62598       1.66122234    
  -2.16155505       1.44430494     -0.517000020       4216.62598       1.66122234    
  -1.83825099       1.83825099     -0.517000020       4216.62598       1.66122234    
  -1.32730997       1.32730997     -0.606999993       4216.62598       1.66122234    
  -1.32730997       1.32730997     -0.606999993       7410.56982       1.60858989    
 -0.965201020      0.965201020     -0.606999993       7410.56982       1.60858989    
  -1.13495600      0.758352995     -0.606999993       7410.56982       1.60858989    
  -1.56075203       1.04286098     -0.606999993       7410.56982       1.60858989    
  -1.32730997       1.32730997     -0.606999993       5176.03320       1.66073501    
  -1.83825099       1.83825099     -0.517000020       5176.03320       1.66073501    
  -1.44430494       2.16155505     -0.517000020       5176.03320       1.66073501    
  -1.04286098       1.56075203     -0.606999993       5176.03320       1.66073501    
  -1.04286098       1.56075203     -0.606999993       9064.79590       1.60858083    
 -0.758352995       1.13495600     -0.606999993       9064.79590       1.60858083    
 -0.965201020      0.965201020     -0.606999993       9064.79590       1.60858083    
  -1.32730997       1.32730997     -0.606999993       9064.79590       1.60858083    
  -1.04286098       1.56075203     -0.606999993       5872.52295       1.66105938    
  -1.44430494       2.16155505     -0.517000020       5872.52295       1.66105938    
 -0.994853973       2.40179110     -0.517000020       5872.52295       1.66105938    
 -0.718334973       1.73421395     -0.606999993       5872.52295       1.66105938    
 -0.718334973       1.73421395     -0.606999993       10334.6074       1.60859942    
 -0.522363007       1.26109600     -0.606999993       10334.6074       1.60859942    
 -0.758352995       1.13495600     -0.606999993       10334.6074       1.60859942    
  -1.04286098       1.56075203     -0.606999993       10334.6074       1.60859942    
 -0.718334973       1.73421395     -0.606999993       6311.75586       1.66172957    
 -0.994853973       2.40179110     -0.517000020       6311.75586       1.66172957    
 -0.507171988       2.54972792     -0.517000020       6311.75586       1.66172957    
 -0.366203994       1.84103203     -0.606999993       6311.75586       1.66172957    
 -0.366203994       1.84103203     -0.606999993       11183.7520       1.60864258    
 -0.266297996       1.33877206     -0.606999993       11183.7520       1.60864258    
 -0.522363007       1.26109600     -0.606999993       11183.7520       1.60864258    
 -0.718334973       1.73421395     -0.606999993       11183.7520       1.60864258    
 -0.366203994       1.84103203     -0.606999993       6524.99072       1.66220951    
 -0.507171988       2.54972792     -0.517000020       6524.99072       1.66220951    
   0.00000000       2.59967995     -0.517000020       6524.99072       1.66220951    
   0.00000000       1.87709999     -0.606999993       6524.99072       1.66220951    
   0.00000000       1.87709999     -0.606999993       11610.9941       1.60867012    
   0.00000000       1.36500001     -0.606999993       11610.9941       1.60867012    
 -0.266297996       1.33877206     -0.606999993       11610.9941       1.60867012    
 -0.366203994       1.84103203     -0.606999993       11610.9941       1.60867012    
   0.00000000       1.87709999     -0.606999993       6531.88477       1.66213226    
   0.00000000       2.59967995     -0.517000020       6531.88477       1.66213226    
  0.507171988       2.54972792     -0.517000020       6531.88477       1.66213226    
  0.366203994       1.84103203     -0.606999993       6531.88477       1.66213226    
  0.366203994       1.84103203     -0.606999993       11622.3701       1.60864925    
  0.266297996       1.33877206     -0.606999993       11622.3701       1.60864925    
   0.00000000       1.36500001     -0.606999993       11622.3701       1.60864925    
   0.00000000       1.87709999     -0.606999993       11622.3701       1.60864925    
  0.366203994       1.84103203     -0.606999993       6332.25684       1.66149616    
  0.507171988       2.54972792     -0.517000020       6332.25684       1.66149616    
  0.994853973       2.40179110     -0.517000020       6332.25684       1.66149616    
  0.718334973       1.73421395     -0.606999993       6332.25684       1.66149616    
  0.718334973       1.73421395     -0.606999993       11217.3291       1.60857761    
  0.522363007       1.26109600     -0.606999993       11217.3291       1.60857761    
  0.266297996       1.33877206     -0.606999993       11217.3291       1.60857761    
  0.366203994       1.84103203     -0.606999993       11217.3291       1.60857761    
  0.718334973       1.73421395     -0.606999993       5906.06152       1.66064942    
  0.994853973       2.40179110     -0.517000020       5906.06152       1.66064942    
   1.44430494       2.16155505     -0.517000020       5906.06152       1.66064942    
   1.04286098       1.56075203     -0.606999993       5906.06152       1.66064942    
   1.04286098       1.56075203     -0.606999993       10388.7783       1.60848796    
  0.758352995       1.13495600     -0.606999993       10388.7783       1.60848796    
  0.522363007       1.26109600     -0.606999993       10388.7783       1.60848796    
  0.718334973       1.73421395     -0.606999993       10388.7783       1.60848796    
   1.04286098       1.56075203     -0.606999993       5221.68311       1.66010690    
   1.44430494       2.16155505     -0.517000020       5221.68311       1.66010690    
   1.83825099       1.83825099     -0.517000020       5221.68311       1.66010690    
   1.32730997       1.32730997     -0.606999993       5221.68311       1.66010690    
   1.32730997       1.32730997     -0.606999993       9137.54004       1.60841835    
  0.965201020      0.965201020     -0.606999993       9137.54004       1.60841835    
  0.758352995       1.13495600     -0.606999993       9137.54004       1.60841835    
   1.04286098       1.56075203     -0.606999993       9137.54004       1.60841835    
   1.32730997       1.32730997     -0.606999993       4272.24316       1.66029692    
   1.83825099       1.83825099     -0.517000020       4272.24316       1.66029692    
   2.16155505       1.44430494     -0.517000020       4272.24316       1.66029692    
   1.56075203       1.04286098     -0.606999993       4272.24316       1.66029692    
   1.56075203       1.04286098     -0.606999993       7498.18555       1.60837114    
   1.13495600      0.758352995     -0.606999993       7498.18555       1.60837114    
  0.965201020      0.965201020     -0.606999993       7498.18555       1.60837114    
   1.32730997       1.32730997     -0.606999993       7498.18555       1.60837114    
   1.56075203       1.04286098     -0.606999993       3116.14819       1.66130602    
   2.16155505       1.44430494     -0.517000020       3116.14819       1.66130602    
   2.40179110      0.994853973     -0.517000020       3116.14819       1.66130602    
   1.73421395      0.718334973     -0.606999993       3116.14819       1.66130602    
   1.73421395      0.718334973     -0.606999993       5547.88477       1.60832763    
   1.26109600      0.522363007     -0.606999993       5547.88477       1.60832763    
   1.13495600      0.758352995     -0.606999993       5547.88477       1.60832763    
   1.56075203       1.04286098     -0.606999993       5547.88477       1.60832763    
   1.73421395      0.718334973     -0.606999993       1873.08606       1.66244006    
   2.40179110      0.994853973     -0.517000020       1873.08606       1.66244006    
   2.54972792      0.507171988     -0.517000020       1873.08606       1.66244006    
   1.84103203      0.366203994     -0.606999993       1873.08606       1.66244006    
   1.84103203      0.366203994     -0.606999993       3399.07910       1.60819840    
   1.33877206      0.266297996     -0.606999993       3399.07910       1.60819840    
   1.26109600      0.522363007     -0.606999993       3399.07910       1.60819840    
   1.73421395      0.718334973     -0.606999993       3399.07910       1.60819840    
   1.84103203      0.366203994     -0.606999993       627.365479       1.66185319    
   2.54972792      0.507171988     -0.517000020       627.365479       1.66185319    
   2.59967995       0.00000000     -0.517000020       627.365479       1.66185319    
   1.87709999       0.00000000     -0.606999993       627.365479       1.66185319    
   1.87709999       0.00000000     -0.606999993       1149.26709       1.60752094    
   1.36500001       0.00000000     -0.606999993       1149.26709       1.60752094    
   1.33877206      0.266297996     -0.606999993       1149.26709       1.60752094    
   1.84103203      0.366203994     -0.606999993       1149.26709       1.60752094    
   1.87709999       0.00000000     -0.606999993       615.573975      -1.47579503    
   2.59967995       0.00000000     -0.517000020       615.573975      -1.47579503    
   2.54972792     -0.507171988     -0.517000020       615.573975      -1.47579503    
   1.84103203     -0.366203994     -0.606999993       615.573975      -1.47579503    
   1.84103203     -0.366203994     -0.606999993       1136.12146      -1.53214431    
   1.33877206     -0.266297996     -0.606999993       1136.12146      -1.53214431    
   1.36500001       0.00000000     -0.606999993       1136.12146      -1.53214431    
   1.87709999       0.00000000     -0.606999993       1136.12146      -1.53214431    
   1.84103203     -0.366203994     -0.606999993       1889.89758      -1.47893894    
   2.54972792     -0.507171988     -0.517000020       1889.89758      -1.47893894    
   2.40179110     -0.994853973     -0.517000020       1889.89758      -1.47893894    
   1.73421395     -0.718334973     -0.606999993       1889.89758      -1.47893894    
   1.73421395     -0.718334973     -0.606999993       3405.19238      -1.53288150    
   1.26109600     -0.522363007     -0.606999993       3405.19238      -1.53288150    
   1.33877206     -0.266297996     -0.606999993       3405.19238      -1.53288150    
   1.84103203     -0.366203994     -0.606999993       3405.19238      -1.53288150    
   1.73421395     -0.718334973     -0.606999993       3160.88794      -1.48089135    
   2.40179110     -0.994853973     -0.517000020       3160.88794      -1.48089135    
   2.16155505      -1.44430494     -0.517000020       3160.88794      -1.48089135    
   1.56075203      -1.04286098     -0.606999993       3160.88794      -1.48089135    
   1.56075203      -1.04286098     -0.606999993       5577.10889      -1.53309190    
   1.13495600     -0.758352995     -0.606999993       5577.10889      -1.53309190    
   1.26109600     -0.522363007     -0.606999993       5577.10889      -1.53309190    