 VARIABLES="X" "Y" "Z" "abs(p) (Pa)" "angle(p) (rad)"
ZONE N=   2709,E =    2358, F=FEPOINT, ET=QUADRILATERAL
   0.00000000      -5.48999977     -0.157000005       2284.87793      -1.23192883    
   0.00000000      -4.76741982     -0.246999994       2284.87793      -1.23192883    
  0.930077016      -4.67581606     -0.246999994       2284.87793      -1.23192883    
   1.07104599      -5.38451099     -0.157000005       2284.87793      -1.23192883    
  -1.07104599      -5.38451099     -0.157000005       2285.21851      -1.23202014    
 -0.930077016      -4.67581606     -0.246999994       2285.21851      -1.23202014    
   0.00000000      -4.76741982     -0.246999994       2285.21851      -1.23202014    
   0.00000000      -5.48999977     -0.157000005       2285.21851      -1.23202014    
  -2.10093188      -5.07209921     -0.157000005       2196.07812      -1.23291242    
  -1.82441294      -4.40452194     -0.246999994       2196.07812      -1.23291242    
 -0.930077016      -4.67581606     -0.246999994       2196.07812      -1.23291242    
  -1.07104599      -5.38451099     -0.157000005       2196.07812      -1.23291242    
  -3.05008101      -4.56476784     -0.157000005       2028.50171      -1.23258257    
  -2.64863706      -3.96396494     -0.246999994       2028.50171      -1.23258257    
  -1.82441294      -4.40452194     -0.246999994       2028.50171      -1.23258257    
  -2.10093188      -5.07209921     -0.157000005       2028.50171      -1.23258257    
  -3.88201594      -3.88201594     -0.157000005       1786.10376      -1.23401165    
  -3.37107491      -3.37107491     -0.246999994       1786.10376      -1.23401165    
  -2.64863706      -3.96396494     -0.246999994       1786.10376      -1.23401165    
  -3.05008101      -4.56476784     -0.157000005       1786.10376      -1.23401165    
  -4.56476784      -3.05008101     -0.157000005       1470.81323      -1.23658192    
  -3.96396494      -2.64863706     -0.246999994       1470.81323      -1.23658192    
  -3.37107491      -3.37107491     -0.246999994       1470.81323      -1.23658192    
  -3.88201594      -3.88201594     -0.157000005       1470.81323      -1.23658192    
  -5.07209921      -2.10093188     -0.157000005       1096.13025      -1.23637462    
  -4.40452194      -1.82441294     -0.246999994       1096.13025      -1.23637462    
  -3.96396494      -2.64863706     -0.246999994       1096.13025      -1.23637462    
  -4.56476784      -3.05008101     -0.157000005       1096.13025      -1.23637462    
  -5.38451099      -1.07104599     -0.157000005       676.520935      -1.23682749    
  -4.67581606     -0.930077016     -0.246999994       676.520935      -1.23682749    
  -4.40452194      -1.82441294     -0.246999994       676.520935      -1.23682749    
  -5.07209921      -2.10093188     -0.157000005       676.520935      -1.23682749    
  -5.48999977       0.00000000     -0.157000005       234.187088      -1.24622357    
  -4.76741982       0.00000000     -0.246999994       234.187088      -1.24622357    
  -4.67581606     -0.930077016     -0.246999994       234.187088      -1.24622357    
  -5.38451099      -1.07104599     -0.157000005       234.187088      -1.24622357    
  -5.38451099       1.07104599     -0.157000005       213.556900       1.92764187    
  -4.67581606      0.930077016     -0.246999994       213.556900       1.92764187    
  -4.76741982       0.00000000     -0.246999994       213.556900       1.92764187    
  -5.48999977       0.00000000     -0.157000005       213.556900       1.92764187    
  -5.07209921       2.10093188     -0.157000005       656.199341       1.91450953    
  -4.40452194       1.82441294     -0.246999994       656.199341       1.91450953    
  -4.67581606      0.930077016     -0.246999994       656.199341       1.91450953    
  -5.38451099       1.07104599     -0.157000005       656.199341       1.91450953    
  -4.56476784       3.05008101     -0.157000005       1080.01953       1.91026938    
  -3.96396494       2.64863706     -0.246999994       1080.01953       1.91026938    
  -4.40452194       1.82441294     -0.246999994       1080.01953       1.91026938    
  -5.07209921       2.10093188     -0.157000005       1080.01953       1.91026938    
  -3.88201594       3.88201594     -0.157000005       1464.89258       1.90888929    
  -3.37107491       3.37107491     -0.246999994       1464.89258       1.90888929    
  -3.96396494       2.64863706     -0.246999994       1464.89258       1.90888929    
  -4.56476784       3.05008101     -0.157000005       1464.89258       1.90888929    
  -3.05008101       4.56476784     -0.157000005       1784.04846       1.90813148    
  -2.64863706       3.96396494     -0.246999994       1784.04846       1.90813148    
  -3.37107491       3.37107491     -0.246999994       1784.04846       1.90813148    
  -3.88201594       3.88201594     -0.157000005       1784.04846       1.90813148    
  -2.10093188       5.07209921     -0.157000005       2032.60376       1.90961516    
  -1.82441294       4.40452194     -0.246999994       2032.60376       1.90961516    
  -2.64863706       3.96396494     -0.246999994       2032.60376       1.90961516    
  -3.05008101       4.56476784     -0.157000005       2032.60376       1.90961516    
  -1.07104599       5.38451099     -0.157000005       2203.35034       1.90905881    
 -0.930077016       4.67581606     -0.246999994       2203.35034       1.90905881    
  -1.82441294       4.40452194     -0.246999994       2203.35034       1.90905881    
  -2.10093188       5.07209921     -0.157000005       2203.35034       1.90905881    
   0.00000000       5.48999977     -0.157000005       2295.02417       1.90962052    
   0.00000000       4.76741982     -0.246999994       2295.02417       1.90962052    
 -0.930077016       4.67581606     -0.246999994       2295.02417       1.90962052    
  -1.07104599       5.38451099     -0.157000005       2295.02417       1.90962052    
   1.07104599       5.38451099     -0.157000005       2293.37378       1.90900934    
  0.930077016       4.67581606     -0.246999994       2293.37378       1.90900934    
   0.00000000       4.76741982     -0.246999994       2293.37378       1.90900934    
   0.00000000       5.48999977     -0.157000005       2293.37378       1.90900934    
   2.10093188       5.07209921     -0.157000005       2208.36938       1.90972030    
   1.82441294       4.40452194     -0.246999994       2208.36938       1.90972030    
  0.930077016       4.67581606     -0.246999994       2208.36938       1.90972030    
   1.07104599       5.38451099     -0.157000005       2208.36938       1.90972030    
   3.05008101       4.56476784     -0.157000005       2036.77014       1.90965128    
   2.64863706       3.96396494     -0.246999994       2036.77014       1.90965128    
   1.82441294       4.40452194     -0.246999994       2036.77014       1.90965128    
   2.10093188       5.07209921     -0.157000005       2036.77014       1.90965128    
   3.88201594       3.88201594     -0.157000005       1788.65186       1.90794504    
   3.37107491       3.37107491     -0.246999994       1788.65186       1.90794504    
   2.64863706       3.96396494     -0.246999994       1788.65186       1.90794504    
   3.05008101       4.56476784     -0.157000005       1788.65186       1.90794504    
   4.56476784       3.05008101     -0.157000005       1469.02783       1.90808213    
   3.96396494       2.64863706     -0.246999994       1469.02783       1.90808213    
   3.37107491       3.37107491     -0.246999994       1469.02783       1.90808213    
   3.88201594       3.88201594     -0.157000005       1469.02783       1.90808213    
   5.07209921       2.10093188     -0.157000005       1086.20630       1.90990281    
   4.40452194       1.82441294     -0.246999994       1086.20630       1.90990281    
   3.96396494       2.64863706     -0.246999994       1086.20630       1.90990281    
   4.56476784       3.05008101     -0.157000005       1086.20630       1.90990281    
   5.38451099       1.07104599     -0.157000005       664.612427       1.91487336    
   4.67581606      0.930077016     -0.246999994       664.612427       1.91487336    
   4.40452194       1.82441294     -0.246999994       664.612427       1.91487336    
   5.07209921       2.10093188     -0.157000005       664.612427       1.91487336    
   5.48999977       0.00000000     -0.157000005       221.817856       1.92721963    
   4.76741982       0.00000000     -0.246999994       221.817856       1.92721963    
   4.67581606      0.930077016     -0.246999994       221.817856       1.92721963    
   5.38451099       1.07104599     -0.157000005       221.817856       1.92721963    
   5.38451099      -1.07104599     -0.157000005       226.703918      -1.24540377    
   4.67581606     -0.930077016     -0.246999994       226.703918      -1.24540377    
   4.76741982       0.00000000     -0.246999994       226.703918      -1.24540377    
   5.48999977       0.00000000     -0.157000005       226.703918      -1.24540377    
   5.07209921      -2.10093188     -0.157000005       669.328613      -1.23651135    
   4.40452194      -1.82441294     -0.246999994       669.328613      -1.23651135    
   4.67581606     -0.930077016     -0.246999994       669.328613      -1.23651135    
   5.38451099      -1.07104599     -0.157000005       669.328613      -1.23651135    
   4.56476784      -3.05008101     -0.157000005       1090.31323      -1.23592794    
   3.96396494      -2.64863706     -0.246999994       1090.31323      -1.23592794    
   4.40452194      -1.82441294     -0.246999994       1090.31323      -1.23592794    
   5.07209921      -2.10093188     -0.157000005       1090.31323      -1.23592794    
   3.88201594      -3.88201594     -0.157000005       1467.73254      -1.23551142    
   3.37107491      -3.37107491     -0.246999994       1467.73254      -1.23551142    
   3.96396494      -2.64863706     -0.246999994       1467.73254      -1.23551142    
   4.56476784      -3.05008101     -0.157000005       1467.73254      -1.23551142    
   3.05008101      -4.56476784     -0.157000005       1779.54761      -1.23465192    
   2.64863706      -3.96396494     -0.246999994       1779.54761      -1.23465192    
   3.37107491      -3.37107491     -0.246999994       1779.54761      -1.23465192    
   3.88201594      -3.88201594     -0.157000005       1779.54761      -1.23465192    
   2.10093188      -5.07209921     -0.157000005       2025.27808      -1.23249269    
   1.82441294      -4.40452194     -0.246999994       2025.27808      -1.23249269    
   2.64863706      -3.96396494     -0.246999994       2025.27808      -1.23249269    
   3.05008101      -4.56476784     -0.157000005       2025.27808      -1.23249269    
   1.07104599      -5.38451099     -0.157000005       2197.17505      -1.23207772    
  0.930077016      -4.67581606     -0.246999994       2197.17505      -1.23207772    
   1.82441294      -4.40452194     -0.246999994       2197.17505      -1.23207772    
   2.10093188      -5.07209921     -0.157000005       2197.17505      -1.23207772    
   0.00000000      -1.87709999     -0.606999993       9067.20312      -1.55023837    
   0.00000000      -1.36500001     -0.606999993       9067.20312      -1.55023837    
  0.266297996      -1.33877206     -0.606999993       9067.20312      -1.55023837    
  0.366203994      -1.84103203     -0.606999993       9067.20312      -1.55023837    
   0.00000000      -1.87709999     -0.606999993       5595.96240      -1.51881206    
   0.00000000      -2.59967995     -0.517000020       5595.96240      -1.51881206    
 -0.507171988      -2.54972792     -0.517000020       5595.96240      -1.51881206    
 -0.366203994      -1.84103203     -0.606999993       5595.96240      -1.51881206    
 -0.366203994      -1.84103203     -0.606999993       9077.70898      -1.55023873    
 -0.266297996      -1.33877206     -0.606999993       9077.70898      -1.55023873    
   0.00000000      -1.36500001     -0.606999993       9077.70898      -1.55023873    
   0.00000000      -1.87709999     -0.606999993       9077.70898      -1.55023873    
 -0.366203994      -1.84103203     -0.606999993       5421.89160      -1.51907086    
 -0.507171988      -2.54972792     -0.517000020       5421.89160      -1.51907086    
 -0.994853973      -2.40179110     -0.517000020       5421.89160      -1.51907086    
 -0.718334973      -1.73421395     -0.606999993       5421.89160      -1.51907086    
 -0.718334973      -1.73421395     -0.606999993       8767.27832      -1.55023634    
 -0.522363007      -1.26109600     -0.606999993       8767.27832      -1.55023634    
 -0.266297996      -1.33877206     -0.606999993       8767.27832      -1.55023634    
 -0.366203994      -1.84103203     -0.606999993       8767.27832      -1.55023634    
 -0.718334973      -1.73421395     -0.606999993       5059.34766      -1.51945782    
 -0.994853973      -2.40179110     -0.517000020       5059.34766      -1.51945782    
  -1.44430494      -2.16155505     -0.517000020       5059.34766      -1.51945782    
  -1.04286098      -1.56075203     -0.606999993       5059.34766      -1.51945782    
  -1.04286098      -1.56075203     -0.606999993       8132.07568      -1.55023050    
 -0.758352995      -1.13495600     -0.606999993       8132.07568      -1.55023050    
 -0.522363007      -1.26109600     -0.606999993       8132.07568      -1.55023050    
 -0.718334973      -1.73421395     -0.606999993       8132.07568      -1.55023050    
  -1.04286098      -1.56075203     -0.606999993       4490.78418      -1.51982379    
  -1.44430494      -2.16155505     -0.517000020       4490.78418      -1.51982379    
  -1.83825099      -1.83825099     -0.517000020       4490.78418      -1.51982379    
  -1.32730997      -1.32730997     -0.606999993       4490.78418      -1.51982379    
  -1.32730997      -1.32730997     -0.606999993       7172.11133      -1.55022740    
 -0.965201020     -0.965201020     -0.606999993       7172.11133      -1.55022740    
 -0.758352995      -1.13495600     -0.606999993       7172.11133      -1.55022740    
  -1.04286098      -1.56075203     -0.606999993       7172.11133      -1.55022740    
  -1.32730997      -1.32730997     -0.606999993       3706.93457      -1.52001452    
  -1.83825099      -1.83825099     -0.517000020       3706.93457      -1.52001452    
  -2.16155505      -1.44430494     -0.517000020       3706.93457      -1.52001452    
  -1.56075203      -1.04286098     -0.606999993       3706.93457      -1.52001452    
  -1.56075203      -1.04286098     -0.606999993       5909.40283      -1.55025029    
  -1.13495600     -0.758352995     -0.606999993       5909.40283      -1.55025029    
 -0.965201020     -0.965201020     -0.606999993       5909.40283      -1.55025029    
  -1.32730997      -1.32730997     -0.606999993       5909.40283      -1.55025029    
  -1.56075203      -1.04286098     -0.606999993       2737.89917      -1.51998496    
  -2.16155505      -1.44430494     -0.517000020       2737.89917      -1.51998496    
  -2.40179110     -0.994853973     -0.517000020       2737.89917      -1.51998496    
  -1.73421395     -0.718334973     -0.606999993       2737.89917      -1.51998496    
  -1.73421395     -0.718334973     -0.606999993       4399.58887      -1.55035090    
  -1.26109600     -0.522363007     -0.606999993       4399.58887      -1.55035090    
  -1.13495600     -0.758352995     -0.606999993       4399.58887      -1.55035090    
  -1.56075203      -1.04286098     -0.606999993       4399.58887      -1.55035090    
  -1.73421395     -0.718334973     -0.606999993       1669.89221      -1.52011192    
  -2.40179110     -0.994853973     -0.517000020       1669.89221      -1.52011192    
  -2.54972792     -0.507171988     -0.517000020       1669.89221      -1.52011192    
  -1.84103203     -0.366203994     -0.606999993       1669.89221      -1.52011192    
  -1.84103203     -0.366203994     -0.606999993       2725.35571      -1.55060375    
  -1.33877206     -0.266297996     -0.606999993       2725.35571      -1.55060375    
  -1.26109600     -0.522363007     -0.606999993       2725.35571      -1.55060375    
  -1.73421395     -0.718334973     -0.606999993       2725.35571      -1.55060375    
  -1.84103203     -0.366203994     -0.606999993       586.733154      -1.52290034    
  -2.54972792     -0.507171988     -0.517000020       586.733154      -1.52290034    
  -2.59967995       0.00000000     -0.517000020       586.733154      -1.52290034    
  -1.87709999       0.00000000     -0.606999993       586.733154      -1.52290034    
  -1.87709999       0.00000000     -0.606999993       969.916748      -1.55166376    
  -1.36500001       0.00000000     -0.606999993       969.916748      -1.55166376    
  -1.33877206     -0.266297996     -0.606999993       969.916748      -1.55166376    
  -1.84103203     -0.366203994     -0.606999993       969.916748      -1.55166376    
  -1.87709999       0.00000000     -0.606999993       479.537781       1.63026392    
  -2.59967995       0.00000000     -0.517000020       479.537781       1.63026392    
  -2.54972792      0.507171988     -0.517000020       479.537781       1.63026392    
  -1.84103203      0.366203994     -0.606999993       479.537781       1.63026392    
  -1.84103203      0.366203994     -0.606999993       803.338623       1.59341395    
  -1.33877206      0.266297996     -0.606999993       803.338623       1.59341395    
  -1.36500001       0.00000000     -0.606999993       803.338623       1.59341395    
  -1.87709999       0.00000000     -0.606999993       803.338623       1.59341395    
  -1.84103203      0.366203994     -0.606999993       1546.13293       1.62553692    
  -2.54972792      0.507171988     -0.517000020       1546.13293       1.62553692    
  -2.40179110      0.994853973     -0.517000020       1546.13293       1.62553692    
  -1.73421395      0.718334973     -0.606999993       1546.13293       1.62553692    
  -1.73421395      0.718334973     -0.606999993       2551.59546       1.59211481    
  -1.26109600      0.522363007     -0.606999993       2551.59546       1.59211481    
  -1.33877206      0.266297996     -0.606999993       2551.59546       1.59211481    
  -1.84103203      0.366203994     -0.606999993       2551.59546       1.59211481    
  -1.73421395      0.718334973     -0.606999993       2602.32642       1.62415028    
  -2.40179110      0.994853973     -0.517000020       2602.32642       1.62415028    
  -2.16155505       1.44430494     -0.517000020       2602.32642       1.62415028    
  -1.56075203       1.04286098     -0.606999993       2602.32642       1.62415028    
  -1.56075203       1.04286098     -0.606999993       4221.94385       1.59190130    
  -1.13495600      0.758352995     -0.606999993       4221.94385       1.59190130    
  -1.26109600      0.522363007     -0.606999993       4221.94385       1.59190130    
  -1.73421395      0.718334973     -0.606999993       4221.94385       1.59190130    
  -1.56075203       1.04286098     -0.606999993       3580.84497       1.62336361    
  -2.16155505       1.44430494     -0.517000020       3580.84497       1.62336361    
  -1.83825099       1.83825099     -0.517000020       3580.84497       1.62336361    
  -1.32730997       1.32730997     -0.606999993       3580.84497       1.62336361    
  -1.32730997       1.32730997     -0.606999993       5740.40283       1.59181511    
 -0.965201020      0.965201020     -0.606999993       5740.40283       1.59181511    
  -1.13495600      0.758352995     -0.606999993       5740.40283       1.59181511    
  -1.56075203       1.04286098     -0.606999993       5740.40283       1.59181511    
  -1.32730997       1.32730997     -0.606999993       4391.44531       1.62306452    
  -1.83825099       1.83825099     -0.517000020       4391.44531       1.62306452    
  -1.44430494       2.16155505     -0.517000020       4391.44531       1.62306452    
  -1.04286098       1.56075203     -0.606999993       4391.44531       1.62306452    
  -1.04286098       1.56075203     -0.606999993       7023.75098       1.59175527    
 -0.758352995       1.13495600     -0.606999993       7023.75098       1.59175527    
 -0.965201020      0.965201020     -0.606999993       7023.75098       1.59175527    
  -1.32730997       1.32730997     -0.606999993       7023.75098       1.59175527    
  -1.04286098       1.56075203     -0.606999993       4988.90918       1.62310922    
  -1.44430494       2.16155505     -0.517000020       4988.90918       1.62310922    
 -0.994853973       2.40179110     -0.517000020       4988.90918       1.62310922    
 -0.718334973       1.73421395     -0.606999993       4988.90918       1.62310922    
 -0.718334973       1.73421395     -0.606999993       8012.35791       1.59170496    
 -0.522363007       1.26109600     -0.606999993       8012.35791       1.59170496    
 -0.758352995       1.13495600     -0.606999993       8012.35791       1.59170496    
  -1.04286098       1.56075203     -0.606999993       8012.35791       1.59170496    
 -0.718334973       1.73421395     -0.606999993       5374.66748       1.62329209    
 -0.994853973       2.40179110     -0.517000020       5374.66748       1.62329209    
 -0.507171988       2.54972792     -0.517000020       5374.66748       1.62329209    
 -0.366203994       1.84103203     -0.606999993       5374.66748       1.62329209    
 -0.366203994       1.84103203     -0.606999993       8677.38379       1.59166813    
 -0.266297996       1.33877206     -0.606999993       8677.38379       1.59166813    
 -0.522363007       1.26109600     -0.606999993       8677.38379       1.59166813    
 -0.718334973       1.73421395     -0.606999993       8677.38379       1.59166813    
 -0.366203994       1.84103203     -0.606999993       5566.25293       1.62341785    
 -0.507171988       2.54972792     -0.517000020       5566.25293       1.62341785    
   0.00000000       2.59967995     -0.517000020       5566.25293       1.62341785    
   0.00000000       1.87709999     -0.606999993       5566.25293       1.62341785    
   0.00000000       1.87709999     -0.606999993       9014.74121       1.59164333    
   0.00000000       1.36500001     -0.606999993       9014.74121       1.59164333    
 -0.266297996       1.33877206     -0.606999993       9014.74121       1.59164333    
 -0.366203994       1.84103203     -0.606999993       9014.74121       1.59164333    
   0.00000000       1.87709999     -0.606999993       5573.05225       1.62336683    
   0.00000000       2.59967995     -0.517000020       5573.05225       1.62336683    
  0.507171988       2.54972792     -0.517000020       5573.05225       1.62336683    
  0.366203994       1.84103203     -0.606999993       5573.05225       1.62336683    
  0.366203994       1.84103203     -0.606999993       9026.09473       1.59162652    
  0.266297996       1.33877206     -0.606999993       9026.09473       1.59162652    
   0.00000000       1.36500001     -0.606999993       9026.09473       1.59162652    
   0.00000000       1.87709999     -0.606999993       9026.09473       1.59162652    
  0.366203994       1.84103203     -0.606999993       5394.84424       1.62313759    
  0.507171988       2.54972792     -0.517000020       5394.84424       1.62313759    
  0.994853973       2.40179110     -0.517000020       5394.84424       1.62313759    
  0.718334973       1.73421395     -0.606999993       5394.84424       1.62313759    
  0.718334973       1.73421395     -0.606999993       8711.00684       1.59161711    
  0.522363007       1.26109600     -0.606999993       8711.00684       1.59161711    
  0.266297996       1.33877206     -0.606999993       8711.00684       1.59161711    
  0.366203994       1.84103203     -0.606999993       8711.00684       1.59161711    
  0.718334973       1.73421395     -0.606999993       5021.95703       1.62283695    
  0.994853973       2.40179110     -0.517000020       5021.95703       1.62283695    
   1.44430494       2.16155505     -0.517000020       5021.95703       1.62283695    
   1.04286098       1.56075203     -0.606999993       5021.95703       1.62283695    
   1.04286098       1.56075203     -0.606999993       8066.79883       1.59161675    
  0.758352995       1.13495600     -0.606999993       8066.79883       1.59161675    
  0.522363007       1.26109600     -0.606999993       8066.79883       1.59161675    
  0.718334973       1.73421395     -0.606999993       8066.79883       1.59161675    
   1.04286098       1.56075203     -0.606999993       4436.37549       1.62264490    
   1.44430494       2.16155505     -0.517000020       4436.37549       1.62264490    
   1.83825099       1.83825099     -0.517000020       4436.37549       1.62264490    
   1.32730997       1.32730997     -0.606999993       4436.37549       1.62264490    
   1.32730997       1.32730997     -0.606999993       7097.12549       1.59162295    
  0.965201020      0.965201020     -0.606999993       7097.12549       1.59162295    
  0.758352995       1.13495600     -0.606999993       7097.12549       1.59162295    
   1.04286098       1.56075203     -0.606999993       7097.12549       1.59162295    
   1.32730997       1.32730997     -0.606999993       3635.73486       1.62274063    
   1.83825099       1.83825099     -0.517000020       3635.73486       1.62274063    
   2.16155505       1.44430494     -0.517000020       3635.73486       1.62274063    
   1.56075203       1.04286098     -0.606999993       3635.73486       1.62274063    
   1.56075203       1.04286098     -0.606999993       5829.26562       1.59162962    
   1.13495600      0.758352995     -0.606999993       5829.26562       1.59162962    
  0.965201020      0.965201020     -0.606999993       5829.26562       1.59162962    
   1.32730997       1.32730997     -0.606999993       5829.26562       1.59162962    
   1.56075203       1.04286098     -0.606999993       2664.14355       1.62319577    
   2.16155505       1.44430494     -0.517000020       2664.14355       1.62319577    
   2.40179110      0.994853973     -0.517000020       2664.14355       1.62319577    
   1.73421395      0.718334973     -0.606999993       2664.14355       1.62319577    
   1.73421395      0.718334973     -0.606999993       4320.87207       1.59164822    
   1.26109600      0.522363007     -0.606999993       4320.87207       1.59164822    
   1.13495600      0.758352995     -0.606999993       4320.87207       1.59164822    
   1.56075203       1.04286098     -0.606999993       4320.87207       1.59164822    
   1.73421395      0.718334973     -0.606999993       1611.73413       1.62385380    
   2.40179110      0.994853973     -0.517000020       1611.73413       1.62385380    
   2.54972792      0.507171988     -0.517000020       1611.73413       1.62385380    
   1.84103203      0.366203994     -0.606999993       1611.73413       1.62385380    
   1.84103203      0.366203994     -0.606999993       2656.10034       1.59172404    
   1.33877206      0.266297996     -0.606999993       2656.10034       1.59172404    
   1.26109600      0.522363007     -0.606999993       2656.10034       1.59172404    
   1.73421395      0.718334973     -0.606999993       2656.10034       1.59172404    
   1.84103203      0.366203994     -0.606999993       546.342957       1.62476814    
   2.54972792      0.507171988     -0.517000020       546.342957       1.62476814    
   2.59967995       0.00000000     -0.517000020       546.342957       1.62476814    
   1.87709999       0.00000000     -0.606999993       546.342957       1.62476814    
   1.87709999       0.00000000     -0.606999993       909.903198       1.59223521    
   1.36500001       0.00000000     -0.606999993       909.903198       1.59223521    
   1.33877206      0.266297996     -0.606999993       909.903198       1.59223521    
   1.84103203      0.366203994     -0.606999993       909.903198       1.59223521    
   1.87709999       0.00000000     -0.606999993       520.884644      -1.51880419    
   2.59967995       0.00000000     -0.517000020       520.884644      -1.51880419    
   2.54972792     -0.507171988     -0.517000020       520.884644      -1.51880419    
   1.84103203     -0.366203994     -0.606999993       520.884644      -1.51880419    
   1.84103203     -0.366203994     -0.606999993       865.202332      -1.55102253    
   1.33877206     -0.266297996     -0.606999993       865.202332      -1.55102253    
   1.36500001       0.00000000     -0.606999993       865.202332      -1.55102253    
   1.87709999       0.00000000     -0.606999993       865.202332      -1.55102253    
   1.84103203     -0.366203994     -0.606999993       1607.09973      -1.51876748    
   2.54972792     -0.507171988     -0.517000020       1607.09973      -1.51876748    
   2.40179110     -0.994853973     -0.517000020       1607.09973      -1.51876748    
   1.73421395     -0.718334973     -0.606999993       1607.09973      -1.51876748    
   1.73421395     -0.718334973     -0.606999993       2626.36987      -1.55041695    
   1.26109600     -0.522363007     -0.606999993       2626.36987      -1.55041695    
   1.33877206     -0.266297996     -0.606999993       2626.36987      -1.55041695    
   1.84103203     -0.366203994     -0.606999993       2626.36987      -1.55041695    
   1.73421395     -0.718334973     -0.606999993       2680.29126      -1.51925695    
   2.40179110     -0.994853973     -0.517000020       2680.29126      -1.51925695    
   2.16155505      -1.44430494     -0.517000020       2680.29126      -1.51925695    
   1.56075203      -1.04286098     -0.606999993       2680.29126      -1.51925695    
   1.56075203      -1.04286098     -0.606999993       4310.15234      -1.55027795    
   1.13495600     -0.758352995     -0.606999993       4310.15234      -1.55027795    
   1.26109600     -0.522363007     -0.606999993       4310.15234      -1.55027795    