 VARIABLES="X" "Y" "Z" "abs(p) (Pa)" "angle(p) (rad)"
ZONE N=   2709,E =    2358, F=FEPOINT, ET=QUADRILATERAL
   0.00000000      -5.48999977     -0.157000005       46.3718567      -1.57264733    
   0.00000000      -4.76741982     -0.246999994       46.3718567      -1.57264733    
  0.930077016      -4.67581606     -0.246999994       46.3718567      -1.57264733    
   1.07104599      -5.38451099     -0.157000005       46.3718567      -1.57264733    
  -1.07104599      -5.38451099     -0.157000005       47.8425941       1.56806242    
 -0.930077016      -4.67581606     -0.246999994       47.8425941       1.56806242    
   0.00000000      -4.76741982     -0.246999994       47.8425941       1.56806242    
   0.00000000      -5.48999977     -0.157000005       47.8425941       1.56806242    
  -2.10093188      -5.07209921     -0.157000005       139.546463       1.56603217    
  -1.82441294      -4.40452194     -0.246999994       139.546463       1.56603217    
 -0.930077016      -4.67581606     -0.246999994       139.546463       1.56603217    
  -1.07104599      -5.38451099     -0.157000005       139.546463       1.56603217    
  -3.05008101      -4.56476784     -0.157000005       204.939240       1.56344998    
  -2.64863706      -3.96396494     -0.246999994       204.939240       1.56344998    
  -1.82441294      -4.40452194     -0.246999994       204.939240       1.56344998    
  -2.10093188      -5.07209921     -0.157000005       204.939240       1.56344998    
  -3.88201594      -3.88201594     -0.157000005       269.054688       1.56313729    
  -3.37107491      -3.37107491     -0.246999994       269.054688       1.56313729    
  -2.64863706      -3.96396494     -0.246999994       269.054688       1.56313729    
  -3.05008101      -4.56476784     -0.157000005       269.054688       1.56313729    
  -4.56476784      -3.05008101     -0.157000005       336.886017       1.56549919    
  -3.96396494      -2.64863706     -0.246999994       336.886017       1.56549919    
  -3.37107491      -3.37107491     -0.246999994       336.886017       1.56549919    
  -3.88201594      -3.88201594     -0.157000005       336.886017       1.56549919    
  -5.07209921      -2.10093188     -0.157000005       380.299652       1.56535125    
  -4.40452194      -1.82441294     -0.246999994       380.299652       1.56535125    
  -3.96396494      -2.64863706     -0.246999994       380.299652       1.56535125    
  -4.56476784      -3.05008101     -0.157000005       380.299652       1.56535125    
  -5.38451099      -1.07104599     -0.157000005       417.676086       1.56408024    
  -4.67581606     -0.930077016     -0.246999994       417.676086       1.56408024    
  -4.40452194      -1.82441294     -0.246999994       417.676086       1.56408024    
  -5.07209921      -2.10093188     -0.157000005       417.676086       1.56408024    
  -5.48999977       0.00000000     -0.157000005       442.523285       1.56401861    
  -4.76741982       0.00000000     -0.246999994       442.523285       1.56401861    
  -4.67581606     -0.930077016     -0.246999994       442.523285       1.56401861    
  -5.38451099      -1.07104599     -0.157000005       442.523285       1.56401861    
  -5.38451099       1.07104599     -0.157000005       445.789246       1.56397998    
  -4.67581606      0.930077016     -0.246999994       445.789246       1.56397998    
  -4.76741982       0.00000000     -0.246999994       445.789246       1.56397998    
  -5.48999977       0.00000000     -0.157000005       445.789246       1.56397998    
  -5.07209921       2.10093188     -0.157000005       437.274048       1.56431079    
  -4.40452194       1.82441294     -0.246999994       437.274048       1.56431079    
  -4.67581606      0.930077016     -0.246999994       437.274048       1.56431079    
  -5.38451099       1.07104599     -0.157000005       437.274048       1.56431079    
  -4.56476784       3.05008101     -0.157000005       399.652771       1.56425726    
  -3.96396494       2.64863706     -0.246999994       399.652771       1.56425726    
  -4.40452194       1.82441294     -0.246999994       399.652771       1.56425726    
  -5.07209921       2.10093188     -0.157000005       399.652771       1.56425726    
  -3.88201594       3.88201594     -0.157000005       335.820892       1.56311154    
  -3.37107491       3.37107491     -0.246999994       335.820892       1.56311154    
  -3.96396494       2.64863706     -0.246999994       335.820892       1.56311154    
  -4.56476784       3.05008101     -0.157000005       335.820892       1.56311154    
  -3.05008101       4.56476784     -0.157000005       279.318695       1.56433809    
  -2.64863706       3.96396494     -0.246999994       279.318695       1.56433809    
  -3.37107491       3.37107491     -0.246999994       279.318695       1.56433809    
  -3.88201594       3.88201594     -0.157000005       279.318695       1.56433809    
  -2.10093188       5.07209921     -0.157000005       204.609222       1.56265211    
  -1.82441294       4.40452194     -0.246999994       204.609222       1.56265211    
  -2.64863706       3.96396494     -0.246999994       204.609222       1.56265211    
  -3.05008101       4.56476784     -0.157000005       204.609222       1.56265211    
  -1.07104599       5.38451099     -0.157000005       136.599487       1.56562364    
 -0.930077016       4.67581606     -0.246999994       136.599487       1.56562364    
  -1.82441294       4.40452194     -0.246999994       136.599487       1.56562364    
  -2.10093188       5.07209921     -0.157000005       136.599487       1.56562364    
   0.00000000       5.48999977     -0.157000005       46.4514961       1.57408118    
   0.00000000       4.76741982     -0.246999994       46.4514961       1.57408118    
 -0.930077016       4.67581606     -0.246999994       46.4514961       1.57408118    
  -1.07104599       5.38451099     -0.157000005       46.4514961       1.57408118    
   1.07104599       5.38451099     -0.157000005       48.9337959      -1.57476127    
  0.930077016       4.67581606     -0.246999994       48.9337959      -1.57476127    
   0.00000000       4.76741982     -0.246999994       48.9337959      -1.57476127    
   0.00000000       5.48999977     -0.157000005       48.9337959      -1.57476127    
   2.10093188       5.07209921     -0.157000005       134.002106      -1.57394183    
   1.82441294       4.40452194     -0.246999994       134.002106      -1.57394183    
  0.930077016       4.67581606     -0.246999994       134.002106      -1.57394183    
   1.07104599       5.38451099     -0.157000005       134.002106      -1.57394183    
   3.05008101       4.56476784     -0.157000005       204.508377      -1.57936358    
   2.64863706       3.96396494     -0.246999994       204.508377      -1.57936358    
   1.82441294       4.40452194     -0.246999994       204.508377      -1.57936358    
   2.10093188       5.07209921     -0.157000005       204.508377      -1.57936358    
   3.88201594       3.88201594     -0.157000005       280.701233      -1.57792997    
   3.37107491       3.37107491     -0.246999994       280.701233      -1.57792997    
   2.64863706       3.96396494     -0.246999994       280.701233      -1.57792997    
   3.05008101       4.56476784     -0.157000005       280.701233      -1.57792997    
   4.56476784       3.05008101     -0.157000005       340.352051      -1.57641542    
   3.96396494       2.64863706     -0.246999994       340.352051      -1.57641542    
   3.37107491       3.37107491     -0.246999994       340.352051      -1.57641542    
   3.88201594       3.88201594     -0.157000005       340.352051      -1.57641542    
   5.07209921       2.10093188     -0.157000005       398.777588      -1.57607234    
   4.40452194       1.82441294     -0.246999994       398.777588      -1.57607234    
   3.96396494       2.64863706     -0.246999994       398.777588      -1.57607234    
   4.56476784       3.05008101     -0.157000005       398.777588      -1.57607234    
   5.38451099       1.07104599     -0.157000005       423.038208      -1.57834852    
   4.67581606      0.930077016     -0.246999994       423.038208      -1.57834852    
   4.40452194       1.82441294     -0.246999994       423.038208      -1.57834852    
   5.07209921       2.10093188     -0.157000005       423.038208      -1.57834852    
   5.48999977       0.00000000     -0.157000005       430.052704      -1.57752335    
   4.76741982       0.00000000     -0.246999994       430.052704      -1.57752335    
   4.67581606      0.930077016     -0.246999994       430.052704      -1.57752335    
   5.38451099       1.07104599     -0.157000005       430.052704      -1.57752335    
   5.38451099      -1.07104599     -0.157000005       427.775726      -1.57728529    
   4.67581606     -0.930077016     -0.246999994       427.775726      -1.57728529    
   4.76741982       0.00000000     -0.246999994       427.775726      -1.57728529    
   5.48999977       0.00000000     -0.157000005       427.775726      -1.57728529    
   5.07209921      -2.10093188     -0.157000005       416.378632      -1.57774997    
   4.40452194      -1.82441294     -0.246999994       416.378632      -1.57774997    
   4.67581606     -0.930077016     -0.246999994       416.378632      -1.57774997    
   5.38451099      -1.07104599     -0.157000005       416.378632      -1.57774997    
   4.56476784      -3.05008101     -0.157000005       379.501343      -1.57720006    
   3.96396494      -2.64863706     -0.246999994       379.501343      -1.57720006    
   4.40452194      -1.82441294     -0.246999994       379.501343      -1.57720006    
   5.07209921      -2.10093188     -0.157000005       379.501343      -1.57720006    
   3.88201594      -3.88201594     -0.157000005       328.681305      -1.57767212    
   3.37107491      -3.37107491     -0.246999994       328.681305      -1.57767212    
   3.96396494      -2.64863706     -0.246999994       328.681305      -1.57767212    
   4.56476784      -3.05008101     -0.157000005       328.681305      -1.57767212    
   3.05008101      -4.56476784     -0.157000005       276.082153      -1.57789731    
   2.64863706      -3.96396494     -0.246999994       276.082153      -1.57789731    
   3.37107491      -3.37107491     -0.246999994       276.082153      -1.57789731    
   3.88201594      -3.88201594     -0.157000005       276.082153      -1.57789731    
   2.10093188      -5.07209921     -0.157000005       204.557831      -1.57786202    
   1.82441294      -4.40452194     -0.246999994       204.557831      -1.57786202    
   2.64863706      -3.96396494     -0.246999994       204.557831      -1.57786202    
   3.05008101      -4.56476784     -0.157000005       204.557831      -1.57786202    
   1.07104599      -5.38451099     -0.157000005       134.270874      -1.57350051    
  0.930077016      -4.67581606     -0.246999994       134.270874      -1.57350051    
   1.82441294      -4.40452194     -0.246999994       134.270874      -1.57350051    
   2.10093188      -5.07209921     -0.157000005       134.270874      -1.57350051    
   0.00000000      -1.87709999     -0.606999993       1484.63098      -1.56953239    
   0.00000000      -1.36500001     -0.606999993       1484.63098      -1.56953239    
  0.266297996      -1.33877206     -0.606999993       1484.63098      -1.56953239    
  0.366203994      -1.84103203     -0.606999993       1484.63098      -1.56953239    
   0.00000000      -1.87709999     -0.606999993       595.667847       1.57197559    
   0.00000000      -2.59967995     -0.517000020       595.667847       1.57197559    
 -0.507171988      -2.54972792     -0.517000020       595.667847       1.57197559    
 -0.366203994      -1.84103203     -0.606999993       595.667847       1.57197559    
 -0.366203994      -1.84103203     -0.606999993       1481.71143       1.57202601    
 -0.266297996      -1.33877206     -0.606999993       1481.71143       1.57202601    
   0.00000000      -1.36500001     -0.606999993       1481.71143       1.57202601    
   0.00000000      -1.87709999     -0.606999993       1481.71143       1.57202601    
 -0.366203994      -1.84103203     -0.606999993       1704.32837       1.57197964    
 -0.507171988      -2.54972792     -0.517000020       1704.32837       1.57197964    
 -0.994853973      -2.40179110     -0.517000020       1704.32837       1.57197964    
 -0.718334973      -1.73421395     -0.606999993       1704.32837       1.57197964    
 -0.718334973      -1.73421395     -0.606999993       4344.17529       1.57203257    
 -0.522363007      -1.26109600     -0.606999993       4344.17529       1.57203257    
 -0.266297996      -1.33877206     -0.606999993       4344.17529       1.57203257    
 -0.366203994      -1.84103203     -0.606999993       4344.17529       1.57203257    
 -0.718334973      -1.73421395     -0.606999993       2579.63696       1.57197380    
 -0.994853973      -2.40179110     -0.517000020       2579.63696       1.57197380    
  -1.44430494      -2.16155505     -0.517000020       2579.63696       1.57197380    
  -1.04286098      -1.56075203     -0.606999993       2579.63696       1.57197380    
  -1.04286098      -1.56075203     -0.606999993       6937.49658       1.57203186    
 -0.758352995      -1.13495600     -0.606999993       6937.49658       1.57203186    
 -0.522363007      -1.26109600     -0.606999993       6937.49658       1.57203186    
 -0.718334973      -1.73421395     -0.606999993       6937.49658       1.57203186    
  -1.04286098      -1.56075203     -0.606999993       3271.07178       1.57194483    
  -1.44430494      -2.16155505     -0.517000020       3271.07178       1.57194483    
  -1.83825099      -1.83825099     -0.517000020       3271.07178       1.57194483    
  -1.32730997      -1.32730997     -0.606999993       3271.07178       1.57194483    
  -1.32730997      -1.32730997     -0.606999993       9197.25684       1.57202721    
 -0.965201020     -0.965201020     -0.606999993       9197.25684       1.57202721    
 -0.758352995      -1.13495600     -0.606999993       9197.25684       1.57202721    
  -1.04286098      -1.56075203     -0.606999993       9197.25684       1.57202721    
  -1.32730997      -1.32730997     -0.606999993       3880.12524       1.57191241    
  -1.83825099      -1.83825099     -0.517000020       3880.12524       1.57191241    
  -2.16155505      -1.44430494     -0.517000020       3880.12524       1.57191241    
  -1.56075203      -1.04286098     -0.606999993       3880.12524       1.57191241    
  -1.56075203      -1.04286098     -0.606999993       11117.9971       1.57202435    
  -1.13495600     -0.758352995     -0.606999993       11117.9971       1.57202435    
 -0.965201020     -0.965201020     -0.606999993       11117.9971       1.57202435    
  -1.32730997      -1.32730997     -0.606999993       11117.9971       1.57202435    
  -1.56075203      -1.04286098     -0.606999993       4463.04785       1.57189989    
  -2.16155505      -1.44430494     -0.517000020       4463.04785       1.57189989    
  -2.40179110     -0.994853973     -0.517000020       4463.04785       1.57189989    
  -1.73421395     -0.718334973     -0.606999993       4463.04785       1.57189989    
  -1.73421395     -0.718334973     -0.606999993       12691.5430       1.57202351    
  -1.26109600     -0.522363007     -0.606999993       12691.5430       1.57202351    
  -1.13495600     -0.758352995     -0.606999993       12691.5430       1.57202351    
  -1.56075203      -1.04286098     -0.606999993       12691.5430       1.57202351    
  -1.73421395     -0.718334973     -0.606999993       4963.86914       1.57192290    
  -2.40179110     -0.994853973     -0.517000020       4963.86914       1.57192290    
  -2.54972792     -0.507171988     -0.517000020       4963.86914       1.57192290    
  -1.84103203     -0.366203994     -0.606999993       4963.86914       1.57192290    
  -1.84103203     -0.366203994     -0.606999993       13846.0713       1.57202542    
  -1.33877206     -0.266297996     -0.606999993       13846.0713       1.57202542    
  -1.26109600     -0.522363007     -0.606999993       13846.0713       1.57202542    
  -1.73421395     -0.718334973     -0.606999993       13846.0713       1.57202542    
  -1.84103203     -0.366203994     -0.606999993       5269.12988       1.57195592    
  -2.54972792     -0.507171988     -0.517000020       5269.12988       1.57195592    
  -2.59967995       0.00000000     -0.517000020       5269.12988       1.57195592    
  -1.87709999       0.00000000     -0.606999993       5269.12988       1.57195592    
  -1.87709999       0.00000000     -0.606999993       14474.9326       1.57203162    
  -1.36500001       0.00000000     -0.606999993       14474.9326       1.57203162    
  -1.33877206     -0.266297996     -0.606999993       14474.9326       1.57203162    
  -1.84103203     -0.366203994     -0.606999993       14474.9326       1.57203162    
  -1.87709999       0.00000000     -0.606999993       5286.26904       1.57197249    
  -2.59967995       0.00000000     -0.517000020       5286.26904       1.57197249    
  -2.54972792      0.507171988     -0.517000020       5286.26904       1.57197249    
  -1.84103203      0.366203994     -0.606999993       5286.26904       1.57197249    
  -1.84103203      0.366203994     -0.606999993       14492.9922       1.57203805    
  -1.33877206      0.266297996     -0.606999993       14492.9922       1.57203805    
  -1.36500001       0.00000000     -0.606999993       14492.9922       1.57203805    
  -1.87709999       0.00000000     -0.606999993       14492.9922       1.57203805    
  -1.84103203      0.366203994     -0.606999993       5002.18408       1.57196617    
  -2.54972792      0.507171988     -0.517000020       5002.18408       1.57196617    
  -2.40179110      0.994853973     -0.517000020       5002.18408       1.57196617    
  -1.73421395      0.718334973     -0.606999993       5002.18408       1.57196617    
  -1.73421395      0.718334973     -0.606999993       13889.8623       1.57204306    
  -1.26109600      0.522363007     -0.606999993       13889.8623       1.57204306    
  -1.33877206      0.266297996     -0.606999993       13889.8623       1.57204306    
  -1.84103203      0.366203994     -0.606999993       13889.8623       1.57204306    
  -1.73421395      0.718334973     -0.606999993       4492.69580       1.57195556    
  -2.40179110      0.994853973     -0.517000020       4492.69580       1.57195556    
  -2.16155505       1.44430494     -0.517000020       4492.69580       1.57195556    
  -1.56075203       1.04286098     -0.606999993       4492.69580       1.57195556    
  -1.56075203       1.04286098     -0.606999993       12738.8633       1.57204688    
  -1.13495600      0.758352995     -0.606999993       12738.8633       1.57204688    
  -1.26109600      0.522363007     -0.606999993       12738.8633       1.57204688    
  -1.73421395      0.718334973     -0.606999993       12738.8633       1.57204688    
  -1.56075203       1.04286098     -0.606999993       3882.67163       1.57196724    
  -2.16155505       1.44430494     -0.517000020       3882.67163       1.57196724    
  -1.83825099       1.83825099     -0.517000020       3882.67163       1.57196724    
  -1.32730997       1.32730997     -0.606999993       3882.67163       1.57196724    
  -1.32730997       1.32730997     -0.606999993       11149.4980       1.57205141    
 -0.965201020      0.965201020     -0.606999993       11149.4980       1.57205141    
  -1.13495600      0.758352995     -0.606999993       11149.4980       1.57205141    
  -1.56075203       1.04286098     -0.606999993       11149.4980       1.57205141    
  -1.32730997       1.32730997     -0.606999993       3253.12549       1.57199299    
  -1.83825099       1.83825099     -0.517000020       3253.12549       1.57199299    
  -1.44430494       2.16155505     -0.517000020       3253.12549       1.57199299    
  -1.04286098       1.56075203     -0.606999993       3253.12549       1.57199299    
  -1.04286098       1.56075203     -0.606999993       9206.92578       1.57205486    
 -0.758352995       1.13495600     -0.606999993       9206.92578       1.57205486    
 -0.965201020      0.965201020     -0.606999993       9206.92578       1.57205486    
  -1.32730997       1.32730997     -0.606999993       9206.92578       1.57205486    
  -1.04286098       1.56075203     -0.606999993       2559.72705       1.57201552    
  -1.44430494       2.16155505     -0.517000020       2559.72705       1.57201552    
 -0.994853973       2.40179110     -0.517000020       2559.72705       1.57201552    
 -0.718334973       1.73421395     -0.606999993       2559.72705       1.57201552    
 -0.718334973       1.73421395     -0.606999993       6933.49072       1.57205796    
 -0.522363007       1.26109600     -0.606999993       6933.49072       1.57205796    
 -0.758352995       1.13495600     -0.606999993       6933.49072       1.57205796    
  -1.04286098       1.56075203     -0.606999993       6933.49072       1.57205796    
 -0.718334973       1.73421395     -0.606999993       1697.29260       1.57201779    
 -0.994853973       2.40179110     -0.517000020       1697.29260       1.57201779    
 -0.507171988       2.54972792     -0.517000020       1697.29260       1.57201779    
 -0.366203994       1.84103203     -0.606999993       1697.29260       1.57201779    
 -0.366203994       1.84103203     -0.606999993       4340.38818       1.57206106    
 -0.266297996       1.33877206     -0.606999993       4340.38818       1.57206106    
 -0.522363007       1.26109600     -0.606999993       4340.38818       1.57206106    
 -0.718334973       1.73421395     -0.606999993       4340.38818       1.57206106    
 -0.366203994       1.84103203     -0.606999993       608.708984       1.57203400    
 -0.507171988       2.54972792     -0.517000020       608.708984       1.57203400    
   0.00000000       2.59967995     -0.517000020       608.708984       1.57203400    
   0.00000000       1.87709999     -0.606999993       608.708984       1.57203400    
   0.00000000       1.87709999     -0.606999993       1487.22693       1.57208717    
   0.00000000       1.36500001     -0.606999993       1487.22693       1.57208717    
 -0.266297996       1.33877206     -0.606999993       1487.22693       1.57208717    
 -0.366203994       1.84103203     -0.606999993       1487.22693       1.57208717    
   0.00000000       1.87709999     -0.606999993       581.309570      -1.56961620    
   0.00000000       2.59967995     -0.517000020       581.309570      -1.56961620    
  0.507171988       2.54972792     -0.517000020       581.309570      -1.56961620    
  0.366203994       1.84103203     -0.606999993       581.309570      -1.56961620    
  0.366203994       1.84103203     -0.606999993       1467.24976      -1.56958389    
  0.266297996       1.33877206     -0.606999993       1467.24976      -1.56958389    
   0.00000000       1.36500001     -0.606999993       1467.24976      -1.56958389    
   0.00000000       1.87709999     -0.606999993       1467.24976      -1.56958389    
  0.366203994       1.84103203     -0.606999993       1672.64136      -1.56960094    
  0.507171988       2.54972792     -0.517000020       1672.64136      -1.56960094    
  0.994853973       2.40179110     -0.517000020       1672.64136      -1.56960094    
  0.718334973       1.73421395     -0.606999993       1672.64136      -1.56960094    
  0.718334973       1.73421395     -0.606999993       4323.79834      -1.56955755    
  0.522363007       1.26109600     -0.606999993       4323.79834      -1.56955755    
  0.266297996       1.33877206     -0.606999993       4323.79834      -1.56955755    
  0.366203994       1.84103203     -0.606999993       4323.79834      -1.56955755    
  0.718334973       1.73421395     -0.606999993       2539.52954      -1.56959426    
  0.994853973       2.40179110     -0.517000020       2539.52954      -1.56959426    
   1.44430494       2.16155505     -0.517000020       2539.52954      -1.56959426    
   1.04286098       1.56075203     -0.606999993       2539.52954      -1.56959426    
   1.04286098       1.56075203     -0.606999993       6923.59863      -1.56955218    
  0.758352995       1.13495600     -0.606999993       6923.59863      -1.56955218    
  0.522363007       1.26109600     -0.606999993       6923.59863      -1.56955218    
  0.718334973       1.73421395     -0.606999993       6923.59863      -1.56955218    
   1.04286098       1.56075203     -0.606999993       3238.56616      -1.56961489    
   1.44430494       2.16155505     -0.517000020       3238.56616      -1.56961489    
   1.83825099       1.83825099     -0.517000020       3238.56616      -1.56961489    
   1.32730997       1.32730997     -0.606999993       3238.56616      -1.56961489    
   1.32730997       1.32730997     -0.606999993       9205.03125      -1.56955135    
  0.965201020      0.965201020     -0.606999993       9205.03125      -1.56955135    
  0.758352995       1.13495600     -0.606999993       9205.03125      -1.56955135    
   1.04286098       1.56075203     -0.606999993       9205.03125      -1.56955135    
   1.32730997       1.32730997     -0.606999993       3873.66943      -1.56964004    
   1.83825099       1.83825099     -0.517000020       3873.66943      -1.56964004    
   2.16155505       1.44430494     -0.517000020       3873.66943      -1.56964004    
   1.56075203       1.04286098     -0.606999993       3873.66943      -1.56964004    
   1.56075203       1.04286098     -0.606999993       11155.0801      -1.56955230    
   1.13495600      0.758352995     -0.606999993       11155.0801      -1.56955230    
  0.965201020      0.965201020     -0.606999993       11155.0801      -1.56955230    
   1.32730997       1.32730997     -0.606999993       11155.0801      -1.56955230    
   1.56075203       1.04286098     -0.606999993       4487.99707      -1.56964827    
   2.16155505       1.44430494     -0.517000020       4487.99707      -1.56964827    
   2.40179110      0.994853973     -0.517000020       4487.99707      -1.56964827    
   1.73421395      0.718334973     -0.606999993       4487.99707      -1.56964827    
   1.73421395      0.718334973     -0.606999993       12746.4219      -1.56955349    
   1.26109600      0.522363007     -0.606999993       12746.4219      -1.56955349    
   1.13495600      0.758352995     -0.606999993       12746.4219      -1.56955349    
   1.56075203       1.04286098     -0.606999993       12746.4219      -1.56955349    
   1.73421395      0.718334973     -0.606999993       5000.48828      -1.56963372    
   2.40179110      0.994853973     -0.517000020       5000.48828      -1.56963372    
   2.54972792      0.507171988     -0.517000020       5000.48828      -1.56963372    
   1.84103203      0.366203994     -0.606999993       5000.48828      -1.56963372    
   1.84103203      0.366203994     -0.606999993       13897.3721      -1.56955469    
   1.33877206      0.266297996     -0.606999993       13897.3721      -1.56955469    
   1.26109600      0.522363007     -0.606999993       13897.3721      -1.56955469    
   1.73421395      0.718334973     -0.606999993       13897.3721      -1.56955469    
   1.84103203      0.366203994     -0.606999993       5286.94775      -1.56962156    
   2.54972792      0.507171988     -0.517000020       5286.94775      -1.56962156    
   2.59967995       0.00000000     -0.517000020       5286.94775      -1.56962156    
   1.87709999       0.00000000     -0.606999993       5286.94775      -1.56962156    
   1.87709999       0.00000000     -0.606999993       14499.8076      -1.56955707    
   1.36500001       0.00000000     -0.606999993       14499.8076      -1.56955707    
   1.33877206      0.266297996     -0.606999993       14499.8076      -1.56955707    
   1.84103203      0.366203994     -0.606999993       14499.8076      -1.56955707    
   1.87709999       0.00000000     -0.606999993       5271.99121      -1.56963587    
   2.59967995       0.00000000     -0.517000020       5271.99121      -1.56963587    
   2.54972792     -0.507171988     -0.517000020       5271.99121      -1.56963587    
   1.84103203     -0.366203994     -0.606999993       5271.99121      -1.56963587    
   1.84103203     -0.366203994     -0.606999993       14480.1670      -1.56956029    
   1.33877206     -0.266297996     -0.606999993       14480.1670      -1.56956029    
   1.36500001       0.00000000     -0.606999993       14480.1670      -1.56956029    
   1.87709999       0.00000000     -0.606999993       14480.1670      -1.56956029    
   1.84103203     -0.366203994     -0.606999993       4969.17920      -1.56966698    
   2.54972792     -0.507171988     -0.517000020       4969.17920      -1.56966698    
   2.40179110     -0.994853973     -0.517000020       4969.17920      -1.56966698    
   1.73421395     -0.718334973     -0.606999993       4969.17920      -1.56966698    
   1.73421395     -0.718334973     -0.606999993       13850.8945      -1.56956339    
   1.26109600     -0.522363007     -0.606999993       13850.8945      -1.56956339    
   1.33877206     -0.266297996     -0.606999993       13850.8945      -1.56956339    
   1.84103203     -0.366203994     -0.606999993       13850.8945      -1.56956339    
   1.73421395     -0.718334973     -0.606999993       4471.22510      -1.56968665    
   2.40179110     -0.994853973     -0.517000020       4471.22510      -1.56968665    
   2.16155505      -1.44430494     -0.517000020       4471.22510      -1.56968665    
   1.56075203      -1.04286098     -0.606999993       4471.22510      -1.56968665    
   1.56075203      -1.04286098     -0.606999993       12698.7715      -1.56956530    
   1.13495600     -0.758352995     -0.606999993       12698.7715      -1.56956530    
   1.26109600     -0.522363007     -0.606999993       12698.7715      -1.56956530    