 VARIABLES="X" "Y" "Z" "abs(p) (Pa)" "angle(p) (rad)"
ZONE N=   2709,E =    2358, F=FEPOINT, ET=QUADRILATERAL
   0.00000000      -5.48999977     -0.157000005       14.1147804      0.201996267    
   0.00000000      -4.76741982     -0.246999994       14.1147804      0.201996267    
  0.930077016      -4.67581606     -0.246999994       14.1147804      0.201996267    
   1.07104599      -5.38451099     -0.157000005       14.1147804      0.201996267    
  -1.07104599      -5.38451099     -0.157000005       13.5546980      -3.03497958    
 -0.930077016      -4.67581606     -0.246999994       13.5546980      -3.03497958    
   0.00000000      -4.76741982     -0.246999994       13.5546980      -3.03497958    
   0.00000000      -5.48999977     -0.157000005       13.5546980      -3.03497958    
  -2.10093188      -5.07209921     -0.157000005       38.8390503      -2.96199584    
  -1.82441294      -4.40452194     -0.246999994       38.8390503      -2.96199584    
 -0.930077016      -4.67581606     -0.246999994       38.8390503      -2.96199584    
  -1.07104599      -5.38451099     -0.157000005       38.8390503      -2.96199584    
  -3.05008101      -4.56476784     -0.157000005       67.6987305      -2.98258758    
  -2.64863706      -3.96396494     -0.246999994       67.6987305      -2.98258758    
  -1.82441294      -4.40452194     -0.246999994       67.6987305      -2.98258758    
  -2.10093188      -5.07209921     -0.157000005       67.6987305      -2.98258758    
  -3.88201594      -3.88201594     -0.157000005       91.4886398      -2.99377847    
  -3.37107491      -3.37107491     -0.246999994       91.4886398      -2.99377847    
  -2.64863706      -3.96396494     -0.246999994       91.4886398      -2.99377847    
  -3.05008101      -4.56476784     -0.157000005       91.4886398      -2.99377847    
  -4.56476784      -3.05008101     -0.157000005       105.814796      -2.97121334    
  -3.96396494      -2.64863706     -0.246999994       105.814796      -2.97121334    
  -3.37107491      -3.37107491     -0.246999994       105.814796      -2.97121334    
  -3.88201594      -3.88201594     -0.157000005       105.814796      -2.97121334    
  -5.07209921      -2.10093188     -0.157000005       126.366699      -2.99991345    
  -4.40452194      -1.82441294     -0.246999994       126.366699      -2.99991345    
  -3.96396494      -2.64863706     -0.246999994       126.366699      -2.99991345    
  -4.56476784      -3.05008101     -0.157000005       126.366699      -2.99991345    
  -5.38451099      -1.07104599     -0.157000005       137.358368      -2.98583007    
  -4.67581606     -0.930077016     -0.246999994       137.358368      -2.98583007    
  -4.40452194      -1.82441294     -0.246999994       137.358368      -2.98583007    
  -5.07209921      -2.10093188     -0.157000005       137.358368      -2.98583007    
  -5.48999977       0.00000000     -0.157000005       134.361679      -2.94252038    
  -4.76741982       0.00000000     -0.246999994       134.361679      -2.94252038    
  -4.67581606     -0.930077016     -0.246999994       134.361679      -2.94252038    
  -5.38451099      -1.07104599     -0.157000005       134.361679      -2.94252038    
  -5.38451099       1.07104599     -0.157000005       133.211716      -2.93569946    
  -4.67581606      0.930077016     -0.246999994       133.211716      -2.93569946    
  -4.76741982       0.00000000     -0.246999994       133.211716      -2.93569946    
  -5.48999977       0.00000000     -0.157000005       133.211716      -2.93569946    
  -5.07209921       2.10093188     -0.157000005       128.259933      -2.93801165    
  -4.40452194       1.82441294     -0.246999994       128.259933      -2.93801165    
  -4.67581606      0.930077016     -0.246999994       128.259933      -2.93801165    
  -5.38451099       1.07104599     -0.157000005       128.259933      -2.93801165    
  -4.56476784       3.05008101     -0.157000005       118.685425      -2.94035935    
  -3.96396494       2.64863706     -0.246999994       118.685425      -2.94035935    
  -4.40452194       1.82441294     -0.246999994       118.685425      -2.94035935    
  -5.07209921       2.10093188     -0.157000005       118.685425      -2.94035935    
  -3.88201594       3.88201594     -0.157000005       109.633446      -2.96958041    
  -3.37107491       3.37107491     -0.246999994       109.633446      -2.96958041    
  -3.96396494       2.64863706     -0.246999994       109.633446      -2.96958041    
  -4.56476784       3.05008101     -0.157000005       109.633446      -2.96958041    
  -3.05008101       4.56476784     -0.157000005       86.2977295      -2.94333196    
  -2.64863706       3.96396494     -0.246999994       86.2977295      -2.94333196    
  -3.37107491       3.37107491     -0.246999994       86.2977295      -2.94333196    
  -3.88201594       3.88201594     -0.157000005       86.2977295      -2.94333196    
  -2.10093188       5.07209921     -0.157000005       67.1816483      -2.97404552    
  -1.82441294       4.40452194     -0.246999994       67.1816483      -2.97404552    
  -2.64863706       3.96396494     -0.246999994       67.1816483      -2.97404552    
  -3.05008101       4.56476784     -0.157000005       67.1816483      -2.97404552    
  -1.07104599       5.38451099     -0.157000005       39.4638634      -2.93756413    
 -0.930077016       4.67581606     -0.246999994       39.4638634      -2.93756413    
  -1.82441294       4.40452194     -0.246999994       39.4638634      -2.93756413    
  -2.10093188       5.07209921     -0.157000005       39.4638634      -2.93756413    
   0.00000000       5.48999977     -0.157000005       13.7426529      -2.90111017    
   0.00000000       4.76741982     -0.246999994       13.7426529      -2.90111017    
 -0.930077016       4.67581606     -0.246999994       13.7426529      -2.90111017    
  -1.07104599       5.38451099     -0.157000005       13.7426529      -2.90111017    
   1.07104599       5.38451099     -0.157000005       12.7227011      0.108637124    
  0.930077016       4.67581606     -0.246999994       12.7227011      0.108637124    
   0.00000000       4.76741982     -0.246999994       12.7227011      0.108637124    
   0.00000000       5.48999977     -0.157000005       12.7227011      0.108637124    
   2.10093188       5.07209921     -0.157000005       41.0122719      0.157967314    
   1.82441294       4.40452194     -0.246999994       41.0122719      0.157967314    
  0.930077016       4.67581606     -0.246999994       41.0122719      0.157967314    
   1.07104599       5.38451099     -0.157000005       41.0122719      0.157967314    
   3.05008101       4.56476784     -0.157000005       67.9090195      0.160422683    
   2.64863706       3.96396494     -0.246999994       67.9090195      0.160422683    
   1.82441294       4.40452194     -0.246999994       67.9090195      0.160422683    
   2.10093188       5.07209921     -0.157000005       67.9090195      0.160422683    
   3.88201594       3.88201594     -0.157000005       86.5180893      0.174865186    
   3.37107491       3.37107491     -0.246999994       86.5180893      0.174865186    
   2.64863706       3.96396494     -0.246999994       86.5180893      0.174865186    
   3.05008101       4.56476784     -0.157000005       86.5180893      0.174865186    
   4.56476784       3.05008101     -0.157000005       107.401978      0.155216128    
   3.96396494       2.64863706     -0.246999994       107.401978      0.155216128    
   3.37107491       3.37107491     -0.246999994       107.401978      0.155216128    
   3.88201594       3.88201594     -0.157000005       107.401978      0.155216128    
   5.07209921       2.10093188     -0.157000005       119.519417      0.173068225    
   4.40452194       1.82441294     -0.246999994       119.519417      0.173068225    
   3.96396494       2.64863706     -0.246999994       119.519417      0.173068225    
   4.56476784       3.05008101     -0.157000005       119.519417      0.173068225    
   5.38451099       1.07104599     -0.157000005       137.657684      0.156447068    
   4.67581606      0.930077016     -0.246999994       137.657684      0.156447068    
   4.40452194       1.82441294     -0.246999994       137.657684      0.156447068    
   5.07209921       2.10093188     -0.157000005       137.657684      0.156447068    
   5.48999977       0.00000000     -0.157000005       143.137146      0.159142971    
   4.76741982       0.00000000     -0.246999994       143.137146      0.159142971    
   4.67581606      0.930077016     -0.246999994       143.137146      0.159142971    
   5.38451099       1.07104599     -0.157000005       143.137146      0.159142971    
   5.38451099      -1.07104599     -0.157000005       142.773636      0.153607160    
   4.67581606     -0.930077016     -0.246999994       142.773636      0.153607160    
   4.76741982       0.00000000     -0.246999994       142.773636      0.153607160    
   5.48999977       0.00000000     -0.157000005       142.773636      0.153607160    
   5.07209921      -2.10093188     -0.157000005       137.653992      0.148489445    
   4.40452194      -1.82441294     -0.246999994       137.653992      0.148489445    
   4.67581606     -0.930077016     -0.246999994       137.653992      0.148489445    
   5.38451099      -1.07104599     -0.157000005       137.653992      0.148489445    
   4.56476784      -3.05008101     -0.157000005       126.995186      0.153271690    
   3.96396494      -2.64863706     -0.246999994       126.995186      0.153271690    
   4.40452194      -1.82441294     -0.246999994       126.995186      0.153271690    
   5.07209921      -2.10093188     -0.157000005       126.995186      0.153271690    
   3.88201594      -3.88201594     -0.157000005       110.931953      0.163871631    
   3.37107491      -3.37107491     -0.246999994       110.931953      0.163871631    
   3.96396494      -2.64863706     -0.246999994       110.931953      0.163871631    
   4.56476784      -3.05008101     -0.157000005       110.931953      0.163871631    
   3.05008101      -4.56476784     -0.157000005       86.5180969      0.197572663    
   2.64863706      -3.96396494     -0.246999994       86.5180969      0.197572663    
   3.37107491      -3.37107491     -0.246999994       86.5180969      0.197572663    
   3.88201594      -3.88201594     -0.157000005       86.5180969      0.197572663    
   2.10093188      -5.07209921     -0.157000005       67.2478256      0.165425792    
   1.82441294      -4.40452194     -0.246999994       67.2478256      0.165425792    
   2.64863706      -3.96396494     -0.246999994       67.2478256      0.165425792    
   3.05008101      -4.56476784     -0.157000005       67.2478256      0.165425792    
   1.07104599      -5.38451099     -0.157000005       41.5472221      0.162084937    
  0.930077016      -4.67581606     -0.246999994       41.5472221      0.162084937    
   1.82441294      -4.40452194     -0.246999994       41.5472221      0.162084937    
   2.10093188      -5.07209921     -0.157000005       41.5472221      0.162084937    
   0.00000000      -1.87709999     -0.606999993       64.0806503       1.55234861    
   0.00000000      -1.36500001     -0.606999993       64.0806503       1.55234861    
  0.266297996      -1.33877206     -0.606999993       64.0806503       1.55234861    
  0.366203994      -1.84103203     -0.606999993       64.0806503       1.55234861    
   0.00000000      -1.87709999     -0.606999993       19.3841972      -1.61977255    
   0.00000000      -2.59967995     -0.517000020       19.3841972      -1.61977255    
 -0.507171988      -2.54972792     -0.517000020       19.3841972      -1.61977255    
 -0.366203994      -1.84103203     -0.606999993       19.3841972      -1.61977255    
 -0.366203994      -1.84103203     -0.606999993       66.1560364      -1.58522058    
 -0.266297996      -1.33877206     -0.606999993       66.1560364      -1.58522058    
   0.00000000      -1.36500001     -0.606999993       66.1560364      -1.58522058    
   0.00000000      -1.87709999     -0.606999993       66.1560364      -1.58522058    
 -0.366203994      -1.84103203     -0.606999993       58.6997452      -1.61902583    
 -0.507171988      -2.54972792     -0.517000020       58.6997452      -1.61902583    
 -0.994853973      -2.40179110     -0.517000020       58.6997452      -1.61902583    
 -0.718334973      -1.73421395     -0.606999993       58.6997452      -1.61902583    
 -0.718334973      -1.73421395     -0.606999993       193.795395      -1.58656120    
 -0.522363007      -1.26109600     -0.606999993       193.795395      -1.58656120    
 -0.266297996      -1.33877206     -0.606999993       193.795395      -1.58656120    
 -0.366203994      -1.84103203     -0.606999993       193.795395      -1.58656120    
 -0.718334973      -1.73421395     -0.606999993       95.7219849      -1.61810422    
 -0.994853973      -2.40179110     -0.517000020       95.7219849      -1.61810422    
  -1.44430494      -2.16155505     -0.517000020       95.7219849      -1.61810422    
  -1.04286098      -1.56075203     -0.606999993       95.7219849      -1.61810422    
  -1.04286098      -1.56075203     -0.606999993       313.869324      -1.58666945    
 -0.758352995      -1.13495600     -0.606999993       313.869324      -1.58666945    
 -0.522363007      -1.26109600     -0.606999993       313.869324      -1.58666945    
 -0.718334973      -1.73421395     -0.606999993       313.869324      -1.58666945    
  -1.04286098      -1.56075203     -0.606999993       129.171844      -1.61748219    
  -1.44430494      -2.16155505     -0.517000020       129.171844      -1.61748219    
  -1.83825099      -1.83825099     -0.517000020       129.171844      -1.61748219    
  -1.32730997      -1.32730997     -0.606999993       129.171844      -1.61748219    
  -1.32730997      -1.32730997     -0.606999993       421.734100      -1.58671081    
 -0.965201020     -0.965201020     -0.606999993       421.734100      -1.58671081    
 -0.758352995      -1.13495600     -0.606999993       421.734100      -1.58671081    
  -1.04286098      -1.56075203     -0.606999993       421.734100      -1.58671081    
  -1.32730997      -1.32730997     -0.606999993       157.757401      -1.61725712    
  -1.83825099      -1.83825099     -0.517000020       157.757401      -1.61725712    
  -2.16155505      -1.44430494     -0.517000020       157.757401      -1.61725712    
  -1.56075203      -1.04286098     -0.606999993       157.757401      -1.61725712    
  -1.56075203      -1.04286098     -0.606999993       513.280029      -1.58676791    
  -1.13495600     -0.758352995     -0.606999993       513.280029      -1.58676791    
 -0.965201020     -0.965201020     -0.606999993       513.280029      -1.58676791    
  -1.32730997      -1.32730997     -0.606999993       513.280029      -1.58676791    
  -1.56075203      -1.04286098     -0.606999993       180.114166      -1.61734271    
  -2.16155505      -1.44430494     -0.517000020       180.114166      -1.61734271    
  -2.40179110     -0.994853973     -0.517000020       180.114166      -1.61734271    
  -1.73421395     -0.718334973     -0.606999993       180.114166      -1.61734271    
  -1.73421395     -0.718334973     -0.606999993       584.993774      -1.58685112    
  -1.26109600     -0.522363007     -0.606999993       584.993774      -1.58685112    
  -1.13495600     -0.758352995     -0.606999993       584.993774      -1.58685112    
  -1.56075203      -1.04286098     -0.606999993       584.993774      -1.58685112    
  -1.73421395     -0.718334973     -0.606999993       195.118408      -1.61752009    
  -2.40179110     -0.994853973     -0.517000020       195.118408      -1.61752009    
  -2.54972792     -0.507171988     -0.517000020       195.118408      -1.61752009    
  -1.84103203     -0.366203994     -0.606999993       195.118408      -1.61752009    
  -1.84103203     -0.366203994     -0.606999993       633.889282      -1.58695590    
  -1.33877206     -0.266297996     -0.606999993       633.889282      -1.58695590    
  -1.26109600     -0.522363007     -0.606999993       633.889282      -1.58695590    
  -1.73421395     -0.718334973     -0.606999993       633.889282      -1.58695590    
  -1.84103203     -0.366203994     -0.606999993       202.369095      -1.61761594    
  -2.54972792     -0.507171988     -0.517000020       202.369095      -1.61761594    
  -2.59967995       0.00000000     -0.517000020       202.369095      -1.61761594    
  -1.87709999       0.00000000     -0.606999993       202.369095      -1.61761594    
  -1.87709999       0.00000000     -0.606999993       658.069031      -1.58703542    
  -1.36500001       0.00000000     -0.606999993       658.069031      -1.58703542    
  -1.33877206     -0.266297996     -0.606999993       658.069031      -1.58703542    
  -1.84103203     -0.366203994     -0.606999993       658.069031      -1.58703542    
  -1.87709999       0.00000000     -0.606999993       201.981995      -1.61760712    
  -2.59967995       0.00000000     -0.517000020       201.981995      -1.61760712    
  -2.54972792      0.507171988     -0.517000020       201.981995      -1.61760712    
  -1.84103203      0.366203994     -0.606999993       201.981995      -1.61760712    
  -1.84103203      0.366203994     -0.606999993       656.820190      -1.58708858    
  -1.33877206      0.266297996     -0.606999993       656.820190      -1.58708858    
  -1.36500001       0.00000000     -0.606999993       656.820190      -1.58708858    
  -1.87709999       0.00000000     -0.606999993       656.820190      -1.58708858    
  -1.84103203      0.366203994     -0.606999993       194.075180      -1.61751223    
  -2.54972792      0.507171988     -0.517000020       194.075180      -1.61751223    
  -2.40179110      0.994853973     -0.517000020       194.075180      -1.61751223    
  -1.73421395      0.718334973     -0.606999993       194.075180      -1.61751223    
  -1.73421395      0.718334973     -0.606999993       630.334900      -1.58709097    
  -1.26109600      0.522363007     -0.606999993       630.334900      -1.58709097    
  -1.33877206      0.266297996     -0.606999993       630.334900      -1.58709097    
  -1.84103203      0.366203994     -0.606999993       630.334900      -1.58709097    
  -1.73421395      0.718334973     -0.606999993       178.684784      -1.61733234    
  -2.40179110      0.994853973     -0.517000020       178.684784      -1.61733234    
  -2.16155505       1.44430494     -0.517000020       178.684784      -1.61733234    
  -1.56075203       1.04286098     -0.606999993       178.684784      -1.61733234    
  -1.56075203       1.04286098     -0.606999993       579.616882      -1.58706284    
  -1.13495600      0.758352995     -0.606999993       579.616882      -1.58706284    
  -1.26109600      0.522363007     -0.606999993       579.616882      -1.58706284    
  -1.73421395      0.718334973     -0.606999993       579.616882      -1.58706284    
  -1.56075203       1.04286098     -0.606999993       156.192856      -1.61716127    
  -2.16155505       1.44430494     -0.517000020       156.192856      -1.61716127    
  -1.83825099       1.83825099     -0.517000020       156.192856      -1.61716127    
  -1.32730997       1.32730997     -0.606999993       156.192856      -1.61716127    
  -1.32730997       1.32730997     -0.606999993       506.647369      -1.58703351    
 -0.965201020      0.965201020     -0.606999993       506.647369      -1.58703351    
  -1.13495600      0.758352995     -0.606999993       506.647369      -1.58703351    
  -1.56075203       1.04286098     -0.606999993       506.647369      -1.58703351    
  -1.32730997       1.32730997     -0.606999993       127.680229      -1.61720836    
  -1.83825099       1.83825099     -0.517000020       127.680229      -1.61720836    
  -1.44430494       2.16155505     -0.517000020       127.680229      -1.61720836    
  -1.04286098       1.56075203     -0.606999993       127.680229      -1.61720836    
  -1.04286098       1.56075203     -0.606999993       414.457611      -1.58701682    
 -0.758352995       1.13495600     -0.606999993       414.457611      -1.58701682    
 -0.965201020      0.965201020     -0.606999993       414.457611      -1.58701682    
  -1.32730997       1.32730997     -0.606999993       414.457611      -1.58701682    
  -1.04286098       1.56075203     -0.606999993       94.5735321      -1.61752272    
  -1.44430494       2.16155505     -0.517000020       94.5735321      -1.61752272    
 -0.994853973       2.40179110     -0.517000020       94.5735321      -1.61752272    
 -0.718334973       1.73421395     -0.606999993       94.5735321      -1.61752272    
 -0.718334973       1.73421395     -0.606999993       306.758362      -1.58697295    
 -0.522363007       1.26109600     -0.606999993       306.758362      -1.58697295    
 -0.758352995       1.13495600     -0.606999993       306.758362      -1.58697295    
  -1.04286098       1.56075203     -0.606999993       306.758362      -1.58697295    
 -0.718334973       1.73421395     -0.606999993       58.2000389      -1.61750340    
 -0.994853973       2.40179110     -0.517000020       58.2000389      -1.61750340    
 -0.507171988       2.54972792     -0.517000020       58.2000389      -1.61750340    
 -0.366203994       1.84103203     -0.606999993       58.2000389      -1.61750340    
 -0.366203994       1.84103203     -0.606999993       187.805664      -1.58670712    
 -0.266297996       1.33877206     -0.606999993       187.805664      -1.58670712    
 -0.522363007       1.26109600     -0.606999993       187.805664      -1.58670712    
 -0.718334973       1.73421395     -0.606999993       187.805664      -1.58670712    
 -0.366203994       1.84103203     -0.606999993       19.7984791      -1.61317682    
 -0.507171988       2.54972792     -0.517000020       19.7984791      -1.61317682    
   0.00000000       2.59967995     -0.517000020       19.7984791      -1.61317682    
   0.00000000       1.87709999     -0.606999993       19.7984791      -1.61317682    
   0.00000000       1.87709999     -0.606999993       62.0281792      -1.58475375    
   0.00000000       1.36500001     -0.606999993       62.0281792      -1.58475375    
 -0.266297996       1.33877206     -0.606999993       62.0281792      -1.58475375    
 -0.366203994       1.84103203     -0.606999993       62.0281792      -1.58475375    
   0.00000000       1.87709999     -0.606999993       19.2729397       1.51301503    
   0.00000000       2.59967995     -0.517000020       19.2729397       1.51301503    
  0.507171988       2.54972792     -0.517000020       19.2729397       1.51301503    
  0.366203994       1.84103203     -0.606999993       19.2729397       1.51301503    
  0.366203994       1.84103203     -0.606999993       65.8397141       1.55068564    
  0.266297996       1.33877206     -0.606999993       65.8397141       1.55068564    
   0.00000000       1.36500001     -0.606999993       65.8397141       1.55068564    
   0.00000000       1.87709999     -0.606999993       65.8397141       1.55068564    
  0.366203994       1.84103203     -0.606999993       57.5479965       1.51884627    
  0.507171988       2.54972792     -0.517000020       57.5479965       1.51884627    
  0.994853973       2.40179110     -0.517000020       57.5479965       1.51884627    
  0.718334973       1.73421395     -0.606999993       57.5479965       1.51884627    
  0.718334973       1.73421395     -0.606999993       191.113312       1.55275512    
  0.522363007       1.26109600     -0.606999993       191.113312       1.55275512    
  0.266297996       1.33877206     -0.606999993       191.113312       1.55275512    
  0.366203994       1.84103203     -0.606999993       191.113312       1.55275512    
  0.718334973       1.73421395     -0.606999993       93.6922150       1.52084684    
  0.994853973       2.40179110     -0.517000020       93.6922150       1.52084684    
   1.44430494       2.16155505     -0.517000020       93.6922150       1.52084684    
   1.04286098       1.56075203     -0.606999993       93.6922150       1.52084684    
   1.04286098       1.56075203     -0.606999993       309.193329       1.55341291    
  0.758352995       1.13495600     -0.606999993       309.193329       1.55341291    
  0.522363007       1.26109600     -0.606999993       309.193329       1.55341291    
  0.718334973       1.73421395     -0.606999993       309.193329       1.55341291    
   1.04286098       1.56075203     -0.606999993       126.533508       1.52197754    
   1.44430494       2.16155505     -0.517000020       126.533508       1.52197754    
   1.83825099       1.83825099     -0.517000020       126.533508       1.52197754    
   1.32730997       1.32730997     -0.606999993       126.533508       1.52197754    
   1.32730997       1.32730997     -0.606999993       415.747803       1.55376434    
  0.965201020      0.965201020     -0.606999993       415.747803       1.55376434    
  0.758352995       1.13495600     -0.606999993       415.747803       1.55376434    
   1.04286098       1.56075203     -0.606999993       415.747803       1.55376434    
   1.32730997       1.32730997     -0.606999993       154.800171       1.52247369    
   1.83825099       1.83825099     -0.517000020       154.800171       1.52247369    
   2.16155505       1.44430494     -0.517000020       154.800171       1.52247369    
   1.56075203       1.04286098     -0.606999993       154.800171       1.52247369    
   1.56075203       1.04286098     -0.606999993       506.680267       1.55396533    
   1.13495600      0.758352995     -0.606999993       506.680267       1.55396533    
  0.965201020      0.965201020     -0.606999993       506.680267       1.55396533    
   1.32730997       1.32730997     -0.606999993       506.680267       1.55396533    
   1.56075203       1.04286098     -0.606999993       177.101944       1.52254689    
   2.16155505       1.44430494     -0.517000020       177.101944       1.52254689    
   2.40179110      0.994853973     -0.517000020       177.101944       1.52254689    
   1.73421395      0.718334973     -0.606999993       177.101944       1.52254689    
   1.73421395      0.718334973     -0.606999993       578.321716       1.55407655    
   1.26109600      0.522363007     -0.606999993       578.321716       1.55407655    
   1.13495600      0.758352995     -0.606999993       578.321716       1.55407655    
   1.56075203       1.04286098     -0.606999993       578.321716       1.55407655    
   1.73421395      0.718334973     -0.606999993       192.430771       1.52255166    
   2.40179110      0.994853973     -0.517000020       192.430771       1.52255166    
   2.54972792      0.507171988     -0.517000020       192.430771       1.52255166    
   1.84103203      0.366203994     -0.606999993       192.430771       1.52255166    
   1.84103203      0.366203994     -0.606999993       628.018372       1.55416214    
   1.33877206      0.266297996     -0.606999993       628.018372       1.55416214    
   1.26109600      0.522363007     -0.606999993       628.018372       1.55416214    
   1.73421395      0.718334973     -0.606999993       628.018372       1.55416214    
   1.84103203      0.366203994     -0.606999993       200.474548       1.52269280    
   2.54972792      0.507171988     -0.517000020       200.474548       1.52269280    
   2.59967995       0.00000000     -0.517000020       200.474548       1.52269280    
   1.87709999       0.00000000     -0.606999993       200.474548       1.52269280    
   1.87709999       0.00000000     -0.606999993       653.962341       1.55425024    
   1.36500001       0.00000000     -0.606999993       653.962341       1.55425024    
   1.33877206      0.266297996     -0.606999993       653.962341       1.55425024    
   1.84103203      0.366203994     -0.606999993       653.962341       1.55425024    
   1.87709999       0.00000000     -0.606999993       201.211594       1.52300227    
   2.59967995       0.00000000     -0.517000020       201.211594       1.52300227    
   2.54972792     -0.507171988     -0.517000020       201.211594       1.52300227    
   1.84103203     -0.366203994     -0.606999993       201.211594       1.52300227    
   1.84103203     -0.366203994     -0.606999993       655.075317       1.55435669    
   1.33877206     -0.266297996     -0.606999993       655.075317       1.55435669    
   1.36500001       0.00000000     -0.606999993       655.075317       1.55435669    
   1.87709999       0.00000000     -0.606999993       655.075317       1.55435669    
   1.84103203     -0.366203994     -0.606999993       194.449722       1.52345920    
   2.54972792     -0.507171988     -0.517000020       194.449722       1.52345920    
   2.40179110     -0.994853973     -0.517000020       194.449722       1.52345920    
   1.73421395     -0.718334973     -0.606999993       194.449722       1.52345920    
   1.73421395     -0.718334973     -0.606999993       631.112000       1.55448151    
   1.26109600     -0.522363007     -0.606999993       631.112000       1.55448151    
   1.33877206     -0.266297996     -0.606999993       631.112000       1.55448151    
   1.84103203     -0.366203994     -0.606999993       631.112000       1.55448151    
   1.73421395     -0.718334973     -0.606999993       179.972763       1.52397966    
   2.40179110     -0.994853973     -0.517000020       179.972763       1.52397966    
   2.16155505      -1.44430494     -0.517000020       179.972763       1.52397966    
   1.56075203      -1.04286098     -0.606999993       179.972763       1.52397966    
   1.56075203      -1.04286098     -0.606999993       582.632263       1.55458689    
   1.13495600     -0.758352995     -0.606999993       582.632263       1.55458689    
   1.26109600     -0.522363007     -0.606999993       582.632263       1.55458689    