 VARIABLES="X" "Y" "Z" "abs(p) (Pa)" "angle(p) (rad)"
ZONE N=   2709,E =    2358, F=FEPOINT, ET=QUADRILATERAL
   0.00000000      -5.48999977     -0.157000005       11.8793011       1.13543463    
   0.00000000      -4.76741982     -0.246999994       11.8793011       1.13543463    
  0.930077016      -4.67581606     -0.246999994       11.8793011       1.13543463    
   1.07104599      -5.38451099     -0.157000005       11.8793011       1.13543463    
  -1.07104599      -5.38451099     -0.157000005       11.6159010       1.13615704    
 -0.930077016      -4.67581606     -0.246999994       11.6159010       1.13615704    
   0.00000000      -4.76741982     -0.246999994       11.6159010       1.13615704    
   0.00000000      -5.48999977     -0.157000005       11.6159010       1.13615704    
  -2.10093188      -5.07209921     -0.157000005       14.8431616      0.621887267    
  -1.82441294      -4.40452194     -0.246999994       14.8431616      0.621887267    
 -0.930077016      -4.67581606     -0.246999994       14.8431616      0.621887267    
  -1.07104599      -5.38451099     -0.157000005       14.8431616      0.621887267    
  -3.05008101      -4.56476784     -0.157000005       10.1660385       1.09758139    
  -2.64863706      -3.96396494     -0.246999994       10.1660385       1.09758139    
  -1.82441294      -4.40452194     -0.246999994       10.1660385       1.09758139    
  -2.10093188      -5.07209921     -0.157000005       10.1660385       1.09758139    
  -3.88201594      -3.88201594     -0.157000005       9.09811306       1.09758127    
  -3.37107491      -3.37107491     -0.246999994       9.09811306       1.09758127    
  -2.64863706      -3.96396494     -0.246999994       9.09811306       1.09758127    
  -3.05008101      -4.56476784     -0.157000005       9.09811306       1.09758127    
  -4.56476784      -3.05008101     -0.157000005       8.04547977      0.667098045    
  -3.96396494      -2.64863706     -0.246999994       8.04547977      0.667098045    
  -3.37107491      -3.37107491     -0.246999994       8.04547977      0.667098045    
  -3.88201594      -3.88201594     -0.157000005       8.04547977      0.667098045    
  -5.07209921      -2.10093188     -0.157000005       5.19137669       1.05781198    
  -4.40452194      -1.82441294     -0.246999994       5.19137669       1.05781198    
  -3.96396494      -2.64863706     -0.246999994       5.19137669       1.05781198    
  -4.56476784      -3.05008101     -0.157000005       5.19137669       1.05781198    
  -5.38451099      -1.07104599     -0.157000005       3.10356903       1.13170576    
  -4.67581606     -0.930077016     -0.246999994       3.10356903       1.13170576    
  -4.40452194      -1.82441294     -0.246999994       3.10356903       1.13170576    
  -5.07209921      -2.10093188     -0.157000005       3.10356903       1.13170576    
  -5.48999977       0.00000000     -0.157000005      0.757781565      -1.41911823E-02
  -4.76741982       0.00000000     -0.246999994      0.757781565      -1.41911823E-02
  -4.67581606     -0.930077016     -0.246999994      0.757781565      -1.41911823E-02
  -5.38451099      -1.07104599     -0.157000005      0.757781565      -1.41911823E-02
  -5.38451099       1.07104599     -0.157000005       1.91491830      -2.19699669    
  -4.67581606      0.930077016     -0.246999994       1.91491830      -2.19699669    
  -4.76741982       0.00000000     -0.246999994       1.91491830      -2.19699669    
  -5.48999977       0.00000000     -0.157000005       1.91491830      -2.19699669    
  -5.07209921       2.10093188     -0.157000005       5.44426966      -2.46388245    
  -4.40452194       1.82441294     -0.246999994       5.44426966      -2.46388245    
  -4.67581606      0.930077016     -0.246999994       5.44426966      -2.46388245    
  -5.38451099       1.07104599     -0.157000005       5.44426966      -2.46388245    
  -4.56476784       3.05008101     -0.157000005       7.70978165      -2.47189832    
  -3.96396494       2.64863706     -0.246999994       7.70978165      -2.47189832    
  -4.40452194       1.82441294     -0.246999994       7.70978165      -2.47189832    
  -5.07209921       2.10093188     -0.157000005       7.70978165      -2.47189832    
  -3.88201594       3.88201594     -0.157000005       7.99858236      -2.03234863    
  -3.37107491       3.37107491     -0.246999994       7.99858236      -2.03234863    
  -3.96396494       2.64863706     -0.246999994       7.99858236      -2.03234863    
  -4.56476784       3.05008101     -0.157000005       7.99858236      -2.03234863    
  -3.05008101       4.56476784     -0.157000005       12.4704180      -2.51971793    
  -2.64863706       3.96396494     -0.246999994       12.4704180      -2.51971793    
  -3.37107491       3.37107491     -0.246999994       12.4704180      -2.51971793    
  -3.88201594       3.88201594     -0.157000005       12.4704180      -2.51971793    
  -2.10093188       5.07209921     -0.157000005       10.6847620      -2.01545906    
  -1.82441294       4.40452194     -0.246999994       10.6847620      -2.01545906    
  -2.64863706       3.96396494     -0.246999994       10.6847620      -2.01545906    
  -3.05008101       4.56476784     -0.157000005       10.6847620      -2.01545906    
  -1.07104599       5.38451099     -0.157000005       15.3765354      -2.53347135    
 -0.930077016       4.67581606     -0.246999994       15.3765354      -2.53347135    
  -1.82441294       4.40452194     -0.246999994       15.3765354      -2.53347135    
  -2.10093188       5.07209921     -0.157000005       15.3765354      -2.53347135    
   0.00000000       5.48999977     -0.157000005       11.7561064      -2.04048419    
   0.00000000       4.76741982     -0.246999994       11.7561064      -2.04048419    
 -0.930077016       4.67581606     -0.246999994       11.7561064      -2.04048419    
  -1.07104599       5.38451099     -0.157000005       11.7561064      -2.04048419    
   1.07104599       5.38451099     -0.157000005       15.4270773      -2.51287866    
  0.930077016       4.67581606     -0.246999994       15.4270773      -2.51287866    
   0.00000000       4.76741982     -0.246999994       15.4270773      -2.51287866    
   0.00000000       5.48999977     -0.157000005       15.4270773      -2.51287866    
   2.10093188       5.07209921     -0.157000005       11.3854599      -2.07556772    
   1.82441294       4.40452194     -0.246999994       11.3854599      -2.07556772    
  0.930077016       4.67581606     -0.246999994       11.3854599      -2.07556772    
   1.07104599       5.38451099     -0.157000005       11.3854599      -2.07556772    
   3.05008101       4.56476784     -0.157000005       10.0544024      -2.00520921    
   2.64863706       3.96396494     -0.246999994       10.0544024      -2.00520921    
   1.82441294       4.40452194     -0.246999994       10.0544024      -2.00520921    
   2.10093188       5.07209921     -0.157000005       10.0544024      -2.00520921    
   3.88201594       3.88201594     -0.157000005       12.1172905      -2.54161382    
   3.37107491       3.37107491     -0.246999994       12.1172905      -2.54161382    
   2.64863706       3.96396494     -0.246999994       12.1172905      -2.54161382    
   3.05008101       4.56476784     -0.157000005       12.1172905      -2.54161382    
   4.56476784       3.05008101     -0.157000005       6.53502321      -2.25035667    
   3.96396494       2.64863706     -0.246999994       6.53502321      -2.25035667    
   3.37107491       3.37107491     -0.246999994       6.53502321      -2.25035667    
   3.88201594       3.88201594     -0.157000005       6.53502321      -2.25035667    
   5.07209921       2.10093188     -0.157000005       6.92678308      -2.59885955    
   4.40452194       1.82441294     -0.246999994       6.92678308      -2.59885955    
   3.96396494       2.64863706     -0.246999994       6.92678308      -2.59885955    
   4.56476784       3.05008101     -0.157000005       6.92678308      -2.59885955    
   5.38451099       1.07104599     -0.157000005       3.17473435      -2.04646635    
   4.67581606      0.930077016     -0.246999994       3.17473435      -2.04646635    
   4.40452194       1.82441294     -0.246999994       3.17473435      -2.04646635    
   5.07209921       2.10093188     -0.157000005       3.17473435      -2.04646635    
   5.48999977       0.00000000     -0.157000005      0.489009708      -2.49302649    
   4.76741982       0.00000000     -0.246999994      0.489009708      -2.49302649    
   4.67581606      0.930077016     -0.246999994      0.489009708      -2.49302649    
   5.38451099       1.07104599     -0.157000005      0.489009708      -2.49302649    
   5.38451099      -1.07104599     -0.157000005       1.24714553       1.28724027    
   4.67581606     -0.930077016     -0.246999994       1.24714553       1.28724027    
   4.76741982       0.00000000     -0.246999994       1.24714553       1.28724027    
   5.48999977       0.00000000     -0.157000005       1.24714553       1.28724027    
   5.07209921      -2.10093188     -0.157000005       4.10861778       1.13977456    
   4.40452194      -1.82441294     -0.246999994       4.10861778       1.13977456    
   4.67581606     -0.930077016     -0.246999994       4.10861778       1.13977456    
   5.38451099      -1.07104599     -0.157000005       4.10861778       1.13977456    
   4.56476784      -3.05008101     -0.157000005       5.91973448       1.15807319    
   3.96396494      -2.64863706     -0.246999994       5.91973448       1.15807319    
   4.40452194      -1.82441294     -0.246999994       5.91973448       1.15807319    
   5.07209921      -2.10093188     -0.157000005       5.91973448       1.15807319    
   3.88201594      -3.88201594     -0.157000005       7.72843218       1.14140511    
   3.37107491      -3.37107491     -0.246999994       7.72843218       1.14140511    
   3.96396494      -2.64863706     -0.246999994       7.72843218       1.14140511    
   4.56476784      -3.05008101     -0.157000005       7.72843218       1.14140511    
   3.05008101      -4.56476784     -0.157000005       12.5994787      0.664324045    
   2.64863706      -3.96396494     -0.246999994       12.5994787      0.664324045    
   3.37107491      -3.37107491     -0.246999994       12.5994787      0.664324045    
   3.88201594      -3.88201594     -0.157000005       12.5994787      0.664324045    
   2.10093188      -5.07209921     -0.157000005       10.5157776       1.11649835    
   1.82441294      -4.40452194     -0.246999994       10.5157776       1.11649835    
   2.64863706      -3.96396494     -0.246999994       10.5157776       1.11649835    
   3.05008101      -4.56476784     -0.157000005       10.5157776       1.11649835    
   1.07104599      -5.38451099     -0.157000005       11.6771822       1.12713718    
  0.930077016      -4.67581606     -0.246999994       11.6771822       1.12713718    
   1.82441294      -4.40452194     -0.246999994       11.6771822       1.12713718    
   2.10093188      -5.07209921     -0.157000005       11.6771822       1.12713718    
   0.00000000      -1.87709999     -0.606999993       325.690826      -1.57114983    
   0.00000000      -1.36500001     -0.606999993       325.690826      -1.57114983    
  0.266297996      -1.33877206     -0.606999993       325.690826      -1.57114983    
  0.366203994      -1.84103203     -0.606999993       325.690826      -1.57114983    
   0.00000000      -1.87709999     -0.606999993       108.180534      -1.56805396    
   0.00000000      -2.59967995     -0.517000020       108.180534      -1.56805396    
 -0.507171988      -2.54972792     -0.517000020       108.180534      -1.56805396    
 -0.366203994      -1.84103203     -0.606999993       108.180534      -1.56805396    
 -0.366203994      -1.84103203     -0.606999993       325.496216      -1.57114327    
 -0.266297996      -1.33877206     -0.606999993       325.496216      -1.57114327    
   0.00000000      -1.36500001     -0.606999993       325.496216      -1.57114327    
   0.00000000      -1.87709999     -0.606999993       325.496216      -1.57114327    
 -0.366203994      -1.84103203     -0.606999993       103.957039      -1.56798792    
 -0.507171988      -2.54972792     -0.517000020       103.957039      -1.56798792    
 -0.994853973      -2.40179110     -0.517000020       103.957039      -1.56798792    
 -0.718334973      -1.73421395     -0.606999993       103.957039      -1.56798792    
 -0.718334973      -1.73421395     -0.606999993       312.829651      -1.57116640    
 -0.522363007      -1.26109600     -0.606999993       312.829651      -1.57116640    
 -0.266297996      -1.33877206     -0.606999993       312.829651      -1.57116640    
 -0.366203994      -1.84103203     -0.606999993       312.829651      -1.57116640    
 -0.718334973      -1.73421395     -0.606999993       95.8838120      -1.56797826    
 -0.994853973      -2.40179110     -0.517000020       95.8838120      -1.56797826    
  -1.44430494      -2.16155505     -0.517000020       95.8838120      -1.56797826    
  -1.04286098      -1.56075203     -0.606999993       95.8838120      -1.56797826    
  -1.04286098      -1.56075203     -0.606999993       288.423798      -1.57114196    
 -0.758352995      -1.13495600     -0.606999993       288.423798      -1.57114196    
 -0.522363007      -1.26109600     -0.606999993       288.423798      -1.57114196    
 -0.718334973      -1.73421395     -0.606999993       288.423798      -1.57114196    
  -1.04286098      -1.56075203     -0.606999993       84.4049683      -1.56799388    
  -1.44430494      -2.16155505     -0.517000020       84.4049683      -1.56799388    
  -1.83825099      -1.83825099     -0.517000020       84.4049683      -1.56799388    
  -1.32730997      -1.32730997     -0.606999993       84.4049683      -1.56799388    
  -1.32730997      -1.32730997     -0.606999993       253.292175      -1.57114661    
 -0.965201020     -0.965201020     -0.606999993       253.292175      -1.57114661    
 -0.758352995      -1.13495600     -0.606999993       253.292175      -1.57114661    
  -1.04286098      -1.56075203     -0.606999993       253.292175      -1.57114661    
  -1.32730997      -1.32730997     -0.606999993       69.8647461      -1.56802881    
  -1.83825099      -1.83825099     -0.517000020       69.8647461      -1.56802881    
  -2.16155505      -1.44430494     -0.517000020       69.8647461      -1.56802881    
  -1.56075203      -1.04286098     -0.606999993       69.8647461      -1.56802881    
  -1.56075203      -1.04286098     -0.606999993       208.646210      -1.57115769    
  -1.13495600     -0.758352995     -0.606999993       208.646210      -1.57115769    
 -0.965201020     -0.965201020     -0.606999993       208.646210      -1.57115769    
  -1.32730997      -1.32730997     -0.606999993       208.646210      -1.57115769    
  -1.56075203      -1.04286098     -0.606999993       52.5933266      -1.56803179    
  -2.16155505      -1.44430494     -0.517000020       52.5933266      -1.56803179    
  -2.40179110     -0.994853973     -0.517000020       52.5933266      -1.56803179    
  -1.73421395     -0.718334973     -0.606999993       52.5933266      -1.56803179    
  -1.73421395     -0.718334973     -0.606999993       155.906174      -1.57116950    
  -1.26109600     -0.522363007     -0.606999993       155.906174      -1.57116950    
  -1.13495600     -0.758352995     -0.606999993       155.906174      -1.57116950    
  -1.56075203      -1.04286098     -0.606999993       155.906174      -1.57116950    
  -1.73421395     -0.718334973     -0.606999993       33.1140442      -1.56792378    
  -2.40179110     -0.994853973     -0.517000020       33.1140442      -1.56792378    
  -2.54972792     -0.507171988     -0.517000020       33.1140442      -1.56792378    
  -1.84103203     -0.366203994     -0.606999993       33.1140442      -1.56792378    
  -1.84103203     -0.366203994     -0.606999993       96.9112320      -1.57118392    
  -1.33877206     -0.266297996     -0.606999993       96.9112320      -1.57118392    
  -1.26109600     -0.522363007     -0.606999993       96.9112320      -1.57118392    
  -1.73421395     -0.718334973     -0.606999993       96.9112320      -1.57118392    
  -1.84103203     -0.366203994     -0.606999993       12.1768446      -1.56761539    
  -2.54972792     -0.507171988     -0.517000020       12.1768446      -1.56761539    
  -2.59967995       0.00000000     -0.517000020       12.1768446      -1.56761539    
  -1.87709999       0.00000000     -0.606999993       12.1768446      -1.56761539    
  -1.87709999       0.00000000     -0.606999993       33.8560677      -1.57133782    
  -1.36500001       0.00000000     -0.606999993       33.8560677      -1.57133782    
  -1.33877206     -0.266297996     -0.606999993       33.8560677      -1.57133782    
  -1.84103203     -0.366203994     -0.606999993       33.8560677      -1.57133782    
  -1.87709999       0.00000000     -0.606999993       9.32378101       1.57262886    
  -2.59967995       0.00000000     -0.517000020       9.32378101       1.57262886    
  -2.54972792      0.507171988     -0.517000020       9.32378101       1.57262886    
  -1.84103203      0.366203994     -0.606999993       9.32378101       1.57262886    
  -1.84103203      0.366203994     -0.606999993       30.7076073       1.57068026    
  -1.33877206      0.266297996     -0.606999993       30.7076073       1.57068026    
  -1.36500001       0.00000000     -0.606999993       30.7076073       1.57068026    
  -1.87709999       0.00000000     -0.606999993       30.7076073       1.57068026    
  -1.84103203      0.366203994     -0.606999993       30.5004463       1.57320929    
  -2.54972792      0.507171988     -0.517000020       30.5004463       1.57320929    
  -2.40179110      0.994853973     -0.517000020       30.5004463       1.57320929    
  -1.73421395      0.718334973     -0.606999993       30.5004463       1.57320929    
  -1.73421395      0.718334973     -0.606999993       94.1438751       1.57055843    
  -1.26109600      0.522363007     -0.606999993       94.1438751       1.57055843    
  -1.33877206      0.266297996     -0.606999993       94.1438751       1.57055843    
  -1.84103203      0.366203994     -0.606999993       94.1438751       1.57055843    
  -1.73421395      0.718334973     -0.606999993       50.4222488       1.57324004    
  -2.40179110      0.994853973     -0.517000020       50.4222488       1.57324004    
  -2.16155505       1.44430494     -0.517000020       50.4222488       1.57324004    
  -1.56075203       1.04286098     -0.606999993       50.4222488       1.57324004    
  -1.56075203       1.04286098     -0.606999993       153.784805       1.57052147    
  -1.13495600      0.758352995     -0.606999993       153.784805       1.57052147    
  -1.26109600      0.522363007     -0.606999993       153.784805       1.57052147    
  -1.73421395      0.718334973     -0.606999993       153.784805       1.57052147    
  -1.56075203       1.04286098     -0.606999993       68.2001190       1.57331431    
  -2.16155505       1.44430494     -0.517000020       68.2001190       1.57331431    
  -1.83825099       1.83825099     -0.517000020       68.2001190       1.57331431    
  -1.32730997       1.32730997     -0.606999993       68.2001190       1.57331431    
  -1.32730997       1.32730997     -0.606999993       207.207550       1.57052374    
 -0.965201020      0.965201020     -0.606999993       207.207550       1.57052374    
  -1.13495600      0.758352995     -0.606999993       207.207550       1.57052374    
  -1.56075203       1.04286098     -0.606999993       207.207550       1.57052374    
  -1.32730997       1.32730997     -0.606999993       83.1695251       1.57339060    
  -1.83825099       1.83825099     -0.517000020       83.1695251       1.57339060    
  -1.44430494       2.16155505     -0.517000020       83.1695251       1.57339060    
  -1.04286098       1.56075203     -0.606999993       83.1695251       1.57339060    
  -1.04286098       1.56075203     -0.606999993       252.369965       1.57052803    
 -0.758352995       1.13495600     -0.606999993       252.369965       1.57052803    
 -0.965201020      0.965201020     -0.606999993       252.369965       1.57052803    
  -1.32730997       1.32730997     -0.606999993       252.369965       1.57052803    
  -1.04286098       1.56075203     -0.606999993       94.9379730       1.57344651    
  -1.44430494       2.16155505     -0.517000020       94.9379730       1.57344651    
 -0.994853973       2.40179110     -0.517000020       94.9379730       1.57344651    
 -0.718334973       1.73421395     -0.606999993       94.9379730       1.57344651    
 -0.718334973       1.73421395     -0.606999993       287.661987       1.57053089    
 -0.522363007       1.26109600     -0.606999993       287.661987       1.57053089    
 -0.758352995       1.13495600     -0.606999993       287.661987       1.57053089    
  -1.04286098       1.56075203     -0.606999993       287.661987       1.57053089    
 -0.718334973       1.73421395     -0.606999993       103.173935       1.57345486    
 -0.994853973       2.40179110     -0.517000020       103.173935       1.57345486    
 -0.507171988       2.54972792     -0.517000020       103.173935       1.57345486    
 -0.366203994       1.84103203     -0.606999993       103.173935       1.57345486    
 -0.366203994       1.84103203     -0.606999993       311.890289       1.57054162    
 -0.266297996       1.33877206     -0.606999993       311.890289       1.57054162    
 -0.522363007       1.26109600     -0.606999993       311.890289       1.57054162    
 -0.718334973       1.73421395     -0.606999993       311.890289       1.57054162    
 -0.366203994       1.84103203     -0.606999993       107.509956       1.57342756    
 -0.507171988       2.54972792     -0.517000020       107.509956       1.57342756    
   0.00000000       2.59967995     -0.517000020       107.509956       1.57342756    
   0.00000000       1.87709999     -0.606999993       107.509956       1.57342756    
   0.00000000       1.87709999     -0.606999993       324.209045       1.57056081    
   0.00000000       1.36500001     -0.606999993       324.209045       1.57056081    
 -0.266297996       1.33877206     -0.606999993       324.209045       1.57056081    
 -0.366203994       1.84103203     -0.606999993       324.209045       1.57056081    
   0.00000000       1.87709999     -0.606999993       107.636787       1.57344604    
   0.00000000       2.59967995     -0.517000020       107.636787       1.57344604    
  0.507171988       2.54972792     -0.517000020       107.636787       1.57344604    
  0.366203994       1.84103203     -0.606999993       107.636787       1.57344604    
  0.366203994       1.84103203     -0.606999993       324.193268       1.57056057    
  0.266297996       1.33877206     -0.606999993       324.193268       1.57056057    
   0.00000000       1.36500001     -0.606999993       324.193268       1.57056057    
   0.00000000       1.87709999     -0.606999993       324.193268       1.57056057    
  0.366203994       1.84103203     -0.606999993       103.589287       1.57349360    
  0.507171988       2.54972792     -0.517000020       103.589287       1.57349360    
  0.994853973       2.40179110     -0.517000020       103.589287       1.57349360    
  0.718334973       1.73421395     -0.606999993       103.589287       1.57349360    
  0.718334973       1.73421395     -0.606999993       311.932434       1.57054627    
  0.522363007       1.26109600     -0.606999993       311.932434       1.57054627    
  0.266297996       1.33877206     -0.606999993       311.932434       1.57054627    
  0.366203994       1.84103203     -0.606999993       311.932434       1.57054627    
  0.718334973       1.73421395     -0.606999993       95.7336655       1.57352960    
  0.994853973       2.40179110     -0.517000020       95.7336655       1.57352960    
   1.44430494       2.16155505     -0.517000020       95.7336655       1.57352960    
   1.04286098       1.56075203     -0.606999993       95.7336655       1.57352960    
   1.04286098       1.56075203     -0.606999993       287.995636       1.57059026    
  0.758352995       1.13495600     -0.606999993       287.995636       1.57059026    
  0.522363007       1.26109600     -0.606999993       287.995636       1.57059026    
  0.718334973       1.73421395     -0.606999993       287.995636       1.57059026    
   1.04286098       1.56075203     -0.606999993       84.4685822       1.57356405    
   1.44430494       2.16155505     -0.517000020       84.4685822       1.57356405    
   1.83825099       1.83825099     -0.517000020       84.4685822       1.57356405    
   1.32730997       1.32730997     -0.606999993       84.4685822       1.57356405    
   1.32730997       1.32730997     -0.606999993       253.293777       1.57061172    
  0.965201020      0.965201020     -0.606999993       253.293777       1.57061172    
  0.758352995       1.13495600     -0.606999993       253.293777       1.57061172    
   1.04286098       1.56075203     -0.606999993       253.293777       1.57061172    
   1.32730997       1.32730997     -0.606999993       70.0973511       1.57351637    
   1.83825099       1.83825099     -0.517000020       70.0973511       1.57351637    
   2.16155505       1.44430494     -0.517000020       70.0973511       1.57351637    
   1.56075203       1.04286098     -0.606999993       70.0973511       1.57351637    
   1.56075203       1.04286098     -0.606999993       209.027985       1.57063675    
   1.13495600      0.758352995     -0.606999993       209.027985       1.57063675    
  0.965201020      0.965201020     -0.606999993       209.027985       1.57063675    
   1.32730997       1.32730997     -0.606999993       209.027985       1.57063675    
   1.56075203       1.04286098     -0.606999993       52.9594040       1.57349825    
   2.16155505       1.44430494     -0.517000020       52.9594040       1.57349825    
   2.40179110      0.994853973     -0.517000020       52.9594040       1.57349825    
   1.73421395      0.718334973     -0.606999993       52.9594040       1.57349825    
   1.73421395      0.718334973     -0.606999993       156.666046       1.57069910    
   1.26109600      0.522363007     -0.606999993       156.666046       1.57069910    
   1.13495600      0.758352995     -0.606999993       156.666046       1.57069910    
   1.56075203       1.04286098     -0.606999993       156.666046       1.57069910    
   1.73421395      0.718334973     -0.606999993       33.6094208       1.57346570    
   2.40179110      0.994853973     -0.517000020       33.6094208       1.57346570    
   2.54972792      0.507171988     -0.517000020       33.6094208       1.57346570    
   1.84103203      0.366203994     -0.606999993       33.6094208       1.57346570    
   1.84103203      0.366203994     -0.606999993       98.0383453       1.57082331    
   1.33877206      0.266297996     -0.606999993       98.0383453       1.57082331    
   1.26109600      0.522363007     -0.606999993       98.0383453       1.57082331    
   1.73421395      0.718334973     -0.606999993       98.0383453       1.57082331    
   1.84103203      0.366203994     -0.606999993       12.7982435       1.57337189    
   2.54972792      0.507171988     -0.517000020       12.7982435       1.57337189    
   2.59967995       0.00000000     -0.517000020       12.7982435       1.57337189    
   1.87709999       0.00000000     -0.606999993       12.7982435       1.57337189    
   1.87709999       0.00000000     -0.606999993       35.2963257       1.57138681    
   1.36500001       0.00000000     -0.606999993       35.2963257       1.57138681    
   1.33877206      0.266297996     -0.606999993       35.2963257       1.57138681    
   1.84103203      0.366203994     -0.606999993       35.2963257       1.57138681    
   1.87709999       0.00000000     -0.606999993       8.64025116      -1.56794083    
   2.59967995       0.00000000     -0.517000020       8.64025116      -1.56794083    
   2.54972792     -0.507171988     -0.517000020       8.64025116      -1.56794083    
   1.84103203     -0.366203994     -0.606999993       8.64025116      -1.56794083    
   1.84103203     -0.366203994     -0.606999993       29.1117077      -1.57217550    
   1.33877206     -0.266297996     -0.606999993       29.1117077      -1.57217550    
   1.36500001       0.00000000     -0.606999993       29.1117077      -1.57217550    
   1.87709999       0.00000000     -0.606999993       29.1117077      -1.57217550    
   1.84103203     -0.366203994     -0.606999993       29.8593330      -1.56803060    
   2.54972792     -0.507171988     -0.517000020       29.8593330      -1.56803060    
   2.40179110     -0.994853973     -0.517000020       29.8593330      -1.56803060    
   1.73421395     -0.718334973     -0.606999993       29.8593330      -1.56803060    
   1.73421395     -0.718334973     -0.606999993       92.6259689      -1.57141638    
   1.26109600     -0.522363007     -0.606999993       92.6259689      -1.57141638    
   1.33877206     -0.266297996     -0.606999993       92.6259689      -1.57141638    
   1.84103203     -0.366203994     -0.606999993       92.6259689      -1.57141638    
   1.73421395     -0.718334973     -0.606999993       49.9260483      -1.56811035    
   2.40179110     -0.994853973     -0.517000020       49.9260483      -1.56811035    
   2.16155505      -1.44430494     -0.517000020       49.9260483      -1.56811035    
   1.56075203      -1.04286098     -0.606999993       49.9260483      -1.56811035    
   1.56075203      -1.04286098     -0.606999993       152.642319      -1.57129371    
   1.13495600     -0.758352995     -0.606999993       152.642319      -1.57129371    
   1.26109600     -0.522363007     -0.606999993       152.642319      -1.57129371    