 VARIABLES="X" "Y" "Z" "abs(p) (Pa)" "angle(p) (rad)"
ZONE N=   2709,E =    2358, F=FEPOINT, ET=QUADRILATERAL
   0.00000000      -5.48999977     -0.157000005       333.832428      -1.57103634    
   0.00000000      -4.76741982     -0.246999994       333.832428      -1.57103634    
  0.930077016      -4.67581606     -0.246999994       333.832428      -1.57103634    
   1.07104599      -5.38451099     -0.157000005       333.832428      -1.57103634    
  -1.07104599      -5.38451099     -0.157000005       334.045349      -1.57103610    
 -0.930077016      -4.67581606     -0.246999994       334.045349      -1.57103610    
   0.00000000      -4.76741982     -0.246999994       334.045349      -1.57103610    
   0.00000000      -5.48999977     -0.157000005       334.045349      -1.57103610    
  -2.10093188      -5.07209921     -0.157000005       321.974426      -1.57104421    
  -1.82441294      -4.40452194     -0.246999994       321.974426      -1.57104421    
 -0.930077016      -4.67581606     -0.246999994       321.974426      -1.57104421    
  -1.07104599      -5.38451099     -0.157000005       321.974426      -1.57104421    
  -3.05008101      -4.56476784     -0.157000005       296.839417      -1.57106364    
  -2.64863706      -3.96396494     -0.246999994       296.839417      -1.57106364    
  -1.82441294      -4.40452194     -0.246999994       296.839417      -1.57106364    
  -2.10093188      -5.07209921     -0.157000005       296.839417      -1.57106364    
  -3.88201594      -3.88201594     -0.157000005       261.762146      -1.57109678    
  -3.37107491      -3.37107491     -0.246999994       261.762146      -1.57109678    
  -2.64863706      -3.96396494     -0.246999994       261.762146      -1.57109678    
  -3.05008101      -4.56476784     -0.157000005       261.762146      -1.57109678    
  -4.56476784      -3.05008101     -0.157000005       216.609177      -1.57115495    
  -3.96396494      -2.64863706     -0.246999994       216.609177      -1.57115495    
  -3.37107491      -3.37107491     -0.246999994       216.609177      -1.57115495    
  -3.88201594      -3.88201594     -0.157000005       216.609177      -1.57115495    
  -5.07209921      -2.10093188     -0.157000005       160.974213      -1.57127190    
  -4.40452194      -1.82441294     -0.246999994       160.974213      -1.57127190    
  -3.96396494      -2.64863706     -0.246999994       160.974213      -1.57127190    
  -4.56476784      -3.05008101     -0.157000005       160.974213      -1.57127190    
  -5.38451099      -1.07104599     -0.157000005       99.0632324      -1.57155693    
  -4.67581606     -0.930077016     -0.246999994       99.0632324      -1.57155693    
  -4.40452194      -1.82441294     -0.246999994       99.0632324      -1.57155693    
  -5.07209921      -2.10093188     -0.157000005       99.0632324      -1.57155693    
  -5.48999977       0.00000000     -0.157000005       34.3099823      -1.57295525    
  -4.76741982       0.00000000     -0.246999994       34.3099823      -1.57295525    
  -4.67581606     -0.930077016     -0.246999994       34.3099823      -1.57295525    
  -5.38451099      -1.07104599     -0.157000005       34.3099823      -1.57295525    
  -5.38451099       1.07104599     -0.157000005       31.2426739       1.57312417    
  -4.67581606      0.930077016     -0.246999994       31.2426739       1.57312417    
  -4.76741982       0.00000000     -0.246999994       31.2426739       1.57312417    
  -5.48999977       0.00000000     -0.157000005       31.2426739       1.57312417    
  -5.07209921       2.10093188     -0.157000005       96.2943268       1.57153845    
  -4.40452194       1.82441294     -0.246999994       96.2943268       1.57153845    
  -4.67581606      0.930077016     -0.246999994       96.2943268       1.57153845    
  -5.38451099       1.07104599     -0.157000005       96.2943268       1.57153845    
  -4.56476784       3.05008101     -0.157000005       158.916962       1.57123840    
  -3.96396494       2.64863706     -0.246999994       158.916962       1.57123840    
  -4.40452194       1.82441294     -0.246999994       158.916962       1.57123840    
  -5.07209921       2.10093188     -0.157000005       158.916962       1.57123840    
  -3.88201594       3.88201594     -0.157000005       215.227554       1.57111752    
  -3.37107491       3.37107491     -0.246999994       215.227554       1.57111752    
  -3.96396494       2.64863706     -0.246999994       215.227554       1.57111752    
  -4.56476784       3.05008101     -0.157000005       215.227554       1.57111752    
  -3.05008101       4.56476784     -0.157000005       262.674988       1.57105589    
  -2.64863706       3.96396494     -0.246999994       262.674988       1.57105589    
  -3.37107491       3.37107491     -0.246999994       262.674988       1.57105589    
  -3.88201594       3.88201594     -0.157000005       262.674988       1.57105589    
  -2.10093188       5.07209921     -0.157000005       298.270813       1.57102251    
  -1.82441294       4.40452194     -0.246999994       298.270813       1.57102251    
  -2.64863706       3.96396494     -0.246999994       298.270813       1.57102251    
  -3.05008101       4.56476784     -0.157000005       298.270813       1.57102251    
  -1.07104599       5.38451099     -0.157000005       323.883057       1.57100320    
 -0.930077016       4.67581606     -0.246999994       323.883057       1.57100320    
  -1.82441294       4.40452194     -0.246999994       323.883057       1.57100320    
  -2.10093188       5.07209921     -0.157000005       323.883057       1.57100320    
   0.00000000       5.48999977     -0.157000005       336.600555       1.57099462    
   0.00000000       4.76741982     -0.246999994       336.600555       1.57099462    
 -0.930077016       4.67581606     -0.246999994       336.600555       1.57099462    
  -1.07104599       5.38451099     -0.157000005       336.600555       1.57099462    
   1.07104599       5.38451099     -0.157000005       337.157410       1.57099438    
  0.930077016       4.67581606     -0.246999994       337.157410       1.57099438    
   0.00000000       4.76741982     -0.246999994       337.157410       1.57099438    
   0.00000000       5.48999977     -0.157000005       337.157410       1.57099438    
   2.10093188       5.07209921     -0.157000005       323.916473       1.57100332    
   1.82441294       4.40452194     -0.246999994       323.916473       1.57100332    
  0.930077016       4.67581606     -0.246999994       323.916473       1.57100332    
   1.07104599       5.38451099     -0.157000005       323.916473       1.57100332    
   3.05008101       4.56476784     -0.157000005       298.999023       1.57102215    
   2.64863706       3.96396494     -0.246999994       298.999023       1.57102215    
   1.82441294       4.40452194     -0.246999994       298.999023       1.57102215    
   2.10093188       5.07209921     -0.157000005       298.999023       1.57102215    
   3.88201594       3.88201594     -0.157000005       263.769745       1.57105505    
   3.37107491       3.37107491     -0.246999994       263.769745       1.57105505    
   2.64863706       3.96396494     -0.246999994       263.769745       1.57105505    
   3.05008101       4.56476784     -0.157000005       263.769745       1.57105505    
   4.56476784       3.05008101     -0.157000005       216.800858       1.57111537    
   3.96396494       2.64863706     -0.246999994       216.800858       1.57111537    
   3.37107491       3.37107491     -0.246999994       216.800858       1.57111537    
   3.88201594       3.88201594     -0.157000005       216.800858       1.57111537    
   5.07209921       2.10093188     -0.157000005       160.407990       1.57123458    
   4.40452194       1.82441294     -0.246999994       160.407990       1.57123458    
   3.96396494       2.64863706     -0.246999994       160.407990       1.57123458    
   4.56476784       3.05008101     -0.157000005       160.407990       1.57123458    
   5.38451099       1.07104599     -0.157000005       97.7209396       1.57152808    
   4.67581606      0.930077016     -0.246999994       97.7209396       1.57152808    
   4.40452194       1.82441294     -0.246999994       97.7209396       1.57152808    
   5.07209921       2.10093188     -0.157000005       97.7209396       1.57152808    
   5.48999977       0.00000000     -0.157000005       32.7854843       1.57301760    
   4.76741982       0.00000000     -0.246999994       32.7854843       1.57301760    
   4.67581606      0.930077016     -0.246999994       32.7854843       1.57301760    
   5.38451099       1.07104599     -0.157000005       32.7854843       1.57301760    
   5.38451099      -1.07104599     -0.157000005       32.6752930      -1.57306516    
   4.67581606     -0.930077016     -0.246999994       32.6752930      -1.57306516    
   4.76741982       0.00000000     -0.246999994       32.6752930      -1.57306516    
   5.48999977       0.00000000     -0.157000005       32.6752930      -1.57306516    
   5.07209921      -2.10093188     -0.157000005       97.4945984      -1.57156992    
   4.40452194      -1.82441294     -0.246999994       97.4945984      -1.57156992    
   4.67581606     -0.930077016     -0.246999994       97.4945984      -1.57156992    
   5.38451099      -1.07104599     -0.157000005       97.4945984      -1.57156992    
   4.56476784      -3.05008101     -0.157000005       159.448364      -1.57127702    
   3.96396494      -2.64863706     -0.246999994       159.448364      -1.57127702    
   4.40452194      -1.82441294     -0.246999994       159.448364      -1.57127702    
   5.07209921      -2.10093188     -0.157000005       159.448364      -1.57127702    
   3.88201594      -3.88201594     -0.157000005       214.925247      -1.57115805    
   3.37107491      -3.37107491     -0.246999994       214.925247      -1.57115805    
   3.96396494      -2.64863706     -0.246999994       214.925247      -1.57115805    
   4.56476784      -3.05008101     -0.157000005       214.925247      -1.57115805    
   3.05008101      -4.56476784     -0.157000005       261.118286      -1.57109773    
   2.64863706      -3.96396494     -0.246999994       261.118286      -1.57109773    
   3.37107491      -3.37107491     -0.246999994       261.118286      -1.57109773    
   3.88201594      -3.88201594     -0.157000005       261.118286      -1.57109773    
   2.10093188      -5.07209921     -0.157000005       296.057434      -1.57106447    
   1.82441294      -4.40452194     -0.246999994       296.057434      -1.57106447    
   2.64863706      -3.96396494     -0.246999994       296.057434      -1.57106447    
   3.05008101      -4.56476784     -0.157000005       296.057434      -1.57106447    
   1.07104599      -5.38451099     -0.157000005       320.996674      -1.57104516    
  0.930077016      -4.67581606     -0.246999994       320.996674      -1.57104516    
   1.82441294      -4.40452194     -0.246999994       320.996674      -1.57104516    
   2.10093188      -5.07209921     -0.157000005       320.996674      -1.57104516    
   0.00000000      -1.87709999     -0.606999993       1851.42285      -1.57083654    
   0.00000000      -1.36500001     -0.606999993       1851.42285      -1.57083654    
  0.266297996      -1.33877206     -0.606999993       1851.42285      -1.57083654    
  0.366203994      -1.84103203     -0.606999993       1851.42285      -1.57083654    
   0.00000000      -1.87709999     -0.606999993       1151.31287      -1.57086229    
   0.00000000      -2.59967995     -0.517000020       1151.31287      -1.57086229    
 -0.507171988      -2.54972792     -0.517000020       1151.31287      -1.57086229    
 -0.366203994      -1.84103203     -0.606999993       1151.31287      -1.57086229    
 -0.366203994      -1.84103203     -0.606999993       1854.23755      -1.57083654    
 -0.266297996      -1.33877206     -0.606999993       1854.23755      -1.57083654    
   0.00000000      -1.36500001     -0.606999993       1854.23755      -1.57083654    
   0.00000000      -1.87709999     -0.606999993       1854.23755      -1.57083654    
 -0.366203994      -1.84103203     -0.606999993       1114.90723      -1.57086432    
 -0.507171988      -2.54972792     -0.517000020       1114.90723      -1.57086432    
 -0.994853973      -2.40179110     -0.517000020       1114.90723      -1.57086432    
 -0.718334973      -1.73421395     -0.606999993       1114.90723      -1.57086432    
 -0.718334973      -1.73421395     -0.606999993       1790.76636      -1.57083797    
 -0.522363007      -1.26109600     -0.606999993       1790.76636      -1.57083797    
 -0.266297996      -1.33877206     -0.606999993       1790.76636      -1.57083797    
 -0.366203994      -1.84103203     -0.606999993       1790.76636      -1.57083797    
 -0.718334973      -1.73421395     -0.606999993       1039.42883      -1.57086909    
 -0.994853973      -2.40179110     -0.517000020       1039.42883      -1.57086909    
  -1.44430494      -2.16155505     -0.517000020       1039.42883      -1.57086909    
  -1.04286098      -1.56075203     -0.606999993       1039.42883      -1.57086909    
  -1.04286098      -1.56075203     -0.606999993       1660.70361      -1.57084107    
 -0.758352995      -1.13495600     -0.606999993       1660.70361      -1.57084107    
 -0.522363007      -1.26109600     -0.606999993       1660.70361      -1.57084107    
 -0.718334973      -1.73421395     -0.606999993       1660.70361      -1.57084107    
  -1.04286098      -1.56075203     -0.606999993       922.108154      -1.57087791    
  -1.44430494      -2.16155505     -0.517000020       922.108154      -1.57087791    
  -1.83825099      -1.83825099     -0.517000020       922.108154      -1.57087791    
  -1.32730997      -1.32730997     -0.606999993       922.108154      -1.57087791    
  -1.32730997      -1.32730997     -0.606999993       1464.67761      -1.57084692    
 -0.965201020     -0.965201020     -0.606999993       1464.67761      -1.57084692    
 -0.758352995      -1.13495600     -0.606999993       1464.67761      -1.57084692    
  -1.04286098      -1.56075203     -0.606999993       1464.67761      -1.57084692    
  -1.32730997      -1.32730997     -0.606999993       761.591370      -1.57089460    
  -1.83825099      -1.83825099     -0.517000020       761.591370      -1.57089460    
  -2.16155505      -1.44430494     -0.517000020       761.591370      -1.57089460    
  -1.56075203      -1.04286098     -0.606999993       761.591370      -1.57089460    
  -1.56075203      -1.04286098     -0.606999993       1207.47693      -1.57085752    
  -1.13495600     -0.758352995     -0.606999993       1207.47693      -1.57085752    
 -0.965201020     -0.965201020     -0.606999993       1207.47693      -1.57085752    
  -1.32730997      -1.32730997     -0.606999993       1207.47693      -1.57085752    
  -1.56075203      -1.04286098     -0.606999993       563.767456      -1.57092810    
  -2.16155505      -1.44430494     -0.517000020       563.767456      -1.57092810    
  -2.40179110     -0.994853973     -0.517000020       563.767456      -1.57092810    
  -1.73421395     -0.718334973     -0.606999993       563.767456      -1.57092810    
  -1.73421395     -0.718334973     -0.606999993       900.208984      -1.57087815    
  -1.26109600     -0.522363007     -0.606999993       900.208984      -1.57087815    
  -1.13495600     -0.758352995     -0.606999993       900.208984      -1.57087815    
  -1.56075203      -1.04286098     -0.606999993       900.208984      -1.57087815    
  -1.73421395     -0.718334973     -0.606999993       345.223541      -1.57100987    
  -2.40179110     -0.994853973     -0.517000020       345.223541      -1.57100987    
  -2.54972792     -0.507171988     -0.517000020       345.223541      -1.57100987    
  -1.84103203     -0.366203994     -0.606999993       345.223541      -1.57100987    
  -1.84103203     -0.366203994     -0.606999993       559.105713      -1.57092762    
  -1.33877206     -0.266297996     -0.606999993       559.105713      -1.57092762    
  -1.26109600     -0.522363007     -0.606999993       559.105713      -1.57092762    
  -1.73421395     -0.718334973     -0.606999993       559.105713      -1.57092762    
  -1.84103203     -0.366203994     -0.606999993       122.403214      -1.57139361    
  -2.54972792     -0.507171988     -0.517000020       122.403214      -1.57139361    
  -2.59967995       0.00000000     -0.517000020       122.403214      -1.57139361    
  -1.87709999       0.00000000     -0.606999993       122.403214      -1.57139361    
  -1.87709999       0.00000000     -0.606999993       200.713150      -1.57116032    
  -1.36500001       0.00000000     -0.606999993       200.713150      -1.57116032    
  -1.33877206     -0.266297996     -0.606999993       200.713150      -1.57116032    
  -1.84103203     -0.366203994     -0.606999993       200.713150      -1.57116032    
  -1.87709999       0.00000000     -0.606999993       97.7956619       1.57153773    
  -2.59967995       0.00000000     -0.517000020       97.7956619       1.57153773    
  -2.54972792      0.507171988     -0.517000020       97.7956619       1.57153773    
  -1.84103203      0.366203994     -0.606999993       97.7956619       1.57153773    
  -1.84103203      0.366203994     -0.606999993       161.867325       1.57124555    
  -1.33877206      0.266297996     -0.606999993       161.867325       1.57124555    
  -1.36500001       0.00000000     -0.606999993       161.867325       1.57124555    
  -1.87709999       0.00000000     -0.606999993       161.867325       1.57124555    
  -1.84103203      0.366203994     -0.606999993       317.745178       1.57102263    
  -2.54972792      0.507171988     -0.517000020       317.745178       1.57102263    
  -2.40179110      0.994853973     -0.517000020       317.745178       1.57102263    
  -1.73421395      0.718334973     -0.606999993       317.745178       1.57102263    
  -1.73421395      0.718334973     -0.606999993       519.296814       1.57093573    
  -1.26109600      0.522363007     -0.606999993       519.296814       1.57093573    
  -1.33877206      0.266297996     -0.606999993       519.296814       1.57093573    
  -1.84103203      0.366203994     -0.606999993       519.296814       1.57093573    
  -1.73421395      0.718334973     -0.606999993       534.550537       1.57092977    
  -2.40179110      0.994853973     -0.517000020       534.550537       1.57092977    
  -2.16155505       1.44430494     -0.517000020       534.550537       1.57092977    
  -1.56075203       1.04286098     -0.606999993       534.550537       1.57092977    
  -1.56075203       1.04286098     -0.606999993       860.424988       1.57088017    
  -1.13495600      0.758352995     -0.606999993       860.424988       1.57088017    
  -1.26109600      0.522363007     -0.606999993       860.424988       1.57088017    
  -1.73421395      0.718334973     -0.606999993       860.424988       1.57088017    
  -1.56075203       1.04286098     -0.606999993       734.803345       1.57089269    
  -2.16155505       1.44430494     -0.517000020       734.803345       1.57089269    
  -1.83825099       1.83825099     -0.517000020       734.803345       1.57089269    
  -1.32730997       1.32730997     -0.606999993       734.803345       1.57089269    
  -1.32730997       1.32730997     -0.606999993       1170.30713       1.57085776    
 -0.965201020      0.965201020     -0.606999993       1170.30713       1.57085776    
  -1.13495600      0.758352995     -0.606999993       1170.30713       1.57085776    
  -1.56075203       1.04286098     -0.606999993       1170.30713       1.57085776    
  -1.32730997       1.32730997     -0.606999993       901.059631       1.57087445    
  -1.83825099       1.83825099     -0.517000020       901.059631       1.57087445    
  -1.44430494       2.16155505     -0.517000020       901.059631       1.57087445    
  -1.04286098       1.56075203     -0.606999993       901.059631       1.57087445    
  -1.04286098       1.56075203     -0.606999993       1432.52515       1.57084632    
 -0.758352995       1.13495600     -0.606999993       1432.52515       1.57084632    
 -0.965201020      0.965201020     -0.606999993       1432.52515       1.57084632    
  -1.32730997       1.32730997     -0.606999993       1432.52515       1.57084632    
  -1.04286098       1.56075203     -0.606999993       1024.61389       1.57086468    
  -1.44430494       2.16155505     -0.517000020       1024.61389       1.57086468    
 -0.994853973       2.40179110     -0.517000020       1024.61389       1.57086468    
 -0.718334973       1.73421395     -0.606999993       1024.61389       1.57086468    
 -0.718334973       1.73421395     -0.606999993       1635.22998       1.57084000    
 -0.522363007       1.26109600     -0.606999993       1635.22998       1.57084000    
 -0.758352995       1.13495600     -0.606999993       1635.22998       1.57084000    
  -1.04286098       1.56075203     -0.606999993       1635.22998       1.57084000    
 -0.718334973       1.73421395     -0.606999993       1105.34680       1.57085943    
 -0.994853973       2.40179110     -0.517000020       1105.34680       1.57085943    
 -0.507171988       2.54972792     -0.517000020       1105.34680       1.57085943    
 -0.366203994       1.84103203     -0.606999993       1105.34680       1.57085943    
 -0.366203994       1.84103203     -0.606999993       1772.37207       1.57083654    
 -0.266297996       1.33877206     -0.606999993       1772.37207       1.57083654    
 -0.522363007       1.26109600     -0.606999993       1772.37207       1.57083654    
 -0.718334973       1.73421395     -0.606999993       1772.37207       1.57083654    
 -0.366203994       1.84103203     -0.606999993       1145.98669       1.57085717    
 -0.507171988       2.54972792     -0.517000020       1145.98669       1.57085717    
   0.00000000       2.59967995     -0.517000020       1145.98669       1.57085717    
   0.00000000       1.87709999     -0.606999993       1145.98669       1.57085717    
   0.00000000       1.87709999     -0.606999993       1842.52393       1.57083499    
   0.00000000       1.36500001     -0.606999993       1842.52393       1.57083499    
 -0.266297996       1.33877206     -0.606999993       1842.52393       1.57083499    
 -0.366203994       1.84103203     -0.606999993       1842.52393       1.57083499    
   0.00000000       1.87709999     -0.606999993       1147.76953       1.57085705    
   0.00000000       2.59967995     -0.517000020       1147.76953       1.57085705    
  0.507171988       2.54972792     -0.517000020       1147.76953       1.57085705    
  0.366203994       1.84103203     -0.606999993       1147.76953       1.57085705    
  0.366203994       1.84103203     -0.606999993       1845.51831       1.57083488    
  0.266297996       1.33877206     -0.606999993       1845.51831       1.57083488    
   0.00000000       1.36500001     -0.606999993       1845.51831       1.57083488    
   0.00000000       1.87709999     -0.606999993       1845.51831       1.57083488    
  0.366203994       1.84103203     -0.606999993       1110.64026       1.57085919    
  0.507171988       2.54972792     -0.517000020       1110.64026       1.57085919    
  0.994853973       2.40179110     -0.517000020       1110.64026       1.57085919    
  0.718334973       1.73421395     -0.606999993       1110.64026       1.57085919    
  0.718334973       1.73421395     -0.606999993       1781.25940       1.57083631    
  0.522363007       1.26109600     -0.606999993       1781.25940       1.57083631    
  0.266297996       1.33877206     -0.606999993       1781.25940       1.57083631    
  0.366203994       1.84103203     -0.606999993       1781.25940       1.57083631    
  0.718334973       1.73421395     -0.606999993       1033.27454       1.57086408    
  0.994853973       2.40179110     -0.517000020       1033.27454       1.57086408    
   1.44430494       2.16155505     -0.517000020       1033.27454       1.57086408    
   1.04286098       1.56075203     -0.606999993       1033.27454       1.57086408    
   1.04286098       1.56075203     -0.606999993       1649.63367       1.57083964    
  0.758352995       1.13495600     -0.606999993       1649.63367       1.57083964    
  0.522363007       1.26109600     -0.606999993       1649.63367       1.57083964    
  0.718334973       1.73421395     -0.606999993       1649.63367       1.57083964    
   1.04286098       1.56075203     -0.606999993       912.816711       1.57087338    
   1.44430494       2.16155505     -0.517000020       912.816711       1.57087338    
   1.83825099       1.83825099     -0.517000020       912.816711       1.57087338    
   1.32730997       1.32730997     -0.606999993       912.816711       1.57087338    
   1.32730997       1.32730997     -0.606999993       1451.95239       1.57084572    
  0.965201020      0.965201020     -0.606999993       1451.95239       1.57084572    
  0.758352995       1.13495600     -0.606999993       1451.95239       1.57084572    
   1.04286098       1.56075203     -0.606999993       1451.95239       1.57084572    
   1.32730997       1.32730997     -0.606999993       749.168945       1.57089078    
   1.83825099       1.83825099     -0.517000020       749.168945       1.57089078    
   2.16155505       1.44430494     -0.517000020       749.168945       1.57089078    
   1.56075203       1.04286098     -0.606999993       749.168945       1.57089078    
   1.56075203       1.04286098     -0.606999993       1193.87207       1.57085657    
   1.13495600      0.758352995     -0.606999993       1193.87207       1.57085657    
  0.965201020      0.965201020     -0.606999993       1193.87207       1.57085657    
   1.32730997       1.32730997     -0.606999993       1193.87207       1.57085657    
   1.56075203       1.04286098     -0.606999993       550.773926       1.57092583    
   2.16155505       1.44430494     -0.517000020       550.773926       1.57092583    
   2.40179110      0.994853973     -0.517000020       550.773926       1.57092583    
   1.73421395      0.718334973     -0.606999993       550.773926       1.57092583    
   1.73421395      0.718334973     -0.606999993       886.796448       1.57087767    
   1.26109600      0.522363007     -0.606999993       886.796448       1.57087767    
   1.13495600      0.758352995     -0.606999993       886.796448       1.57087767    
   1.56075203       1.04286098     -0.606999993       886.796448       1.57087767    
   1.73421395      0.718334973     -0.606999993       335.033508       1.57101107    
   2.40179110      0.994853973     -0.517000020       335.033508       1.57101107    
   2.54972792      0.507171988     -0.517000020       335.033508       1.57101107    
   1.84103203      0.366203994     -0.606999993       335.033508       1.57101107    
   1.84103203      0.366203994     -0.606999993       547.314270       1.57092869    
   1.33877206      0.266297996     -0.606999993       547.314270       1.57092869    
   1.26109600      0.522363007     -0.606999993       547.314270       1.57092869    
   1.73421395      0.718334973     -0.606999993       547.314270       1.57092869    
   1.84103203      0.366203994     -0.606999993       115.467522       1.57142472    
   2.54972792      0.507171988     -0.517000020       115.467522       1.57142472    
   2.59967995       0.00000000     -0.517000020       115.467522       1.57142472    
   1.87709999       0.00000000     -0.606999993       115.467522       1.57142472    
   1.87709999       0.00000000     -0.606999993       190.569412       1.57117808    
   1.36500001       0.00000000     -0.606999993       190.569412       1.57117808    
   1.33877206      0.266297996     -0.606999993       190.569412       1.57117808    
   1.84103203      0.366203994     -0.606999993       190.569412       1.57117808    
   1.87709999       0.00000000     -0.606999993       104.936729      -1.57149327    
   2.59967995       0.00000000     -0.517000020       104.936729      -1.57149327    
   2.54972792     -0.507171988     -0.517000020       104.936729      -1.57149327    
   1.84103203     -0.366203994     -0.606999993       104.936729      -1.57149327    
   1.84103203     -0.366203994     -0.606999993       172.391235      -1.57122028    
   1.33877206     -0.266297996     -0.606999993       172.391235      -1.57122028    
   1.36500001       0.00000000     -0.606999993       172.391235      -1.57122028    
   1.87709999       0.00000000     -0.606999993       172.391235      -1.57122028    
   1.84103203     -0.366203994     -0.606999993       328.530121      -1.57102072    
   2.54972792     -0.507171988     -0.517000020       328.530121      -1.57102072    
   2.40179110     -0.994853973     -0.517000020       328.530121      -1.57102072    
   1.73421395     -0.718334973     -0.606999993       328.530121      -1.57102072    
   1.73421395     -0.718334973     -0.606999993       532.227417      -1.57093430    
   1.26109600     -0.522363007     -0.606999993       532.227417      -1.57093430    
   1.33877206     -0.266297996     -0.606999993       532.227417      -1.57093430    
   1.84103203     -0.366203994     -0.606999993       532.227417      -1.57093430    
   1.73421395     -0.718334973     -0.606999993       548.433960      -1.57093179    
   2.40179110     -0.994853973     -0.517000020       548.433960      -1.57093179    
   2.16155505      -1.44430494     -0.517000020       548.433960      -1.57093179    
   1.56075203      -1.04286098     -0.606999993       548.433960      -1.57093179    
   1.56075203      -1.04286098     -0.606999993       875.830994      -1.57088053    
   1.13495600     -0.758352995     -0.606999993       875.830994      -1.57088053    
   1.26109600     -0.522363007     -0.606999993       875.830994      -1.57088053    