 VARIABLES="X" "Y" "Z" "abs(p) (Pa)" "angle(p) (rad)"
ZONE N=   2709,E =    2358, F=FEPOINT, ET=QUADRILATERAL
   0.00000000      -5.48999977     -0.157000005       406.707031      -1.50076151    
   0.00000000      -4.76741982     -0.246999994       406.707031      -1.50076151    
  0.930077016      -4.67581606     -0.246999994       406.707031      -1.50076151    
   1.07104599      -5.38451099     -0.157000005       406.707031      -1.50076151    
  -1.07104599      -5.38451099     -0.157000005       405.967865       1.64642024    
 -0.930077016      -4.67581606     -0.246999994       405.967865       1.64642024    
   0.00000000      -4.76741982     -0.246999994       405.967865       1.64642024    
   0.00000000      -5.48999977     -0.157000005       405.967865       1.64642024    
  -2.10093188      -5.07209921     -0.157000005       1223.31189       1.64475787    
  -1.82441294      -4.40452194     -0.246999994       1223.31189       1.64475787    
 -0.930077016      -4.67581606     -0.246999994       1223.31189       1.64475787    
  -1.07104599      -5.38451099     -0.157000005       1223.31189       1.64475787    
  -3.05008101      -4.56476784     -0.157000005       1958.34229       1.64825153    
  -2.64863706      -3.96396494     -0.246999994       1958.34229       1.64825153    
  -1.82441294      -4.40452194     -0.246999994       1958.34229       1.64825153    
  -2.10093188      -5.07209921     -0.157000005       1958.34229       1.64825153    
  -3.88201594      -3.88201594     -0.157000005       2645.83936       1.64808488    
  -3.37107491      -3.37107491     -0.246999994       2645.83936       1.64808488    
  -2.64863706      -3.96396494     -0.246999994       2645.83936       1.64808488    
  -3.05008101      -4.56476784     -0.157000005       2645.83936       1.64808488    
  -4.56476784      -3.05008101     -0.157000005       3282.87817       1.64450574    
  -3.96396494      -2.64863706     -0.246999994       3282.87817       1.64450574    
  -3.37107491      -3.37107491     -0.246999994       3282.87817       1.64450574    
  -3.88201594      -3.88201594     -0.157000005       3282.87817       1.64450574    
  -5.07209921      -2.10093188     -0.157000005       3683.24609       1.64538324    
  -4.40452194      -1.82441294     -0.246999994       3683.24609       1.64538324    
  -3.96396494      -2.64863706     -0.246999994       3683.24609       1.64538324    
  -4.56476784      -3.05008101     -0.157000005       3683.24609       1.64538324    
  -5.38451099      -1.07104599     -0.157000005       3982.50879       1.64340842    
  -4.67581606     -0.930077016     -0.246999994       3982.50879       1.64340842    
  -4.40452194      -1.82441294     -0.246999994       3982.50879       1.64340842    
  -5.07209921      -2.10093188     -0.157000005       3982.50879       1.64340842    
  -5.48999977       0.00000000     -0.157000005       4202.88916       1.63850605    
  -4.76741982       0.00000000     -0.246999994       4202.88916       1.63850605    
  -4.67581606     -0.930077016     -0.246999994       4202.88916       1.63850605    
  -5.38451099      -1.07104599     -0.157000005       4202.88916       1.63850605    
  -5.38451099       1.07104599     -0.157000005       4208.06787       1.63596666    
  -4.67581606      0.930077016     -0.246999994       4208.06787       1.63596666    
  -4.76741982       0.00000000     -0.246999994       4208.06787       1.63596666    
  -5.48999977       0.00000000     -0.157000005       4208.06787       1.63596666    
  -5.07209921       2.10093188     -0.157000005       4047.14844       1.63432872    
  -4.40452194       1.82441294     -0.246999994       4047.14844       1.63432872    
  -4.67581606      0.930077016     -0.246999994       4047.14844       1.63432872    
  -5.38451099       1.07104599     -0.157000005       4047.14844       1.63432872    
  -4.56476784       3.05008101     -0.157000005       3727.42578       1.63371217    
  -3.96396494       2.64863706     -0.246999994       3727.42578       1.63371217    
  -4.40452194       1.82441294     -0.246999994       3727.42578       1.63371217    
  -5.07209921       2.10093188     -0.157000005       3727.42578       1.63371217    
  -3.88201594       3.88201594     -0.157000005       3219.42944       1.63587725    
  -3.37107491       3.37107491     -0.246999994       3219.42944       1.63587725    
  -3.96396494       2.64863706     -0.246999994       3219.42944       1.63587725    
  -4.56476784       3.05008101     -0.157000005       3219.42944       1.63587725    
  -3.05008101       4.56476784     -0.157000005       2675.72925       1.63512886    
  -2.64863706       3.96396494     -0.246999994       2675.72925       1.63512886    
  -3.37107491       3.37107491     -0.246999994       2675.72925       1.63512886    
  -3.88201594       3.88201594     -0.157000005       2675.72925       1.63512886    
  -2.10093188       5.07209921     -0.157000005       1962.61890       1.63849533    
  -1.82441294       4.40452194     -0.246999994       1962.61890       1.63849533    
  -2.64863706       3.96396494     -0.246999994       1962.61890       1.63849533    
  -3.05008101       4.56476784     -0.157000005       1962.61890       1.63849533    
  -1.07104599       5.38451099     -0.157000005       1222.45862       1.63879502    
 -0.930077016       4.67581606     -0.246999994       1222.45862       1.63879502    
  -1.82441294       4.40452194     -0.246999994       1222.45862       1.63879502    
  -2.10093188       5.07209921     -0.157000005       1222.45862       1.63879502    
   0.00000000       5.48999977     -0.157000005       408.577179       1.64235246    
   0.00000000       4.76741982     -0.246999994       408.577179       1.64235246    
 -0.930077016       4.67581606     -0.246999994       408.577179       1.64235246    
  -1.07104599       5.38451099     -0.157000005       408.577179       1.64235246    
   1.07104599       5.38451099     -0.157000005       414.154968      -1.49839842    
  0.930077016       4.67581606     -0.246999994       414.154968      -1.49839842    
   0.00000000       4.76741982     -0.246999994       414.154968      -1.49839842    
   0.00000000       5.48999977     -0.157000005       414.154968      -1.49839842    
   2.10093188       5.07209921     -0.157000005       1203.80701      -1.49398911    
   1.82441294       4.40452194     -0.246999994       1203.80701      -1.49398911    
  0.930077016       4.67581606     -0.246999994       1203.80701      -1.49398911    
   1.07104599       5.38451099     -0.157000005       1203.80701      -1.49398911    
   3.05008101       4.56476784     -0.157000005       1960.31384      -1.49321353    
   2.64863706       3.96396494     -0.246999994       1960.31384      -1.49321353    
   1.82441294       4.40452194     -0.246999994       1960.31384      -1.49321353    
   2.10093188       5.07209921     -0.157000005       1960.31384      -1.49321353    
   3.88201594       3.88201594     -0.157000005       2690.61719      -1.49593210    
   3.37107491       3.37107491     -0.246999994       2690.61719      -1.49593210    
   2.64863706       3.96396494     -0.246999994       2690.61719      -1.49593210    
   3.05008101       4.56476784     -0.157000005       2690.61719      -1.49593210    
   4.56476784       3.05008101     -0.157000005       3268.24463      -1.49593556    
   3.96396494       2.64863706     -0.246999994       3268.24463      -1.49593556    
   3.37107491       3.37107491     -0.246999994       3268.24463      -1.49593556    
   3.88201594       3.88201594     -0.157000005       3268.24463      -1.49593556    
   5.07209921       2.10093188     -0.157000005       3742.01953      -1.49779844    
   4.40452194       1.82441294     -0.246999994       3742.01953      -1.49779844    
   3.96396494       2.64863706     -0.246999994       3742.01953      -1.49779844    
   4.56476784       3.05008101     -0.157000005       3742.01953      -1.49779844    
   5.38451099       1.07104599     -0.157000005       3980.41992      -1.49658787    
   4.67581606      0.930077016     -0.246999994       3980.41992      -1.49658787    
   4.40452194       1.82441294     -0.246999994       3980.41992      -1.49658787    
   5.07209921       2.10093188     -0.157000005       3980.41992      -1.49658787    
   5.48999977       0.00000000     -0.157000005       4123.94336      -1.49814510    
   4.76741982       0.00000000     -0.246999994       4123.94336      -1.49814510    
   4.67581606      0.930077016     -0.246999994       4123.94336      -1.49814510    
   5.38451099       1.07104599     -0.157000005       4123.94336      -1.49814510    
   5.38451099      -1.07104599     -0.157000005       4122.60742      -1.50006068    
   4.67581606     -0.930077016     -0.246999994       4122.60742      -1.50006068    
   4.76741982       0.00000000     -0.246999994       4122.60742      -1.50006068    
   5.48999977       0.00000000     -0.157000005       4122.60742      -1.50006068    
   5.07209921      -2.10093188     -0.157000005       3965.93286      -1.50165951    
   4.40452194      -1.82441294     -0.246999994       3965.93286      -1.50165951    
   4.67581606     -0.930077016     -0.246999994       3965.93286      -1.50165951    
   5.38451099      -1.07104599     -0.157000005       3965.93286      -1.50165951    
   4.56476784      -3.05008101     -0.157000005       3656.17041      -1.50273347    
   3.96396494      -2.64863706     -0.246999994       3656.17041      -1.50273347    
   4.40452194      -1.82441294     -0.246999994       3656.17041      -1.50273347    
   5.07209921      -2.10093188     -0.157000005       3656.17041      -1.50273347    
   3.88201594      -3.88201594     -0.157000005       3207.15845      -1.50334585    
   3.37107491      -3.37107491     -0.246999994       3207.15845      -1.50334585    
   3.96396494      -2.64863706     -0.246999994       3207.15845      -1.50334585    
   4.56476784      -3.05008101     -0.157000005       3207.15845      -1.50334585    
   3.05008101      -4.56476784     -0.157000005       2669.86816      -1.50528502    
   2.64863706      -3.96396494     -0.246999994       2669.86816      -1.50528502    
   3.37107491      -3.37107491     -0.246999994       2669.86816      -1.50528502    
   3.88201594      -3.88201594     -0.157000005       2669.86816      -1.50528502    
   2.10093188      -5.07209921     -0.157000005       1956.57764      -1.50274158    
   1.82441294      -4.40452194     -0.246999994       1956.57764      -1.50274158    
   2.64863706      -3.96396494     -0.246999994       1956.57764      -1.50274158    
   3.05008101      -4.56476784     -0.157000005       1956.57764      -1.50274158    
   1.07104599      -5.38451099     -0.157000005       1202.05090      -1.50127292    
  0.930077016      -4.67581606     -0.246999994       1202.05090      -1.50127292    
   1.82441294      -4.40452194     -0.246999994       1202.05090      -1.50127292    
   2.10093188      -5.07209921     -0.157000005       1202.05090      -1.50127292    
   0.00000000      -1.87709999     -0.606999993       398.350739      -1.56286097    
   0.00000000      -1.36500001     -0.606999993       398.350739      -1.56286097    
  0.266297996      -1.33877206     -0.606999993       398.350739      -1.56286097    
  0.366203994      -1.84103203     -0.606999993       398.350739      -1.56286097    
   0.00000000      -1.87709999     -0.606999993       395.845276       1.58907926    
   0.00000000      -2.59967995     -0.517000020       395.845276       1.58907926    
 -0.507171988      -2.54972792     -0.517000020       395.845276       1.58907926    
 -0.366203994      -1.84103203     -0.606999993       395.845276       1.58907926    
 -0.366203994      -1.84103203     -0.606999993       384.549438       1.58741462    
 -0.266297996      -1.33877206     -0.606999993       384.549438       1.58741462    
   0.00000000      -1.36500001     -0.606999993       384.549438       1.58741462    
   0.00000000      -1.87709999     -0.606999993       384.549438       1.58741462    
 -0.366203994      -1.84103203     -0.606999993       1177.81262       1.58617258    
 -0.507171988      -2.54972792     -0.517000020       1177.81262       1.58617258    
 -0.994853973      -2.40179110     -0.517000020       1177.81262       1.58617258    
 -0.718334973      -1.73421395     -0.606999993       1177.81262       1.58617258    
 -0.718334973      -1.73421395     -0.606999993       1153.10071       1.58432102    
 -0.522363007      -1.26109600     -0.606999993       1153.10071       1.58432102    
 -0.266297996      -1.33877206     -0.606999993       1153.10071       1.58432102    
 -0.366203994      -1.84103203     -0.606999993       1153.10071       1.58432102    
 -0.718334973      -1.73421395     -0.606999993       1913.18115       1.58541167    
 -0.994853973      -2.40179110     -0.517000020       1913.18115       1.58541167    
  -1.44430494      -2.16155505     -0.517000020       1913.18115       1.58541167    
  -1.04286098      -1.56075203     -0.606999993       1913.18115       1.58541167    
  -1.04286098      -1.56075203     -0.606999993       1879.43591       1.58355212    
 -0.758352995      -1.13495600     -0.606999993       1879.43591       1.58355212    
 -0.522363007      -1.26109600     -0.606999993       1879.43591       1.58355212    
 -0.718334973      -1.73421395     -0.606999993       1879.43591       1.58355212    
  -1.04286098      -1.56075203     -0.606999993       2580.45239       1.58496761    
  -1.44430494      -2.16155505     -0.517000020       2580.45239       1.58496761    
  -1.83825099      -1.83825099     -0.517000020       2580.45239       1.58496761    
  -1.32730997      -1.32730997     -0.606999993       2580.45239       1.58496761    
  -1.32730997      -1.32730997     -0.606999993       2537.93774       1.58311057    
 -0.965201020     -0.965201020     -0.606999993       2537.93774       1.58311057    
 -0.758352995      -1.13495600     -0.606999993       2537.93774       1.58311057    
  -1.04286098      -1.56075203     -0.606999993       2537.93774       1.58311057    
  -1.32730997      -1.32730997     -0.606999993       3157.40088       1.58464754    
  -1.83825099      -1.83825099     -0.517000020       3157.40088       1.58464754    
  -2.16155505      -1.44430494     -0.517000020       3157.40088       1.58464754    
  -1.56075203      -1.04286098     -0.606999993       3157.40088       1.58464754    
  -1.56075203      -1.04286098     -0.606999993       3103.80176       1.58277512    
  -1.13495600     -0.758352995     -0.606999993       3103.80176       1.58277512    
 -0.965201020     -0.965201020     -0.606999993       3103.80176       1.58277512    
  -1.32730997      -1.32730997     -0.606999993       3103.80176       1.58277512    
  -1.56075203      -1.04286098     -0.606999993       3613.74561       1.58439898    
  -2.16155505      -1.44430494     -0.517000020       3613.74561       1.58439898    
  -2.40179110     -0.994853973     -0.517000020       3613.74561       1.58439898    
  -1.73421395     -0.718334973     -0.606999993       3613.74561       1.58439898    
  -1.73421395     -0.718334973     -0.606999993       3551.19312       1.58253145    
  -1.26109600     -0.522363007     -0.606999993       3551.19312       1.58253145    
  -1.13495600     -0.758352995     -0.606999993       3551.19312       1.58253145    
  -1.56075203      -1.04286098     -0.606999993       3551.19312       1.58253145    
  -1.73421395     -0.718334973     -0.606999993       3922.05493       1.58418620    
  -2.40179110     -0.994853973     -0.517000020       3922.05493       1.58418620    
  -2.54972792     -0.507171988     -0.517000020       3922.05493       1.58418620    
  -1.84103203     -0.366203994     -0.606999993       3922.05493       1.58418620    
  -1.84103203     -0.366203994     -0.606999993       3858.37842       1.58233321    
  -1.33877206     -0.266297996     -0.606999993       3858.37842       1.58233321    
  -1.26109600     -0.522363007     -0.606999993       3858.37842       1.58233321    
  -1.73421395     -0.718334973     -0.606999993       3858.37842       1.58233321    
  -1.84103203     -0.366203994     -0.606999993       4074.43481       1.58398056    
  -2.54972792     -0.507171988     -0.517000020       4074.43481       1.58398056    
  -2.59967995       0.00000000     -0.517000020       4074.43481       1.58398056    
  -1.87709999       0.00000000     -0.606999993       4074.43481       1.58398056    
  -1.87709999       0.00000000     -0.606999993       4014.64868       1.58216178    
  -1.36500001       0.00000000     -0.606999993       4014.64868       1.58216178    
  -1.33877206     -0.266297996     -0.606999993       4014.64868       1.58216178    
  -1.84103203     -0.366203994     -0.606999993       4014.64868       1.58216178    
  -1.87709999       0.00000000     -0.606999993       4076.23511       1.58378088    
  -2.59967995       0.00000000     -0.517000020       4076.23511       1.58378088    
  -2.54972792      0.507171988     -0.517000020       4076.23511       1.58378088    
  -1.84103203      0.366203994     -0.606999993       4076.23511       1.58378088    
  -1.84103203      0.366203994     -0.606999993       4018.38525       1.58198619    
  -1.33877206      0.266297996     -0.606999993       4018.38525       1.58198619    
  -1.36500001       0.00000000     -0.606999993       4018.38525       1.58198619    
  -1.87709999       0.00000000     -0.606999993       4018.38525       1.58198619    
  -1.84103203      0.366203994     -0.606999993       3929.30566       1.58356667    
  -2.54972792      0.507171988     -0.517000020       3929.30566       1.58356667    
  -2.40179110      0.994853973     -0.517000020       3929.30566       1.58356667    
  -1.73421395      0.718334973     -0.606999993       3929.30566       1.58356667    
  -1.73421395      0.718334973     -0.606999993       3870.16455       1.58182955    
  -1.26109600      0.522363007     -0.606999993       3870.16455       1.58182955    
  -1.33877206      0.266297996     -0.606999993       3870.16455       1.58182955    
  -1.84103203      0.366203994     -0.606999993       3870.16455       1.58182955    
  -1.73421395      0.718334973     -0.606999993       3628.69336       1.58337665    
  -2.40179110      0.994853973     -0.517000020       3628.69336       1.58337665    
  -2.16155505       1.44430494     -0.517000020       3628.69336       1.58337665    
  -1.56075203       1.04286098     -0.606999993       3628.69336       1.58337665    
  -1.56075203       1.04286098     -0.606999993       3571.57031       1.58167851    
  -1.13495600      0.758352995     -0.606999993       3571.57031       1.58167851    
  -1.26109600      0.522363007     -0.606999993       3571.57031       1.58167851    
  -1.73421395      0.718334973     -0.606999993       3571.57031       1.58167851    
  -1.56075203       1.04286098     -0.606999993       3178.02051       1.58323383    
  -2.16155505       1.44430494     -0.517000020       3178.02051       1.58323383    
  -1.83825099       1.83825099     -0.517000020       3178.02051       1.58323383    
  -1.32730997       1.32730997     -0.606999993       3178.02051       1.58323383    
  -1.32730997       1.32730997     -0.606999993       3130.99194       1.58157396    
 -0.965201020      0.965201020     -0.606999993       3130.99194       1.58157396    
  -1.13495600      0.758352995     -0.606999993       3130.99194       1.58157396    
  -1.56075203       1.04286098     -0.606999993       3130.99194       1.58157396    
  -1.32730997       1.32730997     -0.606999993       2601.41333       1.58315039    
  -1.83825099       1.83825099     -0.517000020       2601.41333       1.58315039    
  -1.44430494       2.16155505     -0.517000020       2601.41333       1.58315039    
  -1.04286098       1.56075203     -0.606999993       2601.41333       1.58315039    
  -1.04286098       1.56075203     -0.606999993       2567.68359       1.58148479    
 -0.758352995       1.13495600     -0.606999993       2567.68359       1.58148479    
 -0.965201020      0.965201020     -0.606999993       2567.68359       1.58148479    
  -1.32730997       1.32730997     -0.606999993       2567.68359       1.58148479    
  -1.04286098       1.56075203     -0.606999993       1930.98694       1.58308971    
  -1.44430494       2.16155505     -0.517000020       1930.98694       1.58308971    
 -0.994853973       2.40179110     -0.517000020       1930.98694       1.58308971    
 -0.718334973       1.73421395     -0.606999993       1930.98694       1.58308971    
 -0.718334973       1.73421395     -0.606999993       1907.36865       1.58140302    
 -0.522363007       1.26109600     -0.606999993       1907.36865       1.58140302    
 -0.758352995       1.13495600     -0.606999993       1907.36865       1.58140302    
  -1.04286098       1.56075203     -0.606999993       1907.36865       1.58140302    
 -0.718334973       1.73421395     -0.606999993       1191.54285       1.58276141    
 -0.994853973       2.40179110     -0.517000020       1191.54285       1.58276141    
 -0.507171988       2.54972792     -0.517000020       1191.54285       1.58276141    
 -0.366203994       1.84103203     -0.606999993       1191.54285       1.58276141    
 -0.366203994       1.84103203     -0.606999993       1176.28711       1.58107090    
 -0.266297996       1.33877206     -0.606999993       1176.28711       1.58107090    
 -0.522363007       1.26109600     -0.606999993       1176.28711       1.58107090    
 -0.718334973       1.73421395     -0.606999993       1176.28711       1.58107090    
 -0.366203994       1.84103203     -0.606999993       405.336700       1.58000684    
 -0.507171988       2.54972792     -0.517000020       405.336700       1.58000684    
   0.00000000       2.59967995     -0.517000020       405.336700       1.58000684    
   0.00000000       1.87709999     -0.606999993       405.336700       1.58000684    
   0.00000000       1.87709999     -0.606999993       400.685760       1.57870281    
   0.00000000       1.36500001     -0.606999993       400.685760       1.57870281    
 -0.266297996       1.33877206     -0.606999993       400.685760       1.57870281    
 -0.366203994       1.84103203     -0.606999993       400.685760       1.57870281    
   0.00000000       1.87709999     -0.606999993       398.254242      -1.55241144    
   0.00000000       2.59967995     -0.517000020       398.254242      -1.55241144    
  0.507171988       2.54972792     -0.517000020       398.254242      -1.55241144    
  0.366203994       1.84103203     -0.606999993       398.254242      -1.55241144    
  0.366203994       1.84103203     -0.606999993       390.261627      -1.55502737    
  0.266297996       1.33877206     -0.606999993       390.261627      -1.55502737    
   0.00000000       1.36500001     -0.606999993       390.261627      -1.55502737    
   0.00000000       1.87709999     -0.606999993       390.261627      -1.55502737    
  0.366203994       1.84103203     -0.606999993       1184.68250      -1.55545914    
  0.507171988       2.54972792     -0.517000020       1184.68250      -1.55545914    
  0.994853973       2.40179110     -0.517000020       1184.68250      -1.55545914    
  0.718334973       1.73421395     -0.606999993       1184.68250      -1.55545914    
  0.718334973       1.73421395     -0.606999993       1165.83960      -1.55760741    
  0.522363007       1.26109600     -0.606999993       1165.83960      -1.55760741    
  0.266297996       1.33877206     -0.606999993       1165.83960      -1.55760741    
  0.366203994       1.84103203     -0.606999993       1165.83960      -1.55760741    
  0.718334973       1.73421395     -0.606999993       1924.47156      -1.55613220    
  0.994853973       2.40179110     -0.517000020       1924.47156      -1.55613220    
   1.44430494       2.16155505     -0.517000020       1924.47156      -1.55613220    
   1.04286098       1.56075203     -0.606999993       1924.47156      -1.55613220    
   1.04286098       1.56075203     -0.606999993       1897.34668      -1.55812359    
  0.758352995       1.13495600     -0.606999993       1897.34668      -1.55812359    
  0.522363007       1.26109600     -0.606999993       1897.34668      -1.55812359    
  0.718334973       1.73421395     -0.606999993       1897.34668      -1.55812359    
   1.04286098       1.56075203     -0.606999993       2595.24780      -1.55647874    
   1.44430494       2.16155505     -0.517000020       2595.24780      -1.55647874    
   1.83825099       1.83825099     -0.517000020       2595.24780      -1.55647874    
   1.32730997       1.32730997     -0.606999993       2595.24780      -1.55647874    
   1.32730997       1.32730997     -0.606999993       2558.03882      -1.55835187    
  0.965201020      0.965201020     -0.606999993       2558.03882      -1.55835187    
  0.758352995       1.13495600     -0.606999993       2558.03882      -1.55835187    
   1.04286098       1.56075203     -0.606999993       2558.03882      -1.55835187    
   1.32730997       1.32730997     -0.606999993       3172.08228      -1.55666447    
   1.83825099       1.83825099     -0.517000020       3172.08228      -1.55666447    
   2.16155505       1.44430494     -0.517000020       3172.08228      -1.55666447    
   1.56075203       1.04286098     -0.606999993       3172.08228      -1.55666447    
   1.56075203       1.04286098     -0.606999993       3121.74829      -1.55848396    
   1.13495600      0.758352995     -0.606999993       3121.74829      -1.55848396    
  0.965201020      0.965201020     -0.606999993       3121.74829      -1.55848396    
   1.32730997       1.32730997     -0.606999993       3121.74829      -1.55848396    
   1.56075203       1.04286098     -0.606999993       3622.75293      -1.55678344    
   2.16155505       1.44430494     -0.517000020       3622.75293      -1.55678344    
   2.40179110      0.994853973     -0.517000020       3622.75293      -1.55678344    
   1.73421395      0.718334973     -0.606999993       3622.75293      -1.55678344    
   1.73421395      0.718334973     -0.606999993       3562.39551      -1.55855191    
   1.26109600      0.522363007     -0.606999993       3562.39551      -1.55855191    
   1.13495600      0.758352995     -0.606999993       3562.39551      -1.55855191    
   1.56075203       1.04286098     -0.606999993       3562.39551      -1.55855191    
   1.73421395      0.718334973     -0.606999993       3923.25562      -1.55689394    
   2.40179110      0.994853973     -0.517000020       3923.25562      -1.55689394    
   2.54972792      0.507171988     -0.517000020       3923.25562      -1.55689394    
   1.84103203      0.366203994     -0.606999993       3923.25562      -1.55689394    
   1.84103203      0.366203994     -0.606999993       3861.15234      -1.55860579    
   1.33877206      0.266297996     -0.606999993       3861.15234      -1.55860579    
   1.26109600      0.522363007     -0.606999993       3861.15234      -1.55860579    
   1.73421395      0.718334973     -0.606999993       3861.15234      -1.55860579    
   1.84103203      0.366203994     -0.606999993       4070.38623      -1.55699217    
   2.54972792      0.507171988     -0.517000020       4070.38623      -1.55699217    
   2.59967995       0.00000000     -0.517000020       4070.38623      -1.55699217    
   1.87709999       0.00000000     -0.606999993       4070.38623      -1.55699217    
   1.87709999       0.00000000     -0.606999993       4010.16431      -1.55867910    
   1.36500001       0.00000000     -0.606999993       4010.16431      -1.55867910    
   1.33877206      0.266297996     -0.606999993       4010.16431      -1.55867910    
   1.84103203      0.366203994     -0.606999993       4010.16431      -1.55867910    
   1.87709999       0.00000000     -0.606999993       4069.32837      -1.55713952    
   2.59967995       0.00000000     -0.517000020       4069.32837      -1.55713952    
   2.54972792     -0.507171988     -0.517000020       4069.32837      -1.55713952    
   1.84103203     -0.366203994     -0.606999993       4069.32837      -1.55713952    
   1.84103203     -0.366203994     -0.606999993       4008.00903      -1.55879080    
   1.33877206     -0.266297996     -0.606999993       4008.00903      -1.55879080    
   1.36500001       0.00000000     -0.606999993       4008.00903      -1.55879080    
   1.87709999       0.00000000     -0.606999993       4008.00903      -1.55879080    
   1.84103203     -0.366203994     -0.606999993       3918.41064      -1.55736279    
   2.54972792     -0.507171988     -0.517000020       3918.41064      -1.55736279    
   2.40179110     -0.994853973     -0.517000020       3918.41064      -1.55736279    
   1.73421395     -0.718334973     -0.606999993       3918.41064      -1.55736279    
   1.73421395     -0.718334973     -0.606999993       3854.08618      -1.55892670    
   1.26109600     -0.522363007     -0.606999993       3854.08618      -1.55892670    
   1.33877206     -0.266297996     -0.606999993       3854.08618      -1.55892670    
   1.84103203     -0.366203994     -0.606999993       3854.08618      -1.55892670    
   1.73421395     -0.718334973     -0.606999993       3611.97144      -1.55755401    
   2.40179110     -0.994853973     -0.517000020       3611.97144      -1.55755401    
   2.16155505      -1.44430494     -0.517000020       3611.97144      -1.55755401    
   1.56075203      -1.04286098     -0.606999993       3611.97144      -1.55755401    
   1.56075203      -1.04286098     -0.606999993       3550.09888      -1.55907238    
   1.13495600     -0.758352995     -0.606999993       3550.09888      -1.55907238    
   1.26109600     -0.522363007     -0.606999993       3550.09888      -1.55907238    