 VARIABLES="X" "Y" "Z" "abs(p) (Pa)" "angle(p) (rad)"
ZONE N=   2709,E =    2358, F=FEPOINT, ET=QUADRILATERAL
   0.00000000      -5.48999977     -0.157000005      0.965308070      -1.70266366    
   0.00000000      -4.76741982     -0.246999994      0.965308070      -1.70266366    
  0.930077016      -4.67581606     -0.246999994      0.965308070      -1.70266366    
   1.07104599      -5.38451099     -0.157000005      0.965308070      -1.70266366    
  -1.07104599      -5.38451099     -0.157000005      0.959376037       1.45777655    
 -0.930077016      -4.67581606     -0.246999994      0.959376037       1.45777655    
   0.00000000      -4.76741982     -0.246999994      0.959376037       1.45777655    
   0.00000000      -5.48999977     -0.157000005      0.959376037       1.45777655    
  -2.10093188      -5.07209921     -0.157000005       2.07004547       1.45944571    
  -1.82441294      -4.40452194     -0.246999994       2.07004547       1.45944571    
 -0.930077016      -4.67581606     -0.246999994       2.07004547       1.45944571    
  -1.07104599      -5.38451099     -0.157000005       2.07004547       1.45944571    
  -3.05008101      -4.56476784     -0.157000005       1.23576570       1.50679696    
  -2.64863706      -3.96396494     -0.246999994       1.23576570       1.50679696    
  -1.82441294      -4.40452194     -0.246999994       1.23576570       1.50679696    
  -2.10093188      -5.07209921     -0.157000005       1.23576570       1.50679696    
  -3.88201594      -3.88201594     -0.157000005      0.527113736      -1.86781490    
  -3.37107491      -3.37107491     -0.246999994      0.527113736      -1.86781490    
  -2.64863706      -3.96396494     -0.246999994      0.527113736      -1.86781490    
  -3.05008101      -4.56476784     -0.157000005      0.527113736      -1.86781490    
  -4.56476784      -3.05008101     -0.157000005       1.47877359      -1.68001962    
  -3.96396494      -2.64863706     -0.246999994       1.47877359      -1.68001962    
  -3.37107491      -3.37107491     -0.246999994       1.47877359      -1.68001962    
  -3.88201594      -3.88201594     -0.157000005       1.47877359      -1.68001962    
  -5.07209921      -2.10093188     -0.157000005       1.23430598      -1.54585910    
  -4.40452194      -1.82441294     -0.246999994       1.23430598      -1.54585910    
  -3.96396494      -2.64863706     -0.246999994       1.23430598      -1.54585910    
  -4.56476784      -3.05008101     -0.157000005       1.23430598      -1.54585910    
  -5.38451099      -1.07104599     -0.157000005      0.620500147      -1.31894183    
  -4.67581606     -0.930077016     -0.246999994      0.620500147      -1.31894183    
  -4.40452194      -1.82441294     -0.246999994      0.620500147      -1.31894183    
  -5.07209921      -2.10093188     -0.157000005      0.620500147      -1.31894183    
  -5.48999977       0.00000000     -0.157000005      0.612054586      -1.29704773    
  -4.76741982       0.00000000     -0.246999994      0.612054586      -1.29704773    
  -4.67581606     -0.930077016     -0.246999994      0.612054586      -1.29704773    
  -5.38451099      -1.07104599     -0.157000005      0.612054586      -1.29704773    
  -5.38451099       1.07104599     -0.157000005       1.32050538      -1.61828256    
  -4.67581606      0.930077016     -0.246999994       1.32050538      -1.61828256    
  -4.76741982       0.00000000     -0.246999994       1.32050538      -1.61828256    
  -5.48999977       0.00000000     -0.157000005       1.32050538      -1.61828256    
  -5.07209921       2.10093188     -0.157000005       1.27653170      -1.65764058    
  -4.40452194       1.82441294     -0.246999994       1.27653170      -1.65764058    
  -4.67581606      0.930077016     -0.246999994       1.27653170      -1.65764058    
  -5.38451099       1.07104599     -0.157000005       1.27653170      -1.65764058    
  -4.56476784       3.05008101     -0.157000005      0.292806536      -1.78810561    
  -3.96396494       2.64863706     -0.246999994      0.292806536      -1.78810561    
  -4.40452194       1.82441294     -0.246999994      0.292806536      -1.78810561    
  -5.07209921       2.10093188     -0.157000005      0.292806536      -1.78810561    
  -3.88201594       3.88201594     -0.157000005      0.831658244       1.45705271    
  -3.37107491       3.37107491     -0.246999994      0.831658244       1.45705271    
  -3.96396494       2.64863706     -0.246999994      0.831658244       1.45705271    
  -4.56476784       3.05008101     -0.157000005      0.831658244       1.45705271    
  -3.05008101       4.56476784     -0.157000005       1.29274404       1.47012985    
  -2.64863706       3.96396494     -0.246999994       1.29274404       1.47012985    
  -3.37107491       3.37107491     -0.246999994       1.29274404       1.47012985    
  -3.88201594       3.88201594     -0.157000005       1.29274404       1.47012985    
  -2.10093188       5.07209921     -0.157000005      0.382540137      -1.52360511    
  -1.82441294       4.40452194     -0.246999994      0.382540137      -1.52360511    
  -2.64863706       3.96396494     -0.246999994      0.382540137      -1.52360511    
  -3.05008101       4.56476784     -0.157000005      0.382540137      -1.52360511    
  -1.07104599       5.38451099     -0.157000005       1.75248432      -1.63752592    
 -0.930077016       4.67581606     -0.246999994       1.75248432      -1.63752592    
  -1.82441294       4.40452194     -0.246999994       1.75248432      -1.63752592    
  -2.10093188       5.07209921     -0.157000005       1.75248432      -1.63752592    
   0.00000000       5.48999977     -0.157000005      0.655581474      -1.68951690    
   0.00000000       4.76741982     -0.246999994      0.655581474      -1.68951690    
 -0.930077016       4.67581606     -0.246999994      0.655581474      -1.68951690    
  -1.07104599       5.38451099     -0.157000005      0.655581474      -1.68951690    
   1.07104599       5.38451099     -0.157000005      0.629265428       1.49518013    
  0.930077016       4.67581606     -0.246999994      0.629265428       1.49518013    
   0.00000000       4.76741982     -0.246999994      0.629265428       1.49518013    
   0.00000000       5.48999977     -0.157000005      0.629265428       1.49518013    
   2.10093188       5.07209921     -0.157000005       1.73588014       1.50206006    
   1.82441294       4.40452194     -0.246999994       1.73588014       1.50206006    
  0.930077016       4.67581606     -0.246999994       1.73588014       1.50206006    
   1.07104599       5.38451099     -0.157000005       1.73588014       1.50206006    
   3.05008101       4.56476784     -0.157000005      0.361662298       1.50845706    
   2.64863706       3.96396494     -0.246999994      0.361662298       1.50845706    
   1.82441294       4.40452194     -0.246999994      0.361662298       1.50845706    
   2.10093188       5.07209921     -0.157000005      0.361662298       1.50845706    
   3.88201594       3.88201594     -0.157000005       1.35615444      -1.65008450    
   3.37107491       3.37107491     -0.246999994       1.35615444      -1.65008450    
   2.64863706       3.96396494     -0.246999994       1.35615444      -1.65008450    
   3.05008101       4.56476784     -0.157000005       1.35615444      -1.65008450    
   4.56476784       3.05008101     -0.157000005      0.872318149      -1.68139553    
   3.96396494       2.64863706     -0.246999994      0.872318149      -1.68139553    
   3.37107491       3.37107491     -0.246999994      0.872318149      -1.68139553    
   3.88201594       3.88201594     -0.157000005      0.872318149      -1.68139553    
   5.07209921       2.10093188     -0.157000005      0.251847327       1.53583550    
   4.40452194       1.82441294     -0.246999994      0.251847327       1.53583550    
   3.96396494       2.64863706     -0.246999994      0.251847327       1.53583550    
   4.56476784       3.05008101     -0.157000005      0.251847327       1.53583550    
   5.38451099       1.07104599     -0.157000005       1.28090203       1.48416543    
   4.67581606      0.930077016     -0.246999994       1.28090203       1.48416543    
   4.40452194       1.82441294     -0.246999994       1.28090203       1.48416543    
   5.07209921       2.10093188     -0.157000005       1.28090203       1.48416543    
   5.48999977       0.00000000     -0.157000005       1.33589816       1.50318217    
   4.76741982       0.00000000     -0.246999994       1.33589816       1.50318217    
   4.67581606      0.930077016     -0.246999994       1.33589816       1.50318217    
   5.38451099       1.07104599     -0.157000005       1.33589816       1.50318217    
   5.38451099      -1.07104599     -0.157000005      0.603042722       1.76229525    
   4.67581606     -0.930077016     -0.246999994      0.603042722       1.76229525    
   4.76741982       0.00000000     -0.246999994      0.603042722       1.76229525    
   5.48999977       0.00000000     -0.157000005      0.603042722       1.76229525    
   5.07209921      -2.10093188     -0.157000005      0.637884140       1.84342766    
   4.40452194      -1.82441294     -0.246999994      0.637884140       1.84342766    
   4.67581606     -0.930077016     -0.246999994      0.637884140       1.84342766    
   5.38451099      -1.07104599     -0.157000005      0.637884140       1.84342766    
   4.56476784      -3.05008101     -0.157000005       1.24963295       1.61178708    
   3.96396494      -2.64863706     -0.246999994       1.24963295       1.61178708    
   4.40452194      -1.82441294     -0.246999994       1.24963295       1.61178708    
   5.07209921      -2.10093188     -0.157000005       1.24963295       1.61178708    
   3.88201594      -3.88201594     -0.157000005       1.49748540       1.47496843    
   3.37107491      -3.37107491     -0.246999994       1.49748540       1.47496843    
   3.96396494      -2.64863706     -0.246999994       1.49748540       1.47496843    
   4.56476784      -3.05008101     -0.157000005       1.49748540       1.47496843    
   3.05008101      -4.56476784     -0.157000005      0.549844682       1.23287427    
   2.64863706      -3.96396494     -0.246999994      0.549844682       1.23287427    
   3.37107491      -3.37107491     -0.246999994      0.549844682       1.23287427    
   3.88201594      -3.88201594     -0.157000005      0.549844682       1.23287427    
   2.10093188      -5.07209921     -0.157000005       1.18589652      -1.61300778    
   1.82441294      -4.40452194     -0.246999994       1.18589652      -1.61300778    
   2.64863706      -3.96396494     -0.246999994       1.18589652      -1.61300778    
   3.05008101      -4.56476784     -0.157000005       1.18589652      -1.61300778    
   1.07104599      -5.38451099     -0.157000005       2.03554249      -1.68094075    
  0.930077016      -4.67581606     -0.246999994       2.03554249      -1.68094075    
   1.82441294      -4.40452194     -0.246999994       2.03554249      -1.68094075    
   2.10093188      -5.07209921     -0.157000005       2.03554249      -1.68094075    
   0.00000000      -1.87709999     -0.606999993       1.62277377      0.871818662    
   0.00000000      -1.36500001     -0.606999993       1.62277377      0.871818662    
  0.266297996      -1.33877206     -0.606999993       1.62277377      0.871818662    
  0.366203994      -1.84103203     -0.606999993       1.62277377      0.871818662    
   0.00000000      -1.87709999     -0.606999993       13.2563953       1.61061347    
   0.00000000      -2.59967995     -0.517000020       13.2563953       1.61061347    
 -0.507171988      -2.54972792     -0.517000020       13.2563953       1.61061347    
 -0.366203994      -1.84103203     -0.606999993       13.2563953       1.61061347    
 -0.366203994      -1.84103203     -0.606999993       8.65957832       1.63728809    
 -0.266297996      -1.33877206     -0.606999993       8.65957832       1.63728809    
   0.00000000      -1.36500001     -0.606999993       8.65957832       1.63728809    
   0.00000000      -1.87709999     -0.606999993       8.65957832       1.63728809    
 -0.366203994      -1.84103203     -0.606999993       20.3353443       1.63430130    
 -0.507171988      -2.54972792     -0.517000020       20.3353443       1.63430130    
 -0.994853973      -2.40179110     -0.517000020       20.3353443       1.63430130    
 -0.718334973      -1.73421395     -0.606999993       20.3353443       1.63430130    
 -0.718334973      -1.73421395     -0.606999993       7.38289785       1.80020165    
 -0.522363007      -1.26109600     -0.606999993       7.38289785       1.80020165    
 -0.266297996      -1.33877206     -0.606999993       7.38289785       1.80020165    
 -0.366203994      -1.84103203     -0.606999993       7.38289785       1.80020165    
 -0.718334973      -1.73421395     -0.606999993       3.19525862       1.87503123    
 -0.994853973      -2.40179110     -0.517000020       3.19525862       1.87503123    
  -1.44430494      -2.16155505     -0.517000020       3.19525862       1.87503123    
  -1.04286098      -1.56075203     -0.606999993       3.19525862       1.87503123    
  -1.04286098      -1.56075203     -0.606999993       7.94564533      -1.77639353    
 -0.758352995      -1.13495600     -0.606999993       7.94564533      -1.77639353    
 -0.522363007      -1.26109600     -0.606999993       7.94564533      -1.77639353    
 -0.718334973      -1.73421395     -0.606999993       7.94564533      -1.77639353    
  -1.04286098      -1.56075203     -0.606999993       19.7056046      -1.57680643    
  -1.44430494      -2.16155505     -0.517000020       19.7056046      -1.57680643    
  -1.83825099      -1.83825099     -0.517000020       19.7056046      -1.57680643    
  -1.32730997      -1.32730997     -0.606999993       19.7056046      -1.57680643    
  -1.32730997      -1.32730997     -0.606999993       24.2172565      -1.60403752    
 -0.965201020     -0.965201020     -0.606999993       24.2172565      -1.60403752    
 -0.758352995      -1.13495600     -0.606999993       24.2172565      -1.60403752    
  -1.04286098      -1.56075203     -0.606999993       24.2172565      -1.60403752    
  -1.32730997      -1.32730997     -0.606999993       22.0730705      -1.55914962    
  -1.83825099      -1.83825099     -0.517000020       22.0730705      -1.55914962    
  -2.16155505      -1.44430494     -0.517000020       22.0730705      -1.55914962    
  -1.56075203      -1.04286098     -0.606999993       22.0730705      -1.55914962    
  -1.56075203      -1.04286098     -0.606999993       25.9173145      -1.57410121    
  -1.13495600     -0.758352995     -0.606999993       25.9173145      -1.57410121    
 -0.965201020     -0.965201020     -0.606999993       25.9173145      -1.57410121    
  -1.32730997      -1.32730997     -0.606999993       25.9173145      -1.57410121    
  -1.56075203      -1.04286098     -0.606999993      0.106710933      -1.97893500    
  -2.16155505      -1.44430494     -0.517000020      0.106710933      -1.97893500    
  -2.40179110     -0.994853973     -0.517000020      0.106710933      -1.97893500    
  -1.73421395     -0.718334973     -0.606999993      0.106710933      -1.97893500    
  -1.73421395     -0.718334973     -0.606999993       9.95867825      -1.55411494    
  -1.26109600     -0.522363007     -0.606999993       9.95867825      -1.55411494    
  -1.13495600     -0.758352995     -0.606999993       9.95867825      -1.55411494    
  -1.56075203      -1.04286098     -0.606999993       9.95867825      -1.55411494    
  -1.73421395     -0.718334973     -0.606999993       22.8825512       1.58378661    
  -2.40179110     -0.994853973     -0.517000020       22.8825512       1.58378661    
  -2.54972792     -0.507171988     -0.517000020       22.8825512       1.58378661    
  -1.84103203     -0.366203994     -0.606999993       22.8825512       1.58378661    
  -1.84103203     -0.366203994     -0.606999993       9.85389996       1.54048765    
  -1.33877206     -0.266297996     -0.606999993       9.85389996       1.54048765    
  -1.26109600     -0.522363007     -0.606999993       9.85389996       1.54048765    
  -1.73421395     -0.718334973     -0.606999993       9.85389996       1.54048765    
  -1.84103203     -0.366203994     -0.606999993       22.5815392       1.56410122    
  -2.54972792     -0.507171988     -0.517000020       22.5815392       1.56410122    
  -2.59967995       0.00000000     -0.517000020       22.5815392       1.56410122    
  -1.87709999       0.00000000     -0.606999993       22.5815392       1.56410122    
  -1.87709999       0.00000000     -0.606999993       18.3535309       1.53216112    
  -1.36500001       0.00000000     -0.606999993       18.3535309       1.53216112    
  -1.33877206     -0.266297996     -0.606999993       18.3535309       1.53216112    
  -1.84103203     -0.366203994     -0.606999993       18.3535309       1.53216112    
  -1.87709999       0.00000000     -0.606999993       2.93547988       1.23248601    
  -2.59967995       0.00000000     -0.517000020       2.93547988       1.23248601    
  -2.54972792      0.507171988     -0.517000020       2.93547988       1.23248601    
  -1.84103203      0.366203994     -0.606999993       2.93547988       1.23248601    
  -1.84103203      0.366203994     -0.606999993       14.6075459       1.48975205    
  -1.33877206      0.266297996     -0.606999993       14.6075459       1.48975205    
  -1.36500001       0.00000000     -0.606999993       14.6075459       1.48975205    
  -1.87709999       0.00000000     -0.606999993       14.6075459       1.48975205    
  -1.84103203      0.366203994     -0.606999993       9.70817757      -1.44820392    
  -2.54972792      0.507171988     -0.517000020       9.70817757      -1.44820392    
  -2.40179110      0.994853973     -0.517000020       9.70817757      -1.44820392    
  -1.73421395      0.718334973     -0.606999993       9.70817757      -1.44820392    
  -1.73421395      0.718334973     -0.606999993       9.92458916       1.45932710    
  -1.26109600      0.522363007     -0.606999993       9.92458916       1.45932710    
  -1.33877206      0.266297996     -0.606999993       9.92458916       1.45932710    
  -1.84103203      0.366203994     -0.606999993       9.92458916       1.45932710    
  -1.73421395      0.718334973     -0.606999993      0.370699406     -0.134700790    
  -2.40179110      0.994853973     -0.517000020      0.370699406     -0.134700790    
  -2.16155505       1.44430494     -0.517000020      0.370699406     -0.134700790    
  -1.56075203       1.04286098     -0.606999993      0.370699406     -0.134700790    
  -1.56075203       1.04286098     -0.606999993       10.9746675       1.54605579    
  -1.13495600      0.758352995     -0.606999993       10.9746675       1.54605579    
  -1.26109600      0.522363007     -0.606999993       10.9746675       1.54605579    
  -1.73421395      0.718334973     -0.606999993       10.9746675       1.54605579    
  -1.56075203       1.04286098     -0.606999993       14.8514786       1.62153733    
  -2.16155505       1.44430494     -0.517000020       14.8514786       1.62153733    
  -1.83825099       1.83825099     -0.517000020       14.8514786       1.62153733    
  -1.32730997       1.32730997     -0.606999993       14.8514786       1.62153733    
  -1.32730997       1.32730997     -0.606999993       11.4682846       1.63483799    
 -0.965201020      0.965201020     -0.606999993       11.4682846       1.63483799    
  -1.13495600      0.758352995     -0.606999993       11.4682846       1.63483799    
  -1.56075203       1.04286098     -0.606999993       11.4682846       1.63483799    
  -1.32730997       1.32730997     -0.606999993       10.5946741       1.67567718    
  -1.83825099       1.83825099     -0.517000020       10.5946741       1.67567718    
  -1.44430494       2.16155505     -0.517000020       10.5946741       1.67567718    
  -1.04286098       1.56075203     -0.606999993       10.5946741       1.67567718    
  -1.04286098       1.56075203     -0.606999993       2.05377555       2.15684414    
 -0.758352995       1.13495600     -0.606999993       2.05377555       2.15684414    
 -0.965201020      0.965201020     -0.606999993       2.05377555       2.15684414    
  -1.32730997       1.32730997     -0.606999993       2.05377555       2.15684414    
  -1.04286098       1.56075203     -0.606999993       12.6329956      -1.61351109    
  -1.44430494       2.16155505     -0.517000020       12.6329956      -1.61351109    
 -0.994853973       2.40179110     -0.517000020       12.6329956      -1.61351109    
 -0.718334973       1.73421395     -0.606999993       12.6329956      -1.61351109    
 -0.718334973       1.73421395     -0.606999993       14.9234743      -1.62488723    
 -0.522363007       1.26109600     -0.606999993       14.9234743      -1.62488723    
 -0.758352995       1.13495600     -0.606999993       14.9234743      -1.62488723    
  -1.04286098       1.56075203     -0.606999993       14.9234743      -1.62488723    
 -0.718334973       1.73421395     -0.606999993       28.1295261      -1.56712651    
 -0.994853973       2.40179110     -0.517000020       28.1295261      -1.56712651    
 -0.507171988       2.54972792     -0.517000020       28.1295261      -1.56712651    
 -0.366203994       1.84103203     -0.606999993       28.1295261      -1.56712651    
 -0.366203994       1.84103203     -0.606999993       23.4767284      -1.58488834    
 -0.266297996       1.33877206     -0.606999993       23.4767284      -1.58488834    
 -0.522363007       1.26109600     -0.606999993       23.4767284      -1.58488834    
 -0.718334973       1.73421395     -0.606999993       23.4767284      -1.58488834    
 -0.366203994       1.84103203     -0.606999993       15.9834166      -1.56622076    
 -0.507171988       2.54972792     -0.517000020       15.9834166      -1.56622076    
   0.00000000       2.59967995     -0.517000020       15.9834166      -1.56622076    
   0.00000000       1.87709999     -0.606999993       15.9834166      -1.56622076    
   0.00000000       1.87709999     -0.606999993       13.8720999      -1.58700943    
   0.00000000       1.36500001     -0.606999993       13.8720999      -1.58700943    
 -0.266297996       1.33877206     -0.606999993       13.8720999      -1.58700943    
 -0.366203994       1.84103203     -0.606999993       13.8720999      -1.58700943    
   0.00000000       1.87709999     -0.606999993       11.7347050       1.60041761    
   0.00000000       2.59967995     -0.517000020       11.7347050       1.60041761    
  0.507171988       2.54972792     -0.517000020       11.7347050       1.60041761    
  0.366203994       1.84103203     -0.606999993       11.7347050       1.60041761    
  0.366203994       1.84103203     -0.606999993       6.09256029       1.62151074    
  0.266297996       1.33877206     -0.606999993       6.09256029       1.62151074    
   0.00000000       1.36500001     -0.606999993       6.09256029       1.62151074    
   0.00000000       1.87709999     -0.606999993       6.09256029       1.62151074    
  0.366203994       1.84103203     -0.606999993       25.4739265       1.58186555    
  0.507171988       2.54972792     -0.517000020       25.4739265       1.58186555    
  0.994853973       2.40179110     -0.517000020       25.4739265       1.58186555    
  0.718334973       1.73421395     -0.606999993       25.4739265       1.58186555    
  0.718334973       1.73421395     -0.606999993       18.6025009       1.57166779    
  0.522363007       1.26109600     -0.606999993       18.6025009       1.57166779    
  0.266297996       1.33877206     -0.606999993       18.6025009       1.57166779    
  0.366203994       1.84103203     -0.606999993       18.6025009       1.57166779    
  0.718334973       1.73421395     -0.606999993       12.6057682       1.52964413    
  0.994853973       2.40179110     -0.517000020       12.6057682       1.52964413    
   1.44430494       2.16155505     -0.517000020       12.6057682       1.52964413    
   1.04286098       1.56075203     -0.606999993       12.6057682       1.52964413    
   1.04286098       1.56075203     -0.606999993       14.9636307       1.51984847    
  0.758352995       1.13495600     -0.606999993       14.9636307       1.51984847    
  0.522363007       1.26109600     -0.606999993       14.9636307       1.51984847    
  0.718334973       1.73421395     -0.606999993       14.9636307       1.51984847    
   1.04286098       1.56075203     -0.606999993       7.88010931      -1.41121125    
   1.44430494       2.16155505     -0.517000020       7.88010931      -1.41121125    
   1.83825099       1.83825099     -0.517000020       7.88010931      -1.41121125    
   1.32730997       1.32730997     -0.606999993       7.88010931      -1.41121125    
   1.32730997       1.32730997     -0.606999993       3.87881255       1.20157397    
  0.965201020      0.965201020     -0.606999993       3.87881255       1.20157397    
  0.758352995       1.13495600     -0.606999993       3.87881255       1.20157397    
   1.04286098       1.56075203     -0.606999993       3.87881255       1.20157397    
   1.32730997       1.32730997     -0.606999993       10.1210985      -1.47078741    
   1.83825099       1.83825099     -0.517000020       10.1210985      -1.47078741    
   2.16155505       1.44430494     -0.517000020       10.1210985      -1.47078741    
   1.56075203       1.04286098     -0.606999993       10.1210985      -1.47078741    
   1.56075203       1.04286098     -0.606999993       2.56472850      -1.07983255    
   1.13495600      0.758352995     -0.606999993       2.56472850      -1.07983255    
  0.965201020      0.965201020     -0.606999993       2.56472850      -1.07983255    
   1.32730997       1.32730997     -0.606999993       2.56472850      -1.07983255    
   1.56075203       1.04286098     -0.606999993       5.39281368       1.58631074    
   2.16155505       1.44430494     -0.517000020       5.39281368       1.58631074    
   2.40179110      0.994853973     -0.517000020       5.39281368       1.58631074    
   1.73421395      0.718334973     -0.606999993       5.39281368       1.58631074    
   1.73421395      0.718334973     -0.606999993      0.852917373      -1.26963747    
   1.26109600      0.522363007     -0.606999993      0.852917373      -1.26963747    
   1.13495600      0.758352995     -0.606999993      0.852917373      -1.26963747    
   1.56075203       1.04286098     -0.606999993      0.852917373      -1.26963747    
   1.73421395      0.718334973     -0.606999993       13.8758974       1.64090598    
   2.40179110      0.994853973     -0.517000020       13.8758974       1.64090598    
   2.54972792      0.507171988     -0.517000020       13.8758974       1.64090598    
   1.84103203      0.366203994     -0.606999993       13.8758974       1.64090598    
   1.84103203      0.366203994     -0.606999993       2.14437938      -1.90574169    
   1.33877206      0.266297996     -0.606999993       2.14437938      -1.90574169    
   1.26109600      0.522363007     -0.606999993       2.14437938      -1.90574169    
   1.73421395      0.718334973     -0.606999993       2.14437938      -1.90574169    
   1.84103203      0.366203994     -0.606999993       1.38155866      -2.27864146    
   2.54972792      0.507171988     -0.517000020       1.38155866      -2.27864146    
   2.59967995       0.00000000     -0.517000020       1.38155866      -2.27864146    
   1.87709999       0.00000000     -0.606999993       1.38155866      -2.27864146    
   1.87709999       0.00000000     -0.606999993       11.6240263      -1.66067827    
   1.36500001       0.00000000     -0.606999993       11.6240263      -1.66067827    
   1.33877206      0.266297996     -0.606999993       11.6240263      -1.66067827    
   1.84103203      0.366203994     -0.606999993       11.6240263      -1.66067827    
   1.87709999       0.00000000     -0.606999993       23.8885250      -1.58078909    
   2.59967995       0.00000000     -0.517000020       23.8885250      -1.58078909    
   2.54972792     -0.507171988     -0.517000020       23.8885250      -1.58078909    
   1.84103203     -0.366203994     -0.606999993       23.8885250      -1.58078909    
   1.84103203     -0.366203994     -0.606999993       21.1405315      -1.61246431    
   1.33877206     -0.266297996     -0.606999993       21.1405315      -1.61246431    
   1.36500001       0.00000000     -0.606999993       21.1405315      -1.61246431    
   1.87709999       0.00000000     -0.606999993       21.1405315      -1.61246431    
   1.84103203     -0.366203994     -0.606999993       26.6888046      -1.56793666    
   2.54972792     -0.507171988     -0.517000020       26.6888046      -1.56793666    
   2.40179110     -0.994853973     -0.517000020       26.6888046      -1.56793666    
   1.73421395     -0.718334973     -0.606999993       26.6888046      -1.56793666    
   1.73421395     -0.718334973     -0.606999993       17.4470062      -1.61241317    
   1.26109600     -0.522363007     -0.606999993       17.4470062      -1.61241317    
   1.33877206     -0.266297996     -0.606999993       17.4470062      -1.61241317    
   1.84103203     -0.366203994     -0.606999993       17.4470062      -1.61241317    
   1.73421395     -0.718334973     -0.606999993       4.86197042      -1.61941516    
   2.40179110     -0.994853973     -0.517000020       4.86197042      -1.61941516    
   2.16155505      -1.44430494     -0.517000020       4.86197042      -1.61941516    
   1.56075203      -1.04286098     -0.606999993       4.86197042      -1.61941516    
   1.56075203      -1.04286098     -0.606999993      0.702691615       3.07218528    
   1.13495600     -0.758352995     -0.606999993      0.702691615       3.07218528    
   1.26109600     -0.522363007     -0.606999993      0.702691615       3.07218528    