 VARIABLES="X" "Y" "Z" "abs(p) (Pa)" "angle(p) (rad)"
ZONE N=   2709,E =    2358, F=FEPOINT, ET=QUADRILATERAL
   0.00000000      -5.48999977     -0.157000005       37.5122643      -8.42937827E-02
   0.00000000      -4.76741982     -0.246999994       37.5122643      -8.42937827E-02
  0.930077016      -4.67581606     -0.246999994       37.5122643      -8.42937827E-02
   1.07104599      -5.38451099     -0.157000005       37.5122643      -8.42937827E-02
  -1.07104599      -5.38451099     -0.157000005       37.2026443       3.01828885    
 -0.930077016      -4.67581606     -0.246999994       37.2026443       3.01828885    
   0.00000000      -4.76741982     -0.246999994       37.2026443       3.01828885    
   0.00000000      -5.48999977     -0.157000005       37.2026443       3.01828885    
  -2.10093188      -5.07209921     -0.157000005       109.440910       3.03453493    
  -1.82441294      -4.40452194     -0.246999994       109.440910       3.03453493    
 -0.930077016      -4.67581606     -0.246999994       109.440910       3.03453493    
  -1.07104599      -5.38451099     -0.157000005       109.440910       3.03453493    
  -3.05008101      -4.56476784     -0.157000005       178.873245       3.05416775    
  -2.64863706      -3.96396494     -0.246999994       178.873245       3.05416775    
  -1.82441294      -4.40452194     -0.246999994       178.873245       3.05416775    
  -2.10093188      -5.07209921     -0.157000005       178.873245       3.05416775    
  -3.88201594      -3.88201594     -0.157000005       240.359726       3.06019855    
  -3.37107491      -3.37107491     -0.246999994       240.359726       3.06019855    
  -2.64863706      -3.96396494     -0.246999994       240.359726       3.06019855    
  -3.05008101      -4.56476784     -0.157000005       240.359726       3.06019855    
  -4.56476784      -3.05008101     -0.157000005       290.375793       3.05599403    
  -3.96396494      -2.64863706     -0.246999994       290.375793       3.05599403    
  -3.37107491      -3.37107491     -0.246999994       290.375793       3.05599403    
  -3.88201594      -3.88201594     -0.157000005       290.375793       3.05599403    
  -5.07209921      -2.10093188     -0.157000005       334.781738       3.05879474    
  -4.40452194      -1.82441294     -0.246999994       334.781738       3.05879474    
  -3.96396494      -2.64863706     -0.246999994       334.781738       3.05879474    
  -4.56476784      -3.05008101     -0.157000005       334.781738       3.05879474    
  -5.38451099      -1.07104599     -0.157000005       364.323517       3.05675697    
  -4.67581606     -0.930077016     -0.246999994       364.323517       3.05675697    
  -4.40452194      -1.82441294     -0.246999994       364.323517       3.05675697    
  -5.07209921      -2.10093188     -0.157000005       364.323517       3.05675697    
  -5.48999977       0.00000000     -0.157000005       376.218384       3.05195475    
  -4.76741982       0.00000000     -0.246999994       376.218384       3.05195475    
  -4.67581606     -0.930077016     -0.246999994       376.218384       3.05195475    
  -5.38451099      -1.07104599     -0.157000005       376.218384       3.05195475    
  -5.38451099       1.07104599     -0.157000005       376.317047       3.05057788    
  -4.67581606      0.930077016     -0.246999994       376.317047       3.05057788    
  -4.76741982       0.00000000     -0.246999994       376.317047       3.05057788    
  -5.48999977       0.00000000     -0.157000005       376.317047       3.05057788    
  -5.07209921       2.10093188     -0.157000005       362.344238       3.04926038    
  -4.40452194       1.82441294     -0.246999994       362.344238       3.04926038    
  -4.67581606      0.930077016     -0.246999994       362.344238       3.04926038    
  -5.38451099       1.07104599     -0.157000005       362.344238       3.04926038    
  -4.56476784       3.05008101     -0.157000005       334.397400       3.05179858    
  -3.96396494       2.64863706     -0.246999994       334.397400       3.05179858    
  -4.40452194       1.82441294     -0.246999994       334.397400       3.05179858    
  -5.07209921       2.10093188     -0.157000005       334.397400       3.05179858    
  -3.88201594       3.88201594     -0.157000005       295.510925       3.05949688    
  -3.37107491       3.37107491     -0.246999994       295.510925       3.05949688    
  -3.96396494       2.64863706     -0.246999994       295.510925       3.05949688    
  -4.56476784       3.05008101     -0.157000005       295.510925       3.05949688    
  -3.05008101       4.56476784     -0.157000005       241.004913       3.05764556    
  -2.64863706       3.96396494     -0.246999994       241.004913       3.05764556    
  -3.37107491       3.37107491     -0.246999994       241.004913       3.05764556    
  -3.88201594       3.88201594     -0.157000005       241.004913       3.05764556    
  -2.10093188       5.07209921     -0.157000005       180.375137       3.05910516    
  -1.82441294       4.40452194     -0.246999994       180.375137       3.05910516    
  -2.64863706       3.96396494     -0.246999994       180.375137       3.05910516    
  -3.05008101       4.56476784     -0.157000005       180.375137       3.05910516    
  -1.07104599       5.38451099     -0.157000005       110.585152       3.04772210    
 -0.930077016       4.67581606     -0.246999994       110.585152       3.04772210    
  -1.82441294       4.40452194     -0.246999994       110.585152       3.04772210    
  -2.10093188       5.07209921     -0.157000005       110.585152       3.04772210    
   0.00000000       5.48999977     -0.157000005       37.6443787       3.05475783    
   0.00000000       4.76741982     -0.246999994       37.6443787       3.05475783    
 -0.930077016       4.67581606     -0.246999994       37.6443787       3.05475783    
  -1.07104599       5.38451099     -0.157000005       37.6443787       3.05475783    
   1.07104599       5.38451099     -0.157000005       37.1760101     -0.126661941    
  0.930077016       4.67581606     -0.246999994       37.1760101     -0.126661941    
   0.00000000       4.76741982     -0.246999994       37.1760101     -0.126661941    
   0.00000000       5.48999977     -0.157000005       37.1760101     -0.126661941    
   2.10093188       5.07209921     -0.157000005       111.103668     -0.101880252    
   1.82441294       4.40452194     -0.246999994       111.103668     -0.101880252    
  0.930077016       4.67581606     -0.246999994       111.103668     -0.101880252    
   1.07104599       5.38451099     -0.157000005       111.103668     -0.101880252    
   3.05008101       4.56476784     -0.157000005       179.912048      -9.02238414E-02
   2.64863706       3.96396494     -0.246999994       179.912048      -9.02238414E-02
   1.82441294       4.40452194     -0.246999994       179.912048      -9.02238414E-02
   2.10093188       5.07209921     -0.157000005       179.912048      -9.02238414E-02
   3.88201594       3.88201594     -0.157000005       239.640213      -9.15677920E-02
   3.37107491       3.37107491     -0.246999994       239.640213      -9.15677920E-02
   2.64863706       3.96396494     -0.246999994       239.640213      -9.15677920E-02
   3.05008101       4.56476784     -0.157000005       239.640213      -9.15677920E-02
   4.56476784       3.05008101     -0.157000005       292.454254      -9.09323320E-02
   3.96396494       2.64863706     -0.246999994       292.454254      -9.09323320E-02
   3.37107491       3.37107491     -0.246999994       292.454254      -9.09323320E-02
   3.88201594       3.88201594     -0.157000005       292.454254      -9.09323320E-02
   5.07209921       2.10093188     -0.157000005       333.212891      -9.39666033E-02
   4.40452194       1.82441294     -0.246999994       333.212891      -9.39666033E-02
   3.96396494       2.64863706     -0.246999994       333.212891      -9.39666033E-02
   4.56476784       3.05008101     -0.157000005       333.212891      -9.39666033E-02
   5.38451099       1.07104599     -0.157000005       365.323792      -8.91936347E-02
   4.67581606      0.930077016     -0.246999994       365.323792      -8.91936347E-02
   4.40452194       1.82441294     -0.246999994       365.323792      -8.91936347E-02
   5.07209921       2.10093188     -0.157000005       365.323792      -8.91936347E-02
   5.48999977       0.00000000     -0.157000005       380.457520      -8.55628699E-02
   4.76741982       0.00000000     -0.246999994       380.457520      -8.55628699E-02
   4.67581606      0.930077016     -0.246999994       380.457520      -8.55628699E-02
   5.38451099       1.07104599     -0.157000005       380.457520      -8.55628699E-02
   5.38451099      -1.07104599     -0.157000005       380.375153      -8.33196342E-02
   4.67581606     -0.930077016     -0.246999994       380.375153      -8.33196342E-02
   4.76741982       0.00000000     -0.246999994       380.375153      -8.33196342E-02
   5.48999977       0.00000000     -0.157000005       380.375153      -8.33196342E-02
   5.07209921      -2.10093188     -0.157000005       365.580627      -8.19313526E-02
   4.40452194      -1.82441294     -0.246999994       365.580627      -8.19313526E-02
   4.67581606     -0.930077016     -0.246999994       365.580627      -8.19313526E-02
   5.38451099      -1.07104599     -0.157000005       365.580627      -8.19313526E-02
   4.56476784      -3.05008101     -0.157000005       336.562622      -7.80031160E-02
   3.96396494      -2.64863706     -0.246999994       336.562622      -7.80031160E-02
   4.40452194      -1.82441294     -0.246999994       336.562622      -7.80031160E-02
   5.07209921      -2.10093188     -0.157000005       336.562622      -7.80031160E-02
   3.88201594      -3.88201594     -0.157000005       294.503174      -7.48475119E-02
   3.37107491      -3.37107491     -0.246999994       294.503174      -7.48475119E-02
   3.96396494      -2.64863706     -0.246999994       294.503174      -7.48475119E-02
   4.56476784      -3.05008101     -0.157000005       294.503174      -7.48475119E-02
   3.05008101      -4.56476784     -0.157000005       239.653961      -7.86053464E-02
   2.64863706      -3.96396494     -0.246999994       239.653961      -7.86053464E-02
   3.37107491      -3.37107491     -0.246999994       239.653961      -7.86053464E-02
   3.88201594      -3.88201594     -0.157000005       239.653961      -7.86053464E-02
   2.10093188      -5.07209921     -0.157000005       179.363983      -7.92306885E-02
   1.82441294      -4.40452194     -0.246999994       179.363983      -7.92306885E-02
   2.64863706      -3.96396494     -0.246999994       179.363983      -7.92306885E-02
   3.05008101      -4.56476784     -0.157000005       179.363983      -7.92306885E-02
   1.07104599      -5.38451099     -0.157000005       110.784637      -8.83489847E-02
  0.930077016      -4.67581606     -0.246999994       110.784637      -8.83489847E-02
   1.82441294      -4.40452194     -0.246999994       110.784637      -8.83489847E-02
   2.10093188      -5.07209921     -0.157000005       110.784637      -8.83489847E-02
   0.00000000      -1.87709999     -0.606999993       136.840363      -1.50921297    
   0.00000000      -1.36500001     -0.606999993       136.840363      -1.50921297    
  0.266297996      -1.33877206     -0.606999993       136.840363      -1.50921297    
  0.366203994      -1.84103203     -0.606999993       136.840363      -1.50921297    
   0.00000000      -1.87709999     -0.606999993       79.9109726       1.70242691    
   0.00000000      -2.59967995     -0.517000020       79.9109726       1.70242691    
 -0.507171988      -2.54972792     -0.517000020       79.9109726       1.70242691    
 -0.366203994      -1.84103203     -0.606999993       79.9109726       1.70242691    
 -0.366203994      -1.84103203     -0.606999993       126.156967       1.63143182    
 -0.266297996      -1.33877206     -0.606999993       126.156967       1.63143182    
   0.00000000      -1.36500001     -0.606999993       126.156967       1.63143182    
   0.00000000      -1.87709999     -0.606999993       126.156967       1.63143182    
 -0.366203994      -1.84103203     -0.606999993       237.355270       1.70255435    
 -0.507171988      -2.54972792     -0.517000020       237.355270       1.70255435    
 -0.994853973      -2.40179110     -0.517000020       237.355270       1.70255435    
 -0.718334973      -1.73421395     -0.606999993       237.355270       1.70255435    
 -0.718334973      -1.73421395     -0.606999993       381.496124       1.63184988    
 -0.522363007      -1.26109600     -0.606999993       381.496124       1.63184988    
 -0.266297996      -1.33877206     -0.606999993       381.496124       1.63184988    
 -0.366203994      -1.84103203     -0.606999993       381.496124       1.63184988    
 -0.718334973      -1.73421395     -0.606999993       373.810699       1.70523620    
 -0.994853973      -2.40179110     -0.517000020       373.810699       1.70523620    
  -1.44430494      -2.16155505     -0.517000020       373.810699       1.70523620    
  -1.04286098      -1.56075203     -0.606999993       373.810699       1.70523620    
  -1.04286098      -1.56075203     -0.606999993       616.107971       1.63206458    
 -0.758352995      -1.13495600     -0.606999993       616.107971       1.63206458    
 -0.522363007      -1.26109600     -0.606999993       616.107971       1.63206458    
 -0.718334973      -1.73421395     -0.606999993       616.107971       1.63206458    
  -1.04286098      -1.56075203     -0.606999993       491.203339       1.70744324    
  -1.44430494      -2.16155505     -0.517000020       491.203339       1.70744324    
  -1.83825099      -1.83825099     -0.517000020       491.203339       1.70744324    
  -1.32730997      -1.32730997     -0.606999993       491.203339       1.70744324    
  -1.32730997      -1.32730997     -0.606999993       823.728577       1.63225663    
 -0.965201020     -0.965201020     -0.606999993       823.728577       1.63225663    
 -0.758352995      -1.13495600     -0.606999993       823.728577       1.63225663    
  -1.04286098      -1.56075203     -0.606999993       823.728577       1.63225663    
  -1.32730997      -1.32730997     -0.606999993       594.298401       1.70828426    
  -1.83825099      -1.83825099     -0.517000020       594.298401       1.70828426    
  -2.16155505      -1.44430494     -0.517000020       594.298401       1.70828426    
  -1.56075203      -1.04286098     -0.606999993       594.298401       1.70828426    
  -1.56075203      -1.04286098     -0.606999993       1001.29712       1.63238311    
  -1.13495600     -0.758352995     -0.606999993       1001.29712       1.63238311    
 -0.965201020     -0.965201020     -0.606999993       1001.29712       1.63238311    
  -1.32730997      -1.32730997     -0.606999993       1001.29712       1.63238311    
  -1.56075203      -1.04286098     -0.606999993       682.926636       1.70778370    
  -2.16155505      -1.44430494     -0.517000020       682.926636       1.70778370    
  -2.40179110     -0.994853973     -0.517000020       682.926636       1.70778370    
  -1.73421395     -0.718334973     -0.606999993       682.926636       1.70778370    
  -1.73421395     -0.718334973     -0.606999993       1145.18970       1.63239849    
  -1.26109600     -0.522363007     -0.606999993       1145.18970       1.63239849    
  -1.13495600     -0.758352995     -0.606999993       1145.18970       1.63239849    
  -1.56075203      -1.04286098     -0.606999993       1145.18970       1.63239849    
  -1.73421395     -0.718334973     -0.606999993       749.135681       1.70682943    
  -2.40179110     -0.994853973     -0.517000020       749.135681       1.70682943    
  -2.54972792     -0.507171988     -0.517000020       749.135681       1.70682943    
  -1.84103203     -0.366203994     -0.606999993       749.135681       1.70682943    
  -1.84103203     -0.366203994     -0.606999993       1248.15625       1.63235366    
  -1.33877206     -0.266297996     -0.606999993       1248.15625       1.63235366    
  -1.26109600     -0.522363007     -0.606999993       1248.15625       1.63235366    
  -1.73421395     -0.718334973     -0.606999993       1248.15625       1.63235366    
  -1.84103203     -0.366203994     -0.606999993       785.030457       1.70611966    
  -2.54972792     -0.507171988     -0.517000020       785.030457       1.70611966    
  -2.59967995       0.00000000     -0.517000020       785.030457       1.70611966    
  -1.87709999       0.00000000     -0.606999993       785.030457       1.70611966    
  -1.87709999       0.00000000     -0.606999993       1302.80054       1.63231111    
  -1.36500001       0.00000000     -0.606999993       1302.80054       1.63231111    
  -1.33877206     -0.266297996     -0.606999993       1302.80054       1.63231111    
  -1.84103203     -0.366203994     -0.606999993       1302.80054       1.63231111    
  -1.87709999       0.00000000     -0.606999993       786.385620       1.70601869    
  -2.59967995       0.00000000     -0.517000020       786.385620       1.70601869    
  -2.54972792      0.507171988     -0.517000020       786.385620       1.70601869    
  -1.84103203      0.366203994     -0.606999993       786.385620       1.70601869    
  -1.84103203      0.366203994     -0.606999993       1304.38452       1.63232064    
  -1.33877206      0.266297996     -0.606999993       1304.38452       1.63232064    
  -1.36500001       0.00000000     -0.606999993       1304.38452       1.63232064    
  -1.87709999       0.00000000     -0.606999993       1304.38452       1.63232064    
  -1.84103203      0.366203994     -0.606999993       752.786255       1.70657527    
  -2.54972792      0.507171988     -0.517000020       752.786255       1.70657527    
  -2.40179110      0.994853973     -0.517000020       752.786255       1.70657527    
  -1.73421395      0.718334973     -0.606999993       752.786255       1.70657527    
  -1.73421395      0.718334973     -0.606999993       1252.54443       1.63238549    
  -1.26109600      0.522363007     -0.606999993       1252.54443       1.63238549    
  -1.33877206      0.266297996     -0.606999993       1252.54443       1.63238549    
  -1.84103203      0.366203994     -0.606999993       1252.54443       1.63238549    
  -1.73421395      0.718334973     -0.606999993       687.556641       1.70751941    
  -2.40179110      0.994853973     -0.517000020       687.556641       1.70751941    
  -2.16155505       1.44430494     -0.517000020       687.556641       1.70751941    
  -1.56075203       1.04286098     -0.606999993       687.556641       1.70751941    
  -1.56075203       1.04286098     -0.606999993       1151.47058       1.63246107    
  -1.13495600      0.758352995     -0.606999993       1151.47058       1.63246107    
  -1.26109600      0.522363007     -0.606999993       1151.47058       1.63246107    
  -1.73421395      0.718334973     -0.606999993       1151.47058       1.63246107    
  -1.56075203       1.04286098     -0.606999993       598.330811       1.70816350    
  -2.16155505       1.44430494     -0.517000020       598.330811       1.70816350    
  -1.83825099       1.83825099     -0.517000020       598.330811       1.70816350    
  -1.32730997       1.32730997     -0.606999993       598.330811       1.70816350    
  -1.32730997       1.32730997     -0.606999993       1008.38824       1.63248527    
 -0.965201020      0.965201020     -0.606999993       1008.38824       1.63248527    
  -1.13495600      0.758352995     -0.606999993       1008.38824       1.63248527    
  -1.56075203       1.04286098     -0.606999993       1008.38824       1.63248527    
  -1.32730997       1.32730997     -0.606999993       494.104004       1.70746875    
  -1.83825099       1.83825099     -0.517000020       494.104004       1.70746875    
  -1.44430494       2.16155505     -0.517000020       494.104004       1.70746875    
  -1.04286098       1.56075203     -0.606999993       494.104004       1.70746875    
  -1.04286098       1.56075203     -0.606999993       830.958252       1.63240492    
 -0.758352995       1.13495600     -0.606999993       830.958252       1.63240492    
 -0.965201020      0.965201020     -0.606999993       830.958252       1.63240492    
  -1.32730997       1.32730997     -0.606999993       830.958252       1.63240492    
  -1.04286098       1.56075203     -0.606999993       376.456970       1.70515633    
  -1.44430494       2.16155505     -0.517000020       376.456970       1.70515633    
 -0.994853973       2.40179110     -0.517000020       376.456970       1.70515633    
 -0.718334973       1.73421395     -0.606999993       376.456970       1.70515633    
 -0.718334973       1.73421395     -0.606999993       623.739746       1.63223970    
 -0.522363007       1.26109600     -0.606999993       623.739746       1.63223970    
 -0.758352995       1.13495600     -0.606999993       623.739746       1.63223970    
  -1.04286098       1.56075203     -0.606999993       623.739746       1.63223970    
 -0.718334973       1.73421395     -0.606999993       241.072189       1.70172942    
 -0.994853973       2.40179110     -0.517000020       241.072189       1.70172942    
 -0.507171988       2.54972792     -0.517000020       241.072189       1.70172942    
 -0.366203994       1.84103203     -0.606999993       241.072189       1.70172942    
 -0.366203994       1.84103203     -0.606999993       390.326721       1.63198173    
 -0.266297996       1.33877206     -0.606999993       390.326721       1.63198173    
 -0.522363007       1.26109600     -0.606999993       390.326721       1.63198173    
 -0.718334973       1.73421395     -0.606999993       390.326721       1.63198173    
 -0.366203994       1.84103203     -0.606999993       85.5813599       1.69724941    
 -0.507171988       2.54972792     -0.517000020       85.5813599       1.69724941    
   0.00000000       2.59967995     -0.517000020       85.5813599       1.69724941    
   0.00000000       1.87709999     -0.606999993       85.5813599       1.69724941    
   0.00000000       1.87709999     -0.606999993       136.636108       1.63139296    
   0.00000000       1.36500001     -0.606999993       136.636108       1.63139296    
 -0.266297996       1.33877206     -0.606999993       136.636108       1.63139296    
 -0.366203994       1.84103203     -0.606999993       136.636108       1.63139296    
   0.00000000       1.87709999     -0.606999993       78.6410217      -1.43583202    
   0.00000000       2.59967995     -0.517000020       78.6410217      -1.43583202    
  0.507171988       2.54972792     -0.517000020       78.6410217      -1.43583202    
  0.366203994       1.84103203     -0.606999993       78.6410217      -1.43583202    
  0.366203994       1.84103203     -0.606999993       124.840591      -1.50848949    
  0.266297996       1.33877206     -0.606999993       124.840591      -1.50848949    
   0.00000000       1.36500001     -0.606999993       124.840591      -1.50848949    
   0.00000000       1.87709999     -0.606999993       124.840591      -1.50848949    
  0.366203994       1.84103203     -0.606999993       234.475372      -1.43704104    
  0.507171988       2.54972792     -0.517000020       234.475372      -1.43704104    
  0.994853973       2.40179110     -0.517000020       234.475372      -1.43704104    
  0.718334973       1.73421395     -0.606999993       234.475372      -1.43704104    
  0.718334973       1.73421395     -0.606999993       379.049469      -1.50901306    
  0.522363007       1.26109600     -0.606999993       379.049469      -1.50901306    
  0.266297996       1.33877206     -0.606999993       379.049469      -1.50901306    
  0.366203994       1.84103203     -0.606999993       379.049469      -1.50901306    
  0.718334973       1.73421395     -0.606999993       370.444000      -1.43476224    
  0.994853973       2.40179110     -0.517000020       370.444000      -1.43476224    
   1.44430494       2.16155505     -0.517000020       370.444000      -1.43476224    
   1.04286098       1.56075203     -0.606999993       370.444000      -1.43476224    
   1.04286098       1.56075203     -0.606999993       613.518372      -1.50899947    
  0.758352995       1.13495600     -0.606999993       613.518372      -1.50899947    
  0.522363007       1.26109600     -0.606999993       613.518372      -1.50899947    
  0.718334973       1.73421395     -0.606999993       613.518372      -1.50899947    
   1.04286098       1.56075203     -0.606999993       488.896515      -1.43298447    
   1.44430494       2.16155505     -0.517000020       488.896515      -1.43298447    
   1.83825099       1.83825099     -0.517000020       488.896515      -1.43298447    
   1.32730997       1.32730997     -0.606999993       488.896515      -1.43298447    
   1.32730997       1.32730997     -0.606999993       822.180481      -1.50892425    
  0.965201020      0.965201020     -0.606999993       822.180481      -1.50892425    
  0.758352995       1.13495600     -0.606999993       822.180481      -1.50892425    
   1.04286098       1.56075203     -0.606999993       822.180481      -1.50892425    
   1.32730997       1.32730997     -0.606999993       594.076721      -1.43259573    
   1.83825099       1.83825099     -0.517000020       594.076721      -1.43259573    
   2.16155505       1.44430494     -0.517000020       594.076721      -1.43259573    
   1.56075203       1.04286098     -0.606999993       594.076721      -1.43259573    
   1.56075203       1.04286098     -0.606999993       1001.33337      -1.50887990    
   1.13495600      0.758352995     -0.606999993       1001.33337      -1.50887990    
  0.965201020      0.965201020     -0.606999993       1001.33337      -1.50887990    
   1.32730997       1.32730997     -0.606999993       1001.33337      -1.50887990    
   1.56075203       1.04286098     -0.606999993       684.324646      -1.43340993    
   2.16155505       1.44430494     -0.517000020       684.324646      -1.43340993    
   2.40179110      0.994853973     -0.517000020       684.324646      -1.43340993    
   1.73421395      0.718334973     -0.606999993       684.324646      -1.43340993    
   1.73421395      0.718334973     -0.606999993       1146.02063      -1.50889528    
   1.26109600      0.522363007     -0.606999993       1146.02063      -1.50889528    
   1.13495600      0.758352995     -0.606999993       1146.02063      -1.50889528    
   1.56075203       1.04286098     -0.606999993       1146.02063      -1.50889528    
   1.73421395      0.718334973     -0.606999993       750.627197      -1.43444955    
   2.40179110      0.994853973     -0.517000020       750.627197      -1.43444955    
   2.54972792      0.507171988     -0.517000020       750.627197      -1.43444955    
   1.84103203      0.366203994     -0.606999993       750.627197      -1.43444955    
   1.84103203      0.366203994     -0.606999993       1248.86572      -1.50895953    
   1.33877206      0.266297996     -0.606999993       1248.86572      -1.50895953    
   1.26109600      0.522363007     -0.606999993       1248.86572      -1.50895953    
   1.73421395      0.718334973     -0.606999993       1248.86572      -1.50895953    
   1.84103203      0.366203994     -0.606999993       785.367126      -1.43508232    
   2.54972792      0.507171988     -0.517000020       785.367126      -1.43508232    
   2.59967995       0.00000000     -0.517000020       785.367126      -1.43508232    
   1.87709999       0.00000000     -0.606999993       785.367126      -1.43508232    
   1.87709999       0.00000000     -0.606999993       1302.70837      -1.50901830    
   1.36500001       0.00000000     -0.606999993       1302.70837      -1.50901830    
   1.33877206      0.266297996     -0.606999993       1302.70837      -1.50901830    
   1.84103203      0.366203994     -0.606999993       1302.70837      -1.50901830    
   1.87709999       0.00000000     -0.606999993       785.205383      -1.43506956    
   2.59967995       0.00000000     -0.517000020       785.205383      -1.43506956    
   2.54972792     -0.507171988     -0.517000020       785.205383      -1.43506956    
   1.84103203     -0.366203994     -0.606999993       785.205383      -1.43506956    
   1.84103203     -0.366203994     -0.606999993       1303.17334      -1.50902343    
   1.33877206     -0.266297996     -0.606999993       1303.17334      -1.50902343    
   1.36500001       0.00000000     -0.606999993       1303.17334      -1.50902343    
   1.87709999       0.00000000     -0.606999993       1303.17334      -1.50902343    
   1.84103203     -0.366203994     -0.606999993       750.520081      -1.43447542    
   2.54972792     -0.507171988     -0.517000020       750.520081      -1.43447542    
   2.40179110     -0.994853973     -0.517000020       750.520081      -1.43447542    
   1.73421395     -0.718334973     -0.606999993       750.520081      -1.43447542    
   1.73421395     -0.718334973     -0.606999993       1250.66602      -1.50898695    
   1.26109600     -0.522363007     -0.606999993       1250.66602      -1.50898695    
   1.33877206     -0.266297996     -0.606999993       1250.66602      -1.50898695    
   1.84103203     -0.366203994     -0.606999993       1250.66602      -1.50898695    
   1.73421395     -0.718334973     -0.606999993       685.474609      -1.43367839    
   2.40179110     -0.994853973     -0.517000020       685.474609      -1.43367839    
   2.16155505      -1.44430494     -0.517000020       685.474609      -1.43367839    
   1.56075203      -1.04286098     -0.606999993       685.474609      -1.43367839    
   1.56075203      -1.04286098     -0.606999993       1149.92053      -1.50896001    
   1.13495600     -0.758352995     -0.606999993       1149.92053      -1.50896001    
   1.26109600     -0.522363007     -0.606999993       1149.92053      -1.50896001    