 VARIABLES="X" "Y" "Z" "abs(p) (Pa)" "angle(p) (rad)"
ZONE N=   2709,E =    2358, F=FEPOINT, ET=QUADRILATERAL
   0.00000000      -5.48999977     -0.157000005       337.404419      -1.37817395    
   0.00000000      -4.76741982     -0.246999994       337.404419      -1.37817395    
  0.930077016      -4.67581606     -0.246999994       337.404419      -1.37817395    
   1.07104599      -5.38451099     -0.157000005       337.404419      -1.37817395    
  -1.07104599      -5.38451099     -0.157000005       338.086395      -1.38284755    
 -0.930077016      -4.67581606     -0.246999994       338.086395      -1.38284755    
   0.00000000      -4.76741982     -0.246999994       338.086395      -1.38284755    
   0.00000000      -5.48999977     -0.157000005       338.086395      -1.38284755    
  -2.10093188      -5.07209921     -0.157000005       336.866821      -1.40818965    
  -1.82441294      -4.40452194     -0.246999994       336.866821      -1.40818965    
 -0.930077016      -4.67581606     -0.246999994       336.866821      -1.40818965    
  -1.07104599      -5.38451099     -0.157000005       336.866821      -1.40818965    
  -3.05008101      -4.56476784     -0.157000005       292.467865      -1.39044237    
  -2.64863706      -3.96396494     -0.246999994       292.467865      -1.39044237    
  -1.82441294      -4.40452194     -0.246999994       292.467865      -1.39044237    
  -2.10093188      -5.07209921     -0.157000005       292.467865      -1.39044237    
  -3.88201594      -3.88201594     -0.157000005       263.926605      -1.37603450    
  -3.37107491      -3.37107491     -0.246999994       263.926605      -1.37603450    
  -2.64863706      -3.96396494     -0.246999994       263.926605      -1.37603450    
  -3.05008101      -4.56476784     -0.157000005       263.926605      -1.37603450    
  -4.56476784      -3.05008101     -0.157000005       235.867172      -1.38373125    
  -3.96396494      -2.64863706     -0.246999994       235.867172      -1.38373125    
  -3.37107491      -3.37107491     -0.246999994       235.867172      -1.38373125    
  -3.88201594      -3.88201594     -0.157000005       235.867172      -1.38373125    
  -5.07209921      -2.10093188     -0.157000005       165.750580      -1.36964357    
  -4.40452194      -1.82441294     -0.246999994       165.750580      -1.36964357    
  -3.96396494      -2.64863706     -0.246999994       165.750580      -1.36964357    
  -4.56476784      -3.05008101     -0.157000005       165.750580      -1.36964357    
  -5.38451099      -1.07104599     -0.157000005       94.7705994      -1.39338291    
  -4.67581606     -0.930077016     -0.246999994       94.7705994      -1.39338291    
  -4.40452194      -1.82441294     -0.246999994       94.7705994      -1.39338291    
  -5.07209921      -2.10093188     -0.157000005       94.7705994      -1.39338291    
  -5.48999977       0.00000000     -0.157000005       31.2660675      -1.45223439    
  -4.76741982       0.00000000     -0.246999994       31.2660675      -1.45223439    
  -4.67581606     -0.930077016     -0.246999994       31.2660675      -1.45223439    
  -5.38451099      -1.07104599     -0.157000005       31.2660675      -1.45223439    
  -5.38451099       1.07104599     -0.157000005       31.1434784       1.70287240    
  -4.67581606      0.930077016     -0.246999994       31.1434784       1.70287240    
  -4.76741982       0.00000000     -0.246999994       31.1434784       1.70287240    
  -5.48999977       0.00000000     -0.157000005       31.1434784       1.70287240    
  -5.07209921       2.10093188     -0.157000005       98.2063141       1.70451880    
  -4.40452194       1.82441294     -0.246999994       98.2063141       1.70451880    
  -4.67581606      0.930077016     -0.246999994       98.2063141       1.70451880    
  -5.38451099       1.07104599     -0.157000005       98.2063141       1.70451880    
  -4.56476784       3.05008101     -0.157000005       170.888657       1.72756112    
  -3.96396494       2.64863706     -0.246999994       170.888657       1.72756112    
  -4.40452194       1.82441294     -0.246999994       170.888657       1.72756112    
  -5.07209921       2.10093188     -0.157000005       170.888657       1.72756112    
  -3.88201594       3.88201594     -0.157000005       227.241348       1.75811934    
  -3.37107491       3.37107491     -0.246999994       227.241348       1.75811934    
  -3.96396494       2.64863706     -0.246999994       227.241348       1.75811934    
  -4.56476784       3.05008101     -0.157000005       227.241348       1.75811934    
  -3.05008101       4.56476784     -0.157000005       283.187256       1.74331963    
  -2.64863706       3.96396494     -0.246999994       283.187256       1.74331963    
  -3.37107491       3.37107491     -0.246999994       283.187256       1.74331963    
  -3.88201594       3.88201594     -0.157000005       283.187256       1.74331963    
  -2.10093188       5.07209921     -0.157000005       298.144196       1.75483406    
  -1.82441294       4.40452194     -0.246999994       298.144196       1.75483406    
  -2.64863706       3.96396494     -0.246999994       298.144196       1.75483406    
  -3.05008101       4.56476784     -0.157000005       298.144196       1.75483406    
  -1.07104599       5.38451099     -0.157000005       340.151917       1.73519671    
 -0.930077016       4.67581606     -0.246999994       340.151917       1.73519671    
  -1.82441294       4.40452194     -0.246999994       340.151917       1.73519671    
  -2.10093188       5.07209921     -0.157000005       340.151917       1.73519671    
   0.00000000       5.48999977     -0.157000005       344.578766       1.75100577    
   0.00000000       4.76741982     -0.246999994       344.578766       1.75100577    
 -0.930077016       4.67581606     -0.246999994       344.578766       1.75100577    
  -1.07104599       5.38451099     -0.157000005       344.578766       1.75100577    
   1.07104599       5.38451099     -0.157000005       358.543915       1.73718858    
  0.930077016       4.67581606     -0.246999994       358.543915       1.73718858    
   0.00000000       4.76741982     -0.246999994       358.543915       1.73718858    
   0.00000000       5.48999977     -0.157000005       358.543915       1.73718858    
   2.10093188       5.07209921     -0.157000005       325.771606       1.75163114    
   1.82441294       4.40452194     -0.246999994       325.771606       1.75163114    
  0.930077016       4.67581606     -0.246999994       325.771606       1.75163114    
   1.07104599       5.38451099     -0.157000005       325.771606       1.75163114    
   3.05008101       4.56476784     -0.157000005       295.347443       1.75858891    
   2.64863706       3.96396494     -0.246999994       295.347443       1.75858891    
   1.82441294       4.40452194     -0.246999994       295.347443       1.75858891    
   2.10093188       5.07209921     -0.157000005       295.347443       1.75858891    
   3.88201594       3.88201594     -0.157000005       281.188721       1.74779356    
   3.37107491       3.37107491     -0.246999994       281.188721       1.74779356    
   2.64863706       3.96396494     -0.246999994       281.188721       1.74779356    
   3.05008101       4.56476784     -0.157000005       281.188721       1.74779356    
   4.56476784       3.05008101     -0.157000005       231.976501       1.75968206    
   3.96396494       2.64863706     -0.246999994       231.976501       1.75968206    
   3.37107491       3.37107491     -0.246999994       231.976501       1.75968206    
   3.88201594       3.88201594     -0.157000005       231.976501       1.75968206    
   5.07209921       2.10093188     -0.157000005       169.336533       1.74805140    
   4.40452194       1.82441294     -0.246999994       169.336533       1.74805140    
   3.96396494       2.64863706     -0.246999994       169.336533       1.74805140    
   4.56476784       3.05008101     -0.157000005       169.336533       1.74805140    
   5.38451099       1.07104599     -0.157000005       91.1312256       1.74470210    
   4.67581606      0.930077016     -0.246999994       91.1312256       1.74470210    
   4.40452194       1.82441294     -0.246999994       91.1312256       1.74470210    
   5.07209921       2.10093188     -0.157000005       91.1312256       1.74470210    
   5.48999977       0.00000000     -0.157000005       27.1614304       1.70441031    
   4.76741982       0.00000000     -0.246999994       27.1614304       1.70441031    
   4.67581606      0.930077016     -0.246999994       27.1614304       1.70441031    
   5.38451099       1.07104599     -0.157000005       27.1614304       1.70441031    
   5.38451099      -1.07104599     -0.157000005       31.1875134      -1.38980377    
   4.67581606     -0.930077016     -0.246999994       31.1875134      -1.38980377    
   4.76741982       0.00000000     -0.246999994       31.1875134      -1.38980377    
   5.48999977       0.00000000     -0.157000005       31.1875134      -1.38980377    
   5.07209921      -2.10093188     -0.157000005       95.6987915      -1.39314532    
   4.40452194      -1.82441294     -0.246999994       95.6987915      -1.39314532    
   4.67581606     -0.930077016     -0.246999994       95.6987915      -1.39314532    
   5.38451099      -1.07104599     -0.157000005       95.6987915      -1.39314532    
   4.56476784      -3.05008101     -0.157000005       165.352737      -1.38095009    
   3.96396494      -2.64863706     -0.246999994       165.352737      -1.38095009    
   4.40452194      -1.82441294     -0.246999994       165.352737      -1.38095009    
   5.07209921      -2.10093188     -0.157000005       165.352737      -1.38095009    
   3.88201594      -3.88201594     -0.157000005       226.123276      -1.37905180    
   3.37107491      -3.37107491     -0.246999994       226.123276      -1.37905180    
   3.96396494      -2.64863706     -0.246999994       226.123276      -1.37905180    
   4.56476784      -3.05008101     -0.157000005       226.123276      -1.37905180    
   3.05008101      -4.56476784     -0.157000005       276.879272      -1.39960945    
   2.64863706      -3.96396494     -0.246999994       276.879272      -1.39960945    
   3.37107491      -3.37107491     -0.246999994       276.879272      -1.39960945    
   3.88201594      -3.88201594     -0.157000005       276.879272      -1.39960945    
   2.10093188      -5.07209921     -0.157000005       292.237671      -1.38634622    
   1.82441294      -4.40452194     -0.246999994       292.237671      -1.38634622    
   2.64863706      -3.96396494     -0.246999994       292.237671      -1.38634622    
   3.05008101      -4.56476784     -0.157000005       292.237671      -1.38634622    
   1.07104599      -5.38451099     -0.157000005       321.459747      -1.38388419    
  0.930077016      -4.67581606     -0.246999994       321.459747      -1.38388419    
   1.82441294      -4.40452194     -0.246999994       321.459747      -1.38388419    
   2.10093188      -5.07209921     -0.157000005       321.459747      -1.38388419    
   0.00000000      -1.87709999     -0.606999993       14691.7969      -1.56943059    
   0.00000000      -1.36500001     -0.606999993       14691.7969      -1.56943059    
  0.266297996      -1.33877206     -0.606999993       14691.7969      -1.56943059    
  0.366203994      -1.84103203     -0.606999993       14691.7969      -1.56943059    
   0.00000000      -1.87709999     -0.606999993       6379.63379      -1.56888819    
   0.00000000      -2.59967995     -0.517000020       6379.63379      -1.56888819    
 -0.507171988      -2.54972792     -0.517000020       6379.63379      -1.56888819    
 -0.366203994      -1.84103203     -0.606999993       6379.63379      -1.56888819    
 -0.366203994      -1.84103203     -0.606999993       14700.9082      -1.56942987    
 -0.266297996      -1.33877206     -0.606999993       14700.9082      -1.56942987    
   0.00000000      -1.36500001     -0.606999993       14700.9082      -1.56942987    
   0.00000000      -1.87709999     -0.606999993       14700.9082      -1.56942987    
 -0.366203994      -1.84103203     -0.606999993       6234.38477      -1.56895065    
 -0.507171988      -2.54972792     -0.517000020       6234.38477      -1.56895065    
 -0.994853973      -2.40179110     -0.517000020       6234.38477      -1.56895065    
 -0.718334973      -1.73421395     -0.606999993       6234.38477      -1.56895065    
 -0.718334973      -1.73421395     -0.606999993       14218.5771      -1.56944263    
 -0.522363007      -1.26109600     -0.606999993       14218.5771      -1.56944263    
 -0.266297996      -1.33877206     -0.606999993       14218.5771      -1.56944263    
 -0.366203994      -1.84103203     -0.606999993       14218.5771      -1.56944263    
 -0.718334973      -1.73421395     -0.606999993       5888.07812      -1.56901610    
 -0.994853973      -2.40179110     -0.517000020       5888.07812      -1.56901610    
  -1.44430494      -2.16155505     -0.517000020       5888.07812      -1.56901610    
  -1.04286098      -1.56075203     -0.606999993       5888.07812      -1.56901610    
  -1.04286098      -1.56075203     -0.606999993       13213.0811      -1.56945825    
 -0.758352995      -1.13495600     -0.606999993       13213.0811      -1.56945825    
 -0.522363007      -1.26109600     -0.606999993       13213.0811      -1.56945825    
 -0.718334973      -1.73421395     -0.606999993       13213.0811      -1.56945825    
  -1.04286098      -1.56075203     -0.606999993       5266.99658      -1.56903148    
  -1.44430494      -2.16155505     -0.517000020       5266.99658      -1.56903148    
  -1.83825099      -1.83825099     -0.517000020       5266.99658      -1.56903148    
  -1.32730997      -1.32730997     -0.606999993       5266.99658      -1.56903148    
  -1.32730997      -1.32730997     -0.606999993       11654.7529      -1.56945968    
 -0.965201020     -0.965201020     -0.606999993       11654.7529      -1.56945968    
 -0.758352995      -1.13495600     -0.606999993       11654.7529      -1.56945968    
  -1.04286098      -1.56075203     -0.606999993       11654.7529      -1.56945968    
  -1.32730997      -1.32730997     -0.606999993       4329.55322      -1.56898475    
  -1.83825099      -1.83825099     -0.517000020       4329.55322      -1.56898475    
  -2.16155505      -1.44430494     -0.517000020       4329.55322      -1.56898475    
  -1.56075203      -1.04286098     -0.606999993       4329.55322      -1.56898475    
  -1.56075203      -1.04286098     -0.606999993       9569.48145      -1.56944263    
  -1.13495600     -0.758352995     -0.606999993       9569.48145      -1.56944263    
 -0.965201020     -0.965201020     -0.606999993       9569.48145      -1.56944263    
  -1.32730997      -1.32730997     -0.606999993       9569.48145      -1.56944263    
  -1.56075203      -1.04286098     -0.606999993       3127.55322      -1.56887507    
  -2.16155505      -1.44430494     -0.517000020       3127.55322      -1.56887507    
  -2.40179110     -0.994853973     -0.517000020       3127.55322      -1.56887507    
  -1.73421395     -0.718334973     -0.606999993       3127.55322      -1.56887507    
  -1.73421395     -0.718334973     -0.606999993       7064.10889      -1.56940317    
  -1.26109600     -0.522363007     -0.606999993       7064.10889      -1.56940317    
  -1.13495600     -0.758352995     -0.606999993       7064.10889      -1.56940317    
  -1.56075203      -1.04286098     -0.606999993       7064.10889      -1.56940317    
  -1.73421395     -0.718334973     -0.606999993       1833.92871      -1.56873059    
  -2.40179110     -0.994853973     -0.517000020       1833.92871      -1.56873059    
  -2.54972792     -0.507171988     -0.517000020       1833.92871      -1.56873059    
  -1.84103203     -0.366203994     -0.606999993       1833.92871      -1.56873059    
  -1.84103203     -0.366203994     -0.606999993       4306.04004      -1.56934309    
  -1.33877206     -0.266297996     -0.606999993       4306.04004      -1.56934309    
  -1.26109600     -0.522363007     -0.606999993       4306.04004      -1.56934309    
  -1.73421395     -0.718334973     -0.606999993       4306.04004      -1.56934309    
  -1.84103203     -0.366203994     -0.606999993       594.810303      -1.56845117    
  -2.54972792     -0.507171988     -0.517000020       594.810303      -1.56845117    
  -2.59967995       0.00000000     -0.517000020       594.810303      -1.56845117    
  -1.87709999       0.00000000     -0.606999993       594.810303      -1.56845117    
  -1.87709999       0.00000000     -0.606999993       1450.35779      -1.56917310    
  -1.36500001       0.00000000     -0.606999993       1450.35779      -1.56917310    
  -1.33877206     -0.266297996     -0.606999993       1450.35779      -1.56917310    
  -1.84103203     -0.366203994     -0.606999993       1450.35779      -1.56917310    
  -1.87709999       0.00000000     -0.606999993       569.270569       1.57260871    
  -2.59967995       0.00000000     -0.517000020       569.270569       1.57260871    
  -2.54972792      0.507171988     -0.517000020       569.270569       1.57260871    
  -1.84103203      0.366203994     -0.606999993       569.270569       1.57260871    
  -1.84103203      0.366203994     -0.606999993       1405.61938       1.57199931    
  -1.33877206      0.266297996     -0.606999993       1405.61938       1.57199931    
  -1.36500001       0.00000000     -0.606999993       1405.61938       1.57199931    
  -1.87709999       0.00000000     -0.606999993       1405.61938       1.57199931    
  -1.84103203      0.366203994     -0.606999993       1754.83606       1.57277036    
  -2.54972792      0.507171988     -0.517000020       1754.83606       1.57277036    
  -2.40179110      0.994853973     -0.517000020       1754.83606       1.57277036    
  -1.73421395      0.718334973     -0.606999993       1754.83606       1.57277036    
  -1.73421395      0.718334973     -0.606999993       4217.97070       1.57215130    
  -1.26109600      0.522363007     -0.606999993       4217.97070       1.57215130    
  -1.33877206      0.266297996     -0.606999993       4217.97070       1.57215130    
  -1.84103203      0.366203994     -0.606999993       4217.97070       1.57215130    
  -1.73421395      0.718334973     -0.606999993       2992.80884       1.57273364    
  -2.40179110      0.994853973     -0.517000020       2992.80884       1.57273364    
  -2.16155505       1.44430494     -0.517000020       2992.80884       1.57273364    
  -1.56075203       1.04286098     -0.606999993       2992.80884       1.57273364    
  -1.56075203       1.04286098     -0.606999993       6918.11182       1.57217538    
  -1.13495600      0.758352995     -0.606999993       6918.11182       1.57217538    
  -1.26109600      0.522363007     -0.606999993       6918.11182       1.57217538    
  -1.73421395      0.718334973     -0.606999993       6918.11182       1.57217538    
  -1.56075203       1.04286098     -0.606999993       4181.12061       1.57266271    
  -2.16155505       1.44430494     -0.517000020       4181.12061       1.57266271    
  -1.83825099       1.83825099     -0.517000020       4181.12061       1.57266271    
  -1.32730997       1.32730997     -0.606999993       4181.12061       1.57266271    
  -1.32730997       1.32730997     -0.606999993       9380.67578       1.57217979    
 -0.965201020      0.965201020     -0.606999993       9380.67578       1.57217979    
  -1.13495600      0.758352995     -0.606999993       9380.67578       1.57217979    
  -1.56075203       1.04286098     -0.606999993       9380.67578       1.57217979    
  -1.32730997       1.32730997     -0.606999993       5142.86719       1.57263148    
  -1.83825099       1.83825099     -0.517000020       5142.86719       1.57263148    
  -1.44430494       2.16155505     -0.517000020       5142.86719       1.57263148    
  -1.04286098       1.56075203     -0.606999993       5142.86719       1.57263148    
  -1.04286098       1.56075203     -0.606999993       11446.5342       1.57218874    
 -0.758352995       1.13495600     -0.606999993       11446.5342       1.57218874    
 -0.965201020      0.965201020     -0.606999993       11446.5342       1.57218874    
  -1.32730997       1.32730997     -0.606999993       11446.5342       1.57218874    
  -1.04286098       1.56075203     -0.606999993       5793.49414       1.57265747    
  -1.44430494       2.16155505     -0.517000020       5793.49414       1.57265747    
 -0.994853973       2.40179110     -0.517000020       5793.49414       1.57265747    
 -0.718334973       1.73421395     -0.606999993       5793.49414       1.57265747    
 -0.718334973       1.73421395     -0.606999993       13004.3496       1.57220638    
 -0.522363007       1.26109600     -0.606999993       13004.3496       1.57220638    
 -0.758352995       1.13495600     -0.606999993       13004.3496       1.57220638    
  -1.04286098       1.56075203     -0.606999993       13004.3496       1.57220638    
 -0.718334973       1.73421395     -0.606999993       6158.30957       1.57272792    
 -0.994853973       2.40179110     -0.517000020       6158.30957       1.57272792    
 -0.507171988       2.54972792     -0.517000020       6158.30957       1.57272792    
 -0.366203994       1.84103203     -0.606999993       6158.30957       1.57272792    
 -0.366203994       1.84103203     -0.606999993       14017.3281       1.57223129    
 -0.266297996       1.33877206     -0.606999993       14017.3281       1.57223129    
 -0.522363007       1.26109600     -0.606999993       14017.3281       1.57223129    
 -0.718334973       1.73421395     -0.606999993       14017.3281       1.57223129    
 -0.366203994       1.84103203     -0.606999993       6313.73438       1.57278848    
 -0.507171988       2.54972792     -0.517000020       6313.73438       1.57278848    
   0.00000000       2.59967995     -0.517000020       6313.73438       1.57278848    
   0.00000000       1.87709999     -0.606999993       6313.73438       1.57278848    
   0.00000000       1.87709999     -0.606999993       14509.4316       1.57224834    
   0.00000000       1.36500001     -0.606999993       14509.4316       1.57224834    
 -0.266297996       1.33877206     -0.606999993       14509.4316       1.57224834    
 -0.366203994       1.84103203     -0.606999993       14509.4316       1.57224834    
   0.00000000       1.87709999     -0.606999993       6315.39648       1.57279110    
   0.00000000       2.59967995     -0.517000020       6315.39648       1.57279110    
  0.507171988       2.54972792     -0.517000020       6315.39648       1.57279110    
  0.366203994       1.84103203     -0.606999993       6315.39648       1.57279110    
  0.366203994       1.84103203     -0.606999993       14509.6855       1.57224834    
  0.266297996       1.33877206     -0.606999993       14509.6855       1.57224834    
   0.00000000       1.36500001     -0.606999993       14509.6855       1.57224834    
   0.00000000       1.87709999     -0.606999993       14509.6855       1.57224834    
  0.366203994       1.84103203     -0.606999993       6163.43066       1.57272851    
  0.507171988       2.54972792     -0.517000020       6163.43066       1.57272851    
  0.994853973       2.40179110     -0.517000020       6163.43066       1.57272851    
  0.718334973       1.73421395     -0.606999993       6163.43066       1.57272851    
  0.718334973       1.73421395     -0.606999993       14018.5215       1.57223117    
  0.522363007       1.26109600     -0.606999993       14018.5215       1.57223117    
  0.266297996       1.33877206     -0.606999993       14018.5215       1.57223117    
  0.366203994       1.84103203     -0.606999993       14018.5215       1.57223117    
  0.718334973       1.73421395     -0.606999993       5802.83154       1.57266068    
  0.994853973       2.40179110     -0.517000020       5802.83154       1.57266068    
   1.44430494       2.16155505     -0.517000020       5802.83154       1.57266068    
   1.04286098       1.56075203     -0.606999993       5802.83154       1.57266068    
   1.04286098       1.56075203     -0.606999993       13007.2451       1.57220566    
  0.758352995       1.13495600     -0.606999993       13007.2451       1.57220566    
  0.522363007       1.26109600     -0.606999993       13007.2451       1.57220566    
  0.718334973       1.73421395     -0.606999993       13007.2451       1.57220566    
   1.04286098       1.56075203     -0.606999993       5157.35645       1.57263589    
   1.44430494       2.16155505     -0.517000020       5157.35645       1.57263589    
   1.83825099       1.83825099     -0.517000020       5157.35645       1.57263589    
   1.32730997       1.32730997     -0.606999993       5157.35645       1.57263589    
   1.32730997       1.32730997     -0.606999993       11452.9492       1.57218802    
  0.965201020      0.965201020     -0.606999993       11452.9492       1.57218802    
  0.758352995       1.13495600     -0.606999993       11452.9492       1.57218802    
   1.04286098       1.56075203     -0.606999993       11452.9492       1.57218802    
   1.32730997       1.32730997     -0.606999993       4200.77002       1.57267272    
   1.83825099       1.83825099     -0.517000020       4200.77002       1.57267272    
   2.16155505       1.44430494     -0.517000020       4200.77002       1.57267272    
   1.56075203       1.04286098     -0.606999993       4200.77002       1.57267272    
   1.56075203       1.04286098     -0.606999993       9391.58008       1.57217944    
   1.13495600      0.758352995     -0.606999993       9391.58008       1.57217944    
  0.965201020      0.965201020     -0.606999993       9391.58008       1.57217944    
   1.32730997       1.32730997     -0.606999993       9391.58008       1.57217944    
   1.56075203       1.04286098     -0.606999993       3016.59106       1.57274413    
   2.16155505       1.44430494     -0.517000020       3016.59106       1.57274413    
   2.40179110      0.994853973     -0.517000020       3016.59106       1.57274413    
   1.73421395      0.718334973     -0.606999993       3016.59106       1.57274413    
   1.73421395      0.718334973     -0.606999993       6932.62451       1.57217646    
   1.26109600      0.522363007     -0.606999993       6932.62451       1.57217646    
   1.13495600      0.758352995     -0.606999993       6932.62451       1.57217646    
   1.56075203       1.04286098     -0.606999993       6932.62451       1.57217646    
   1.73421395      0.718334973     -0.606999993       1781.83020       1.57278275    
   2.40179110      0.994853973     -0.517000020       1781.83020       1.57278275    
   2.54972792      0.507171988     -0.517000020       1781.83020       1.57278275    
   1.84103203      0.366203994     -0.606999993       1781.83020       1.57278275    
   1.84103203      0.366203994     -0.606999993       4237.07275       1.57215476    
   1.33877206      0.266297996     -0.606999993       4237.07275       1.57215476    
   1.26109600      0.522363007     -0.606999993       4237.07275       1.57215476    
   1.73421395      0.718334973     -0.606999993       4237.07275       1.57215476    
   1.84103203      0.366203994     -0.606999993       599.368225       1.57262468    
   2.54972792      0.507171988     -0.517000020       599.368225       1.57262468    
   2.59967995       0.00000000     -0.517000020       599.368225       1.57262468    
   1.87709999       0.00000000     -0.606999993       599.368225       1.57262468    
   1.87709999       0.00000000     -0.606999993       1431.03101       1.57201636    
   1.36500001       0.00000000     -0.606999993       1431.03101       1.57201636    
   1.33877206      0.266297996     -0.606999993       1431.03101       1.57201636    
   1.84103203      0.366203994     -0.606999993       1431.03101       1.57201636    
   1.87709999       0.00000000     -0.606999993       561.847351      -1.56842840    
   2.59967995       0.00000000     -0.517000020       561.847351      -1.56842840    
   2.54972792     -0.507171988     -0.517000020       561.847351      -1.56842840    
   1.84103203     -0.366203994     -0.606999993       561.847351      -1.56842840    
   1.84103203     -0.366203994     -0.606999993       1418.57227      -1.56919026    
   1.33877206     -0.266297996     -0.606999993       1418.57227      -1.56919026    
   1.36500001       0.00000000     -0.606999993       1418.57227      -1.56919026    
   1.87709999       0.00000000     -0.606999993       1418.57227      -1.56919026    
   1.84103203     -0.366203994     -0.606999993       1798.86499      -1.56873047    
   2.54972792     -0.507171988     -0.517000020       1798.86499      -1.56873047    
   2.40179110     -0.994853973     -0.517000020       1798.86499      -1.56873047    
   1.73421395     -0.718334973     -0.606999993       1798.86499      -1.56873047    
   1.73421395     -0.718334973     -0.606999993       4269.20703      -1.56935263    
   1.26109600     -0.522363007     -0.606999993       4269.20703      -1.56935263    
   1.33877206     -0.266297996     -0.606999993       4269.20703      -1.56935263    
   1.84103203     -0.366203994     -0.606999993       4269.20703      -1.56935263    
   1.73421395     -0.718334973     -0.606999993       3091.73413      -1.56887853    
   2.40179110     -0.994853973     -0.517000020       3091.73413      -1.56887853    
   2.16155505      -1.44430494     -0.517000020       3091.73413      -1.56887853    
   1.56075203      -1.04286098     -0.606999993       3091.73413      -1.56887853    
   1.56075203      -1.04286098     -0.606999993       7024.58984      -1.56941020    
   1.13495600     -0.758352995     -0.606999993       7024.58984      -1.56941020    
   1.26109600     -0.522363007     -0.606999993       7024.58984      -1.56941020    