 VARIABLES="X" "Y" "Z" "abs(p) (Pa)" "angle(p) (rad)"
ZONE N=   2709,E =    2358, F=FEPOINT, ET=QUADRILATERAL
   0.00000000      -5.48999977     -0.157000005       2.66989183      -1.08192396    
   0.00000000      -4.76741982     -0.246999994       2.66989183      -1.08192396    
  0.930077016      -4.67581606     -0.246999994       2.66989183      -1.08192396    
   1.07104599      -5.38451099     -0.157000005       2.66989183      -1.08192396    
  -1.07104599      -5.38451099     -0.157000005       2.39071417       2.00997090    
 -0.930077016      -4.67581606     -0.246999994       2.39071417       2.00997090    
   0.00000000      -4.76741982     -0.246999994       2.39071417       2.00997090    
   0.00000000      -5.48999977     -0.157000005       2.39071417       2.00997090    
  -2.10093188      -5.07209921     -0.157000005       4.66053963       2.05260801    
  -1.82441294      -4.40452194     -0.246999994       4.66053963       2.05260801    
 -0.930077016      -4.67581606     -0.246999994       4.66053963       2.05260801    
  -1.07104599      -5.38451099     -0.157000005       4.66053963       2.05260801    
  -3.05008101      -4.56476784     -0.157000005       2.00359702       2.29008484    
  -2.64863706      -3.96396494     -0.246999994       2.00359702       2.29008484    
  -1.82441294      -4.40452194     -0.246999994       2.00359702       2.29008484    
  -2.10093188      -5.07209921     -0.157000005       2.00359702       2.29008484    
  -3.88201594      -3.88201594     -0.157000005       2.64410043      -1.32981253    
  -3.37107491      -3.37107491     -0.246999994       2.64410043      -1.32981253    
  -2.64863706      -3.96396494     -0.246999994       2.64410043      -1.32981253    
  -3.05008101      -4.56476784     -0.157000005       2.64410043      -1.32981253    
  -4.56476784      -3.05008101     -0.157000005       4.02662945      -1.15311348    
  -3.96396494      -2.64863706     -0.246999994       4.02662945      -1.15311348    
  -3.37107491      -3.37107491     -0.246999994       4.02662945      -1.15311348    
  -3.88201594      -3.88201594     -0.157000005       4.02662945      -1.15311348    
  -5.07209921      -2.10093188     -0.157000005       1.50482225     -0.598717451    
  -4.40452194      -1.82441294     -0.246999994       1.50482225     -0.598717451    
  -3.96396494      -2.64863706     -0.246999994       1.50482225     -0.598717451    
  -4.56476784      -3.05008101     -0.157000005       1.50482225     -0.598717451    
  -5.38451099      -1.07104599     -0.157000005       2.09073997       1.39060402    
  -4.67581606     -0.930077016     -0.246999994       2.09073997       1.39060402    
  -4.40452194      -1.82441294     -0.246999994       2.09073997       1.39060402    
  -5.07209921      -2.10093188     -0.157000005       2.09073997       1.39060402    
  -5.48999977       0.00000000     -0.157000005       1.24996710       1.32408690    
  -4.76741982       0.00000000     -0.246999994       1.24996710       1.32408690    
  -4.67581606     -0.930077016     -0.246999994       1.24996710       1.32408690    
  -5.38451099      -1.07104599     -0.157000005       1.24996710       1.32408690    
  -5.38451099       1.07104599     -0.157000005       2.13846326      -1.14930189    
  -4.67581606      0.930077016     -0.246999994       2.13846326      -1.14930189    
  -4.76741982       0.00000000     -0.246999994       2.13846326      -1.14930189    
  -5.48999977       0.00000000     -0.157000005       2.13846326      -1.14930189    
  -5.07209921       2.10093188     -0.157000005       3.46880364      -1.29790139    
  -4.40452194       1.82441294     -0.246999994       3.46880364      -1.29790139    
  -4.67581606      0.930077016     -0.246999994       3.46880364      -1.29790139    
  -5.38451099       1.07104599     -0.157000005       3.46880364      -1.29790139    
  -4.56476784       3.05008101     -0.157000005      0.645180583      -1.60812688    
  -3.96396494       2.64863706     -0.246999994      0.645180583      -1.60812688    
  -4.40452194       1.82441294     -0.246999994      0.645180583      -1.60812688    
  -5.07209921       2.10093188     -0.157000005      0.645180583      -1.60812688    
  -3.88201594       3.88201594     -0.157000005       3.22722316       1.92299294    
  -3.37107491       3.37107491     -0.246999994       3.22722316       1.92299294    
  -3.96396494       2.64863706     -0.246999994       3.22722316       1.92299294    
  -4.56476784       3.05008101     -0.157000005       3.22722316       1.92299294    
  -3.05008101       4.56476784     -0.157000005       3.45681405       1.84832168    
  -2.64863706       3.96396494     -0.246999994       3.45681405       1.84832168    
  -3.37107491       3.37107491     -0.246999994       3.45681405       1.84832168    
  -3.88201594       3.88201594     -0.157000005       3.45681405       1.84832168    
  -2.10093188       5.07209921     -0.157000005      0.758490980      -1.15792835    
  -1.82441294       4.40452194     -0.246999994      0.758490980      -1.15792835    
  -2.64863706       3.96396494     -0.246999994      0.758490980      -1.15792835    
  -3.05008101       4.56476784     -0.157000005      0.758490980      -1.15792835    
  -1.07104599       5.38451099     -0.157000005       4.09256649      -1.26955116    
 -0.930077016       4.67581606     -0.246999994       4.09256649      -1.26955116    
  -1.82441294       4.40452194     -0.246999994       4.09256649      -1.26955116    
  -2.10093188       5.07209921     -0.157000005       4.09256649      -1.26955116    
   0.00000000       5.48999977     -0.157000005       2.27614093      -1.22413707    
   0.00000000       4.76741982     -0.246999994       2.27614093      -1.22413707    
 -0.930077016       4.67581606     -0.246999994       2.27614093      -1.22413707    
  -1.07104599       5.38451099     -0.157000005       2.27614093      -1.22413707    
   1.07104599       5.38451099     -0.157000005       1.95799017       1.84831560    
  0.930077016       4.67581606     -0.246999994       1.95799017       1.84831560    
   0.00000000       4.76741982     -0.246999994       1.95799017       1.84831560    
   0.00000000       5.48999977     -0.157000005       1.95799017       1.84831560    
   2.10093188       5.07209921     -0.157000005       3.94789267       1.86321163    
   1.82441294       4.40452194     -0.246999994       3.94789267       1.86321163    
  0.930077016       4.67581606     -0.246999994       3.94789267       1.86321163    
   1.07104599       5.38451099     -0.157000005       3.94789267       1.86321163    
   3.05008101       4.56476784     -0.157000005      0.655722439       1.98270130    
   2.64863706       3.96396494     -0.246999994      0.655722439       1.98270130    
   1.82441294       4.40452194     -0.246999994      0.655722439       1.98270130    
   2.10093188       5.07209921     -0.157000005      0.655722439       1.98270130    
   3.88201594       3.88201594     -0.157000005       3.53692198      -1.29778111    
   3.37107491       3.37107491     -0.246999994       3.53692198      -1.29778111    
   2.64863706       3.96396494     -0.246999994       3.53692198      -1.29778111    
   3.05008101       4.56476784     -0.157000005       3.53692198      -1.29778111    
   4.56476784       3.05008101     -0.157000005       3.26686525      -1.22440112    
   3.96396494       2.64863706     -0.246999994       3.26686525      -1.22440112    
   3.37107491       3.37107491     -0.246999994       3.26686525      -1.22440112    
   3.88201594       3.88201594     -0.157000005       3.26686525      -1.22440112    
   5.07209921       2.10093188     -0.157000005      0.669455111       1.54501045    
   4.40452194       1.82441294     -0.246999994      0.669455111       1.54501045    
   3.96396494       2.64863706     -0.246999994      0.669455111       1.54501045    
   4.56476784       3.05008101     -0.157000005      0.669455111       1.54501045    
   5.38451099       1.07104599     -0.157000005       3.67834282       1.87000132    
   4.67581606      0.930077016     -0.246999994       3.67834282       1.87000132    
   4.40452194       1.82441294     -0.246999994       3.67834282       1.87000132    
   5.07209921       2.10093188     -0.157000005       3.67834282       1.87000132    
   5.48999977       0.00000000     -0.157000005       2.47046518       2.04016376    
   4.76741982       0.00000000     -0.246999994       2.47046518       2.04016376    
   4.67581606      0.930077016     -0.246999994       2.47046518       2.04016376    
   5.38451099       1.07104599     -0.157000005       2.47046518       2.04016376    
   5.38451099      -1.07104599     -0.157000005       1.15929306      -2.03032255    
   4.67581606     -0.930077016     -0.246999994       1.15929306      -2.03032255    
   4.76741982       0.00000000     -0.246999994       1.15929306      -2.03032255    
   5.48999977       0.00000000     -0.157000005       1.15929306      -2.03032255    
   5.07209921      -2.10093188     -0.157000005       1.98128164      -1.81915009    
   4.40452194      -1.82441294     -0.246999994       1.98128164      -1.81915009    
   4.67581606     -0.930077016     -0.246999994       1.98128164      -1.81915009    
   5.38451099      -1.07104599     -0.157000005       1.98128164      -1.81915009    
   4.56476784      -3.05008101     -0.157000005       1.56387341       2.54310012    
   3.96396494      -2.64863706     -0.246999994       1.56387341       2.54310012    
   4.40452194      -1.82441294     -0.246999994       1.56387341       2.54310012    
   5.07209921      -2.10093188     -0.157000005       1.56387341       2.54310012    
   3.88201594      -3.88201594     -0.157000005       4.05744076       2.01480746    
   3.37107491      -3.37107491     -0.246999994       4.05744076       2.01480746    
   3.96396494      -2.64863706     -0.246999994       4.05744076       2.01480746    
   4.56476784      -3.05008101     -0.157000005       4.05744076       2.01480746    
   3.05008101      -4.56476784     -0.157000005       2.56116676       1.83706152    
   2.64863706      -3.96396494     -0.246999994       2.56116676       1.83706152    
   3.37107491      -3.37107491     -0.246999994       2.56116676       1.83706152    
   3.88201594      -3.88201594     -0.157000005       2.56116676       1.83706152    
   2.10093188      -5.07209921     -0.157000005       2.06185722     -0.879007220    
   1.82441294      -4.40452194     -0.246999994       2.06185722     -0.879007220    
   2.64863706      -3.96396494     -0.246999994       2.06185722     -0.879007220    
   3.05008101      -4.56476784     -0.157000005       2.06185722     -0.879007220    
   1.07104599      -5.38451099     -0.157000005       4.89181900      -1.06718826    
  0.930077016      -4.67581606     -0.246999994       4.89181900      -1.06718826    
   1.82441294      -4.40452194     -0.246999994       4.89181900      -1.06718826    
   2.10093188      -5.07209921     -0.157000005       4.89181900      -1.06718826    
   0.00000000      -1.87709999     -0.606999993       36.9620247      -1.56914210    
   0.00000000      -1.36500001     -0.606999993       36.9620247      -1.56914210    
  0.266297996      -1.33877206     -0.606999993       36.9620247      -1.56914210    
  0.366203994      -1.84103203     -0.606999993       36.9620247      -1.56914210    
   0.00000000      -1.87709999     -0.606999993       6.54848003      -1.56968868    
   0.00000000      -2.59967995     -0.517000020       6.54848003      -1.56968868    
 -0.507171988      -2.54972792     -0.517000020       6.54848003      -1.56968868    
 -0.366203994      -1.84103203     -0.606999993       6.54848003      -1.56968868    
 -0.366203994      -1.84103203     -0.606999993       41.1277390      -1.57019150    
 -0.266297996      -1.33877206     -0.606999993       41.1277390      -1.57019150    
   0.00000000      -1.36500001     -0.606999993       41.1277390      -1.57019150    
   0.00000000      -1.87709999     -0.606999993       41.1277390      -1.57019150    
 -0.366203994      -1.84103203     -0.606999993       2.68200684       1.57771587    
 -0.507171988      -2.54972792     -0.517000020       2.68200684       1.57771587    
 -0.994853973      -2.40179110     -0.517000020       2.68200684       1.57771587    
 -0.718334973      -1.73421395     -0.606999993       2.68200684       1.57771587    
 -0.718334973      -1.73421395     -0.606999993       44.9717979      -1.57116187    
 -0.522363007      -1.26109600     -0.606999993       44.9717979      -1.57116187    
 -0.266297996      -1.33877206     -0.606999993       44.9717979      -1.57116187    
 -0.366203994      -1.84103203     -0.606999993       44.9717979      -1.57116187    
 -0.718334973      -1.73421395     -0.606999993       13.9932003      -1.57270229    
 -0.994853973      -2.40179110     -0.517000020       13.9932003      -1.57270229    
  -1.44430494      -2.16155505     -0.517000020       13.9932003      -1.57270229    
  -1.04286098      -1.56075203     -0.606999993       13.9932003      -1.57270229    
  -1.04286098      -1.56075203     -0.606999993       53.3110542      -1.57166839    
 -0.758352995      -1.13495600     -0.606999993       53.3110542      -1.57166839    
 -0.522363007      -1.26109600     -0.606999993       53.3110542      -1.57166839    
 -0.718334973      -1.73421395     -0.606999993       53.3110542      -1.57166839    
  -1.04286098      -1.56075203     -0.606999993       38.1629906      -1.57124352    
  -1.44430494      -2.16155505     -0.517000020       38.1629906      -1.57124352    
  -1.83825099      -1.83825099     -0.517000020       38.1629906      -1.57124352    
  -1.32730997      -1.32730997     -0.606999993       38.1629906      -1.57124352    
  -1.32730997      -1.32730997     -0.606999993       58.4554825      -1.57190490    
 -0.965201020     -0.965201020     -0.606999993       58.4554825      -1.57190490    
 -0.758352995      -1.13495600     -0.606999993       58.4554825      -1.57190490    
  -1.04286098      -1.56075203     -0.606999993       58.4554825      -1.57190490    
  -1.32730997      -1.32730997     -0.606999993       41.7931709      -1.57076967    
  -1.83825099      -1.83825099     -0.517000020       41.7931709      -1.57076967    
  -2.16155505      -1.44430494     -0.517000020       41.7931709      -1.57076967    
  -1.56075203      -1.04286098     -0.606999993       41.7931709      -1.57076967    
  -1.56075203      -1.04286098     -0.606999993       49.2180367      -1.57216644    
  -1.13495600     -0.758352995     -0.606999993       49.2180367      -1.57216644    
 -0.965201020     -0.965201020     -0.606999993       49.2180367      -1.57216644    
  -1.32730997      -1.32730997     -0.606999993       49.2180367      -1.57216644    
  -1.56075203      -1.04286098     -0.606999993       18.6019592      -1.56983650    
  -2.16155505      -1.44430494     -0.517000020       18.6019592      -1.56983650    
  -2.40179110     -0.994853973     -0.517000020       18.6019592      -1.56983650    
  -1.73421395     -0.718334973     -0.606999993       18.6019592      -1.56983650    
  -1.73421395     -0.718334973     -0.606999993       24.0794945      -1.57305813    
  -1.26109600     -0.522363007     -0.606999993       24.0794945      -1.57305813    
  -1.13495600     -0.758352995     -0.606999993       24.0794945      -1.57305813    
  -1.56075203      -1.04286098     -0.606999993       24.0794945      -1.57305813    
  -1.73421395     -0.718334973     -0.606999993       9.28216362       1.56715870    
  -2.40179110     -0.994853973     -0.517000020       9.28216362       1.56715870    
  -2.54972792     -0.507171988     -0.517000020       9.28216362       1.56715870    
  -1.84103203     -0.366203994     -0.606999993       9.28216362       1.56715870    
  -1.84103203     -0.366203994     -0.606999993       5.93101311       1.57571983    
  -1.33877206     -0.266297996     -0.606999993       5.93101311       1.57571983    
  -1.26109600     -0.522363007     -0.606999993       5.93101311       1.57571983    
  -1.73421395     -0.718334973     -0.606999993       5.93101311       1.57571983    
  -1.84103203     -0.366203994     -0.606999993       17.7276592       1.56830800    
  -2.54972792     -0.507171988     -0.517000020       17.7276592       1.56830800    
  -2.59967995       0.00000000     -0.517000020       17.7276592       1.56830800    
  -1.87709999       0.00000000     -0.606999993       17.7276592       1.56830800    
  -1.87709999       0.00000000     -0.606999993       28.4022484       1.57059515    
  -1.36500001       0.00000000     -0.606999993       28.4022484       1.57059515    
  -1.33877206     -0.266297996     -0.606999993       28.4022484       1.57059515    
  -1.84103203     -0.366203994     -0.606999993       28.4022484       1.57059515    
  -1.87709999       0.00000000     -0.606999993       9.17153740       1.56469071    
  -2.59967995       0.00000000     -0.517000020       9.17153740       1.56469071    
  -2.54972792      0.507171988     -0.517000020       9.17153740       1.56469071    
  -1.84103203      0.366203994     -0.606999993       9.17153740       1.56469071    
  -1.84103203      0.366203994     -0.606999993       40.9858971       1.56974757    
  -1.33877206      0.266297996     -0.606999993       40.9858971       1.56974757    
  -1.36500001       0.00000000     -0.606999993       40.9858971       1.56974757    
  -1.87709999       0.00000000     -0.606999993       40.9858971       1.56974757    
  -1.84103203      0.366203994     -0.606999993       7.44473648       1.56258786    
  -2.54972792      0.507171988     -0.517000020       7.44473648       1.56258786    
  -2.40179110      0.994853973     -0.517000020       7.44473648       1.56258786    
  -1.73421395      0.718334973     -0.606999993       7.44473648       1.56258786    
  -1.73421395      0.718334973     -0.606999993       49.9396591       1.56915402    
  -1.26109600      0.522363007     -0.606999993       49.9396591       1.56915402    
  -1.33877206      0.266297996     -0.606999993       49.9396591       1.56915402    
  -1.84103203      0.366203994     -0.606999993       49.9396591       1.56915402    
  -1.73421395      0.718334973     -0.606999993       24.0092869       1.56833458    
  -2.40179110      0.994853973     -0.517000020       24.0092869       1.56833458    
  -2.16155505       1.44430494     -0.517000020       24.0092869       1.56833458    
  -1.56075203       1.04286098     -0.606999993       24.0092869       1.56833458    
  -1.56075203       1.04286098     -0.606999993       57.8499451       1.56886685    
  -1.13495600      0.758352995     -0.606999993       57.8499451       1.56886685    
  -1.26109600      0.522363007     -0.606999993       57.8499451       1.56886685    
  -1.73421395      0.718334973     -0.606999993       57.8499451       1.56886685    
  -1.56075203       1.04286098     -0.606999993       40.7077942       1.56940496    
  -2.16155505       1.44430494     -0.517000020       40.7077942       1.56940496    
  -1.83825099       1.83825099     -0.517000020       40.7077942       1.56940496    
  -1.32730997       1.32730997     -0.606999993       40.7077942       1.56940496    
  -1.32730997       1.32730997     -0.606999993       57.8006477       1.56858444    
 -0.965201020      0.965201020     -0.606999993       57.8006477       1.56858444    
  -1.13495600      0.758352995     -0.606999993       57.8006477       1.56858444    
  -1.56075203       1.04286098     -0.606999993       57.8006477       1.56858444    
  -1.32730997       1.32730997     -0.606999993       32.9350967       1.56903291    
  -1.83825099       1.83825099     -0.517000020       32.9350967       1.56903291    
  -1.44430494       2.16155505     -0.517000020       32.9350967       1.56903291    
  -1.04286098       1.56075203     -0.606999993       32.9350967       1.56903291    
  -1.04286098       1.56075203     -0.606999993       41.6076889       1.56751955    
 -0.758352995       1.13495600     -0.606999993       41.6076889       1.56751955    
 -0.965201020      0.965201020     -0.606999993       41.6076889       1.56751955    
  -1.32730997       1.32730997     -0.606999993       41.6076889       1.56751955    
  -1.04286098       1.56075203     -0.606999993       1.86779022       1.53856432    
  -1.44430494       2.16155505     -0.517000020       1.86779022       1.53856432    
 -0.994853973       2.40179110     -0.517000020       1.86779022       1.53856432    
 -0.718334973       1.73421395     -0.606999993       1.86779022       1.53856432    
 -0.718334973       1.73421395     -0.606999993       12.2097273       1.56025863    
 -0.522363007       1.26109600     -0.606999993       12.2097273       1.56025863    
 -0.758352995       1.13495600     -0.606999993       12.2097273       1.56025863    
  -1.04286098       1.56075203     -0.606999993       12.2097273       1.56025863    
 -0.718334973       1.73421395     -0.606999993       24.7398911      -1.56864166    
 -0.994853973       2.40179110     -0.517000020       24.7398911      -1.56864166    
 -0.507171988       2.54972792     -0.517000020       24.7398911      -1.56864166    
 -0.366203994       1.84103203     -0.606999993       24.7398911      -1.56864166    
 -0.366203994       1.84103203     -0.606999993       16.9988384      -1.56458724    
 -0.266297996       1.33877206     -0.606999993       16.9988384      -1.56458724    
 -0.522363007       1.26109600     -0.606999993       16.9988384      -1.56458724    
 -0.718334973       1.73421395     -0.606999993       16.9988384      -1.56458724    
 -0.366203994       1.84103203     -0.606999993       25.1343918      -1.56939149    
 -0.507171988       2.54972792     -0.517000020       25.1343918      -1.56939149    
   0.00000000       2.59967995     -0.517000020       25.1343918      -1.56939149    
   0.00000000       1.87709999     -0.606999993       25.1343918      -1.56939149    
   0.00000000       1.87709999     -0.606999993       34.7408600      -1.56877077    
   0.00000000       1.36500001     -0.606999993       34.7408600      -1.56877077    
 -0.266297996       1.33877206     -0.606999993       34.7408600      -1.56877077    
 -0.366203994       1.84103203     -0.606999993       34.7408600      -1.56877077    
   0.00000000       1.87709999     -0.606999993       9.16219807      -1.56945491    
   0.00000000       2.59967995     -0.517000020       9.16219807      -1.56945491    
  0.507171988       2.54972792     -0.517000020       9.16219807      -1.56945491    
  0.366203994       1.84103203     -0.606999993       9.16219807      -1.56945491    
  0.366203994       1.84103203     -0.606999993       42.2892570      -1.57026100    
  0.266297996       1.33877206     -0.606999993       42.2892570      -1.57026100    
   0.00000000       1.36500001     -0.606999993       42.2892570      -1.57026100    
   0.00000000       1.87709999     -0.606999993       42.2892570      -1.57026100    
  0.366203994       1.84103203     -0.606999993       4.35559464      -1.57316792    
  0.507171988       2.54972792     -0.517000020       4.35559464      -1.57316792    
  0.994853973       2.40179110     -0.517000020       4.35559464      -1.57316792    
  0.718334973       1.73421395     -0.606999993       4.35559464      -1.57316792    
  0.718334973       1.73421395     -0.606999993       48.4445953      -1.57132959    
  0.522363007       1.26109600     -0.606999993       48.4445953      -1.57132959    
  0.266297996       1.33877206     -0.606999993       48.4445953      -1.57132959    
  0.366203994       1.84103203     -0.606999993       48.4445953      -1.57132959    
  0.718334973       1.73421395     -0.606999993       21.4355774      -1.57217169    
  0.994853973       2.40179110     -0.517000020       21.4355774      -1.57217169    
   1.44430494       2.16155505     -0.517000020       21.4355774      -1.57217169    
   1.04286098       1.56075203     -0.606999993       21.4355774      -1.57217169    
   1.04286098       1.56075203     -0.606999993       56.2285042      -1.57211041    
  0.758352995       1.13495600     -0.606999993       56.2285042      -1.57211041    
  0.522363007       1.26109600     -0.606999993       56.2285042      -1.57211041    
  0.718334973       1.73421395     -0.606999993       56.2285042      -1.57211041    
   1.04286098       1.56075203     -0.606999993       40.1213074      -1.57197595    
   1.44430494       2.16155505     -0.517000020       40.1213074      -1.57197595    
   1.83825099       1.83825099     -0.517000020       40.1213074      -1.57197595    
   1.32730997       1.32730997     -0.606999993       40.1213074      -1.57197595    
   1.32730997       1.32730997     -0.606999993       57.6255264      -1.57275760    
  0.965201020      0.965201020     -0.606999993       57.6255264      -1.57275760    
  0.758352995       1.13495600     -0.606999993       57.6255264      -1.57275760    
   1.04286098       1.56075203     -0.606999993       57.6255264      -1.57275760    
   1.32730997       1.32730997     -0.606999993       34.4741325      -1.57268965    
   1.83825099       1.83825099     -0.517000020       34.4741325      -1.57268965    
   2.16155505       1.44430494     -0.517000020       34.4741325      -1.57268965    
   1.56075203       1.04286098     -0.606999993       34.4741325      -1.57268965    
   1.56075203       1.04286098     -0.606999993       43.4694176      -1.57400823    
   1.13495600      0.758352995     -0.606999993       43.4694176      -1.57400823    
  0.965201020      0.965201020     -0.606999993       43.4694176      -1.57400823    
   1.32730997       1.32730997     -0.606999993       43.4694176      -1.57400823    
   1.56075203       1.04286098     -0.606999993       5.29500198      -1.58608615    
   2.16155505       1.44430494     -0.517000020       5.29500198      -1.58608615    
   2.40179110      0.994853973     -0.517000020       5.29500198      -1.58608615    
   1.73421395      0.718334973     -0.606999993       5.29500198      -1.58608615    
   1.73421395      0.718334973     -0.606999993       15.4536943      -1.58076167    
   1.26109600      0.522363007     -0.606999993       15.4536943      -1.58076167    
   1.13495600      0.758352995     -0.606999993       15.4536943      -1.58076167    
   1.56075203       1.04286098     -0.606999993       15.4536943      -1.58076167    
   1.73421395      0.718334973     -0.606999993       20.8634529       1.57538486    
   2.40179110      0.994853973     -0.517000020       20.8634529       1.57538486    
   2.54972792      0.507171988     -0.517000020       20.8634529       1.57538486    
   1.84103203      0.366203994     -0.606999993       20.8634529       1.57538486    
   1.84103203      0.366203994     -0.606999993       13.9574070       1.58169210    
   1.33877206      0.266297996     -0.606999993       13.9574070       1.58169210    
   1.26109600      0.522363007     -0.606999993       13.9574070       1.58169210    
   1.73421395      0.718334973     -0.606999993       13.9574070       1.58169210    
   1.84103203      0.366203994     -0.606999993       24.3723869       1.57497549    
   2.54972792      0.507171988     -0.517000020       24.3723869       1.57497549    
   2.59967995       0.00000000     -0.517000020       24.3723869       1.57497549    
   1.87709999       0.00000000     -0.606999993       24.3723869       1.57497549    
   1.87709999       0.00000000     -0.606999993       34.5840759       1.57457590    
   1.36500001       0.00000000     -0.606999993       34.5840759       1.57457590    
   1.33877206      0.266297996     -0.606999993       34.5840759       1.57457590    
   1.84103203      0.366203994     -0.606999993       34.5840759       1.57457590    
   1.87709999       0.00000000     -0.606999993       15.9155855       1.57654727    
   2.59967995       0.00000000     -0.517000020       15.9155855       1.57654727    
   2.54972792     -0.507171988     -0.517000020       15.9155855       1.57654727    
   1.84103203     -0.366203994     -0.606999993       15.9155855       1.57654727    
   1.84103203     -0.366203994     -0.606999993       47.2438354       1.57277131    
   1.33877206     -0.266297996     -0.606999993       47.2438354       1.57277131    
   1.36500001       0.00000000     -0.606999993       47.2438354       1.57277131    
   1.87709999       0.00000000     -0.606999993       47.2438354       1.57277131    
   1.84103203     -0.366203994     -0.606999993       19.3446827       1.57460713    
   2.54972792     -0.507171988     -0.517000020       19.3446827       1.57460713    
   2.40179110     -0.994853973     -0.517000020       19.3446827       1.57460713    
   1.73421395     -0.718334973     -0.606999993       19.3446827       1.57460713    
   1.73421395     -0.718334973     -0.606999993       58.1416016       1.57162023    
   1.26109600     -0.522363007     -0.606999993       58.1416016       1.57162023    
   1.33877206     -0.266297996     -0.606999993       58.1416016       1.57162023    
   1.84103203     -0.366203994     -0.606999993       58.1416016       1.57162023    
   1.73421395     -0.718334973     -0.606999993       37.7820473       1.57205939    
   2.40179110     -0.994853973     -0.517000020       37.7820473       1.57205939    
   2.16155505      -1.44430494     -0.517000020       37.7820473       1.57205939    
   1.56075203      -1.04286098     -0.606999993       37.7820473       1.57205939    
   1.56075203      -1.04286098     -0.606999993       66.6168213       1.57077205    
   1.13495600     -0.758352995     -0.606999993       66.6168213       1.57077205    
   1.26109600     -0.522363007     -0.606999993       66.6168213       1.57077205    