 VARIABLES="X" "Y" "Z" "abs(p) (Pa)" "angle(p) (rad)"
ZONE N=   2709,E =    2358, F=FEPOINT, ET=QUADRILATERAL
   0.00000000      -5.48999977     -0.157000005       2333.34888      -1.51159239    
   0.00000000      -4.76741982     -0.246999994       2333.34888      -1.51159239    
  0.930077016      -4.67581606     -0.246999994       2333.34888      -1.51159239    
   1.07104599      -5.38451099     -0.157000005       2333.34888      -1.51159239    
  -1.07104599      -5.38451099     -0.157000005       2333.79590      -1.51283252    
 -0.930077016      -4.67581606     -0.246999994       2333.79590      -1.51283252    
   0.00000000      -4.76741982     -0.246999994       2333.79590      -1.51283252    
   0.00000000      -5.48999977     -0.157000005       2333.79590      -1.51283252    
  -2.10093188      -5.07209921     -0.157000005       2252.75610      -1.50854111    
  -1.82441294      -4.40452194     -0.246999994       2252.75610      -1.50854111    
 -0.930077016      -4.67581606     -0.246999994       2252.75610      -1.50854111    
  -1.07104599      -5.38451099     -0.157000005       2252.75610      -1.50854111    
  -3.05008101      -4.56476784     -0.157000005       2065.89355      -1.51228225    
  -2.64863706      -3.96396494     -0.246999994       2065.89355      -1.51228225    
  -1.82441294      -4.40452194     -0.246999994       2065.89355      -1.51228225    
  -2.10093188      -5.07209921     -0.157000005       2065.89355      -1.51228225    
  -3.88201594      -3.88201594     -0.157000005       1811.20813      -1.51329958    
  -3.37107491      -3.37107491     -0.246999994       1811.20813      -1.51329958    
  -2.64863706      -3.96396494     -0.246999994       1811.20813      -1.51329958    
  -3.05008101      -4.56476784     -0.157000005       1811.20813      -1.51329958    
  -4.56476784      -3.05008101     -0.157000005       1496.62988      -1.50703824    
  -3.96396494      -2.64863706     -0.246999994       1496.62988      -1.50703824    
  -3.37107491      -3.37107491     -0.246999994       1496.62988      -1.50703824    
  -3.88201594      -3.88201594     -0.157000005       1496.62988      -1.50703824    
  -5.07209921      -2.10093188     -0.157000005       1103.77820      -1.51487279    
  -4.40452194      -1.82441294     -0.246999994       1103.77820      -1.51487279    
  -3.96396494      -2.64863706     -0.246999994       1103.77820      -1.51487279    
  -4.56476784      -3.05008101     -0.157000005       1103.77820      -1.51487279    
  -5.38451099      -1.07104599     -0.157000005       678.875366      -1.51307046    
  -4.67581606     -0.930077016     -0.246999994       678.875366      -1.51307046    
  -4.40452194      -1.82441294     -0.246999994       678.875366      -1.51307046    
  -5.07209921      -2.10093188     -0.157000005       678.875366      -1.51307046    
  -5.48999977       0.00000000     -0.157000005       228.524918      -1.51170039    
  -4.76741982       0.00000000     -0.246999994       228.524918      -1.51170039    
  -4.67581606     -0.930077016     -0.246999994       228.524918      -1.51170039    
  -5.38451099      -1.07104599     -0.157000005       228.524918      -1.51170039    
  -5.38451099       1.07104599     -0.157000005       233.085419       1.63622975    
  -4.67581606      0.930077016     -0.246999994       233.085419       1.63622975    
  -4.76741982       0.00000000     -0.246999994       233.085419       1.63622975    
  -5.48999977       0.00000000     -0.157000005       233.085419       1.63622975    
  -5.07209921       2.10093188     -0.157000005       685.830688       1.63357186    
  -4.40452194       1.82441294     -0.246999994       685.830688       1.63357186    
  -4.67581606      0.930077016     -0.246999994       685.830688       1.63357186    
  -5.38451099       1.07104599     -0.157000005       685.830688       1.63357186    
  -4.56476784       3.05008101     -0.157000005       1111.76294       1.63357878    
  -3.96396494       2.64863706     -0.246999994       1111.76294       1.63357878    
  -4.40452194       1.82441294     -0.246999994       1111.76294       1.63357878    
  -5.07209921       2.10093188     -0.157000005       1111.76294       1.63357878    
  -3.88201594       3.88201594     -0.157000005       1488.58716       1.62914383    
  -3.37107491       3.37107491     -0.246999994       1488.58716       1.62914383    
  -3.96396494       2.64863706     -0.246999994       1488.58716       1.62914383    
  -4.56476784       3.05008101     -0.157000005       1488.58716       1.62914383    
  -3.05008101       4.56476784     -0.157000005       1821.33728       1.63345110    
  -2.64863706       3.96396494     -0.246999994       1821.33728       1.63345110    
  -3.37107491       3.37107491     -0.246999994       1821.33728       1.63345110    
  -3.88201594       3.88201594     -0.157000005       1821.33728       1.63345110    
  -2.10093188       5.07209921     -0.157000005       2068.31421       1.62881768    
  -1.82441294       4.40452194     -0.246999994       2068.31421       1.62881768    
  -2.64863706       3.96396494     -0.246999994       2068.31421       1.62881768    
  -3.05008101       4.56476784     -0.157000005       2068.31421       1.62881768    
  -1.07104599       5.38451099     -0.157000005       2253.82983       1.63342178    
 -0.930077016       4.67581606     -0.246999994       2253.82983       1.63342178    
  -1.82441294       4.40452194     -0.246999994       2253.82983       1.63342178    
  -2.10093188       5.07209921     -0.157000005       2253.82983       1.63342178    
   0.00000000       5.48999977     -0.157000005       2332.58545       1.62852204    
   0.00000000       4.76741982     -0.246999994       2332.58545       1.62852204    
 -0.930077016       4.67581606     -0.246999994       2332.58545       1.62852204    
  -1.07104599       5.38451099     -0.157000005       2332.58545       1.62852204    
   1.07104599       5.38451099     -0.157000005       2344.00708       1.63304090    
  0.930077016       4.67581606     -0.246999994       2344.00708       1.63304090    
   0.00000000       4.76741982     -0.246999994       2344.00708       1.63304090    
   0.00000000       5.48999977     -0.157000005       2344.00708       1.63304090    
   2.10093188       5.07209921     -0.157000005       2241.94727       1.62942171    
   1.82441294       4.40452194     -0.246999994       2241.94727       1.62942171    
  0.930077016       4.67581606     -0.246999994       2241.94727       1.62942171    
   1.07104599       5.38451099     -0.157000005       2241.94727       1.62942171    
   3.05008101       4.56476784     -0.157000005       2067.89893       1.62882078    
   2.64863706       3.96396494     -0.246999994       2067.89893       1.62882078    
   1.82441294       4.40452194     -0.246999994       2067.89893       1.62882078    
   2.10093188       5.07209921     -0.157000005       2067.89893       1.62882078    
   3.88201594       3.88201594     -0.157000005       1817.51379       1.63198435    
   3.37107491       3.37107491     -0.246999994       1817.51379       1.63198435    
   2.64863706       3.96396494     -0.246999994       1817.51379       1.63198435    
   3.05008101       4.56476784     -0.157000005       1817.51379       1.63198435    
   4.56476784       3.05008101     -0.157000005       1493.16064       1.63279748    
   3.96396494       2.64863706     -0.246999994       1493.16064       1.63279748    
   3.37107491       3.37107491     -0.246999994       1493.16064       1.63279748    
   3.88201594       3.88201594     -0.157000005       1493.16064       1.63279748    
   5.07209921       2.10093188     -0.157000005       1109.13965       1.63001144    
   4.40452194       1.82441294     -0.246999994       1109.13965       1.63001144    
   3.96396494       2.64863706     -0.246999994       1109.13965       1.63001144    
   4.56476784       3.05008101     -0.157000005       1109.13965       1.63001144    
   5.38451099       1.07104599     -0.157000005       677.799316       1.62898064    
   4.67581606      0.930077016     -0.246999994       677.799316       1.62898064    
   4.40452194       1.82441294     -0.246999994       677.799316       1.62898064    
   5.07209921       2.10093188     -0.157000005       677.799316       1.62898064    
   5.48999977       0.00000000     -0.157000005       229.001938       1.62489283    
   4.76741982       0.00000000     -0.246999994       229.001938       1.62489283    
   4.67581606      0.930077016     -0.246999994       229.001938       1.62489283    
   5.38451099       1.07104599     -0.157000005       229.001938       1.62489283    
   5.38451099      -1.07104599     -0.157000005       232.395065      -1.50891781    
   4.67581606     -0.930077016     -0.246999994       232.395065      -1.50891781    
   4.76741982       0.00000000     -0.246999994       232.395065      -1.50891781    
   5.48999977       0.00000000     -0.157000005       232.395065      -1.50891781    
   5.07209921      -2.10093188     -0.157000005       682.569214      -1.51062822    
   4.40452194      -1.82441294     -0.246999994       682.569214      -1.51062822    
   4.67581606     -0.930077016     -0.246999994       682.569214      -1.51062822    
   5.38451099      -1.07104599     -0.157000005       682.569214      -1.51062822    
   4.56476784      -3.05008101     -0.157000005       1106.57324      -1.51106596    
   3.96396494      -2.64863706     -0.246999994       1106.57324      -1.51106596    
   4.40452194      -1.82441294     -0.246999994       1106.57324      -1.51106596    
   5.07209921      -2.10093188     -0.157000005       1106.57324      -1.51106596    
   3.88201594      -3.88201594     -0.157000005       1489.21399      -1.51239526    
   3.37107491      -3.37107491     -0.246999994       1489.21399      -1.51239526    
   3.96396494      -2.64863706     -0.246999994       1489.21399      -1.51239526    
   4.56476784      -3.05008101     -0.157000005       1489.21399      -1.51239526    
   3.05008101      -4.56476784     -0.157000005       1821.24622      -1.50799763    
   2.64863706      -3.96396494     -0.246999994       1821.24622      -1.50799763    
   3.37107491      -3.37107491     -0.246999994       1821.24622      -1.50799763    
   3.88201594      -3.88201594     -0.157000005       1821.24622      -1.50799763    
   2.10093188      -5.07209921     -0.157000005       2068.08643      -1.51221633    
   1.82441294      -4.40452194     -0.246999994       2068.08643      -1.51221633    
   2.64863706      -3.96396494     -0.246999994       2068.08643      -1.51221633    
   3.05008101      -4.56476784     -0.157000005       2068.08643      -1.51221633    
   1.07104599      -5.38451099     -0.157000005       2245.23242      -1.51176107    
  0.930077016      -4.67581606     -0.246999994       2245.23242      -1.51176107    
   1.82441294      -4.40452194     -0.246999994       2245.23242      -1.51176107    
   2.10093188      -5.07209921     -0.157000005       2245.23242      -1.51176107    
   0.00000000      -1.87709999     -0.606999993       5283.31934       1.57663536    
   0.00000000      -1.36500001     -0.606999993       5283.31934       1.57663536    
  0.266297996      -1.33877206     -0.606999993       5283.31934       1.57663536    
  0.366203994      -1.84103203     -0.606999993       5283.31934       1.57663536    
   0.00000000      -1.87709999     -0.606999993       6501.07373       1.57378173    
   0.00000000      -2.59967995     -0.517000020       6501.07373       1.57378173    
 -0.507171988      -2.54972792     -0.517000020       6501.07373       1.57378173    
 -0.366203994      -1.84103203     -0.606999993       6501.07373       1.57378173    
 -0.366203994      -1.84103203     -0.606999993       5281.69336       1.57663178    
 -0.266297996      -1.33877206     -0.606999993       5281.69336       1.57663178    
   0.00000000      -1.36500001     -0.606999993       5281.69336       1.57663178    
   0.00000000      -1.87709999     -0.606999993       5281.69336       1.57663178    
 -0.366203994      -1.84103203     -0.606999993       6257.22998       1.57379901    
 -0.507171988      -2.54972792     -0.517000020       6257.22998       1.57379901    
 -0.994853973      -2.40179110     -0.517000020       6257.22998       1.57379901    
 -0.718334973      -1.73421395     -0.606999993       6257.22998       1.57379901    
 -0.718334973      -1.73421395     -0.606999993       5076.57666       1.57669020    
 -0.522363007      -1.26109600     -0.606999993       5076.57666       1.57669020    
 -0.266297996      -1.33877206     -0.606999993       5076.57666       1.57669020    
 -0.366203994      -1.84103203     -0.606999993       5076.57666       1.57669020    
 -0.718334973      -1.73421395     -0.606999993       5775.56787       1.57381248    
 -0.994853973      -2.40179110     -0.517000020       5775.56787       1.57381248    
  -1.44430494      -2.16155505     -0.517000020       5775.56787       1.57381248    
  -1.04286098      -1.56075203     -0.606999993       5775.56787       1.57381248    
  -1.04286098      -1.56075203     -0.606999993       4676.97949       1.57674670    
 -0.758352995      -1.13495600     -0.606999993       4676.97949       1.57674670    
 -0.522363007      -1.26109600     -0.606999993       4676.97949       1.57674670    
 -0.718334973      -1.73421395     -0.606999993       4676.97949       1.57674670    
  -1.04286098      -1.56075203     -0.606999993       5068.31104       1.57380497    
  -1.44430494      -2.16155505     -0.517000020       5068.31104       1.57380497    
  -1.83825099      -1.83825099     -0.517000020       5068.31104       1.57380497    
  -1.32730997      -1.32730997     -0.606999993       5068.31104       1.57380497    
  -1.32730997      -1.32730997     -0.606999993       4099.04102       1.57674837    
 -0.965201020     -0.965201020     -0.606999993       4099.04102       1.57674837    
 -0.758352995      -1.13495600     -0.606999993       4099.04102       1.57674837    
  -1.04286098      -1.56075203     -0.606999993       4099.04102       1.57674837    
  -1.32730997      -1.32730997     -0.606999993       4159.50537       1.57379651    
  -1.83825099      -1.83825099     -0.517000020       4159.50537       1.57379651    
  -2.16155505      -1.44430494     -0.517000020       4159.50537       1.57379651    
  -1.56075203      -1.04286098     -0.606999993       4159.50537       1.57379651    
  -1.56075203      -1.04286098     -0.606999993       3364.89551       1.57665944    
  -1.13495600     -0.758352995     -0.606999993       3364.89551       1.57665944    
 -0.965201020     -0.965201020     -0.606999993       3364.89551       1.57665944    
  -1.32730997      -1.32730997     -0.606999993       3364.89551       1.57665944    
  -1.56075203      -1.04286098     -0.606999993       3086.82935       1.57378638    
  -2.16155505      -1.44430494     -0.517000020       3086.82935       1.57378638    
  -2.40179110     -0.994853973     -0.517000020       3086.82935       1.57378638    
  -1.73421395     -0.718334973     -0.606999993       3086.82935       1.57378638    
  -1.73421395     -0.718334973     -0.606999993       2501.22949       1.57650149    
  -1.26109600     -0.522363007     -0.606999993       2501.22949       1.57650149    
  -1.13495600     -0.758352995     -0.606999993       2501.22949       1.57650149    
  -1.56075203      -1.04286098     -0.606999993       2501.22949       1.57650149    
  -1.73421395     -0.718334973     -0.606999993       1896.65698       1.57374239    
  -2.40179110     -0.994853973     -0.517000020       1896.65698       1.57374239    
  -2.54972792     -0.507171988     -0.517000020       1896.65698       1.57374239    
  -1.84103203     -0.366203994     -0.606999993       1896.65698       1.57374239    
  -1.84103203     -0.366203994     -0.606999993       1537.92310       1.57630002    
  -1.33877206     -0.266297996     -0.606999993       1537.92310       1.57630002    
  -1.26109600     -0.522363007     -0.606999993       1537.92310       1.57630002    
  -1.73421395     -0.718334973     -0.606999993       1537.92310       1.57630002    
  -1.84103203     -0.366203994     -0.606999993       639.338501       1.57347667    
  -2.54972792     -0.507171988     -0.517000020       639.338501       1.57347667    
  -2.59967995       0.00000000     -0.517000020       639.338501       1.57347667    
  -1.87709999       0.00000000     -0.606999993       639.338501       1.57347667    
  -1.87709999       0.00000000     -0.606999993       512.059326       1.57583523    
  -1.36500001       0.00000000     -0.606999993       512.059326       1.57583523    
  -1.33877206     -0.266297996     -0.606999993       512.059326       1.57583523    
  -1.84103203     -0.366203994     -0.606999993       512.059326       1.57583523    
  -1.87709999       0.00000000     -0.606999993       639.180908      -1.56732857    
  -2.59967995       0.00000000     -0.517000020       639.180908      -1.56732857    
  -2.54972792      0.507171988     -0.517000020       639.180908      -1.56732857    
  -1.84103203      0.366203994     -0.606999993       639.180908      -1.56732857    
  -1.84103203      0.366203994     -0.606999993       535.362854      -1.56462252    
  -1.33877206      0.266297996     -0.606999993       535.362854      -1.56462252    
  -1.36500001       0.00000000     -0.606999993       535.362854      -1.56462252    
  -1.87709999       0.00000000     -0.606999993       535.362854      -1.56462252    
  -1.84103203      0.366203994     -0.606999993       1896.69055      -1.56762779    
  -2.54972792      0.507171988     -0.517000020       1896.69055      -1.56762779    
  -2.40179110      0.994853973     -0.517000020       1896.69055      -1.56762779    
  -1.73421395      0.718334973     -0.606999993       1896.69055      -1.56762779    
  -1.73421395      0.718334973     -0.606999993       1562.71924      -1.56492162    
  -1.26109600      0.522363007     -0.606999993       1562.71924      -1.56492162    
  -1.33877206      0.266297996     -0.606999993       1562.71924      -1.56492162    
  -1.84103203      0.366203994     -0.606999993       1562.71924      -1.56492162    
  -1.73421395      0.718334973     -0.606999993       3086.96411      -1.56770980    
  -2.40179110      0.994853973     -0.517000020       3086.96411      -1.56770980    
  -2.16155505       1.44430494     -0.517000020       3086.96411      -1.56770980    
  -1.56075203       1.04286098     -0.606999993       3086.96411      -1.56770980    
  -1.56075203       1.04286098     -0.606999993       2527.82373      -1.56487584    
  -1.13495600      0.758352995     -0.606999993       2527.82373      -1.56487584    
  -1.26109600      0.522363007     -0.606999993       2527.82373      -1.56487584    
  -1.73421395      0.718334973     -0.606999993       2527.82373      -1.56487584    
  -1.56075203       1.04286098     -0.606999993       4158.53809      -1.56774521    
  -2.16155505       1.44430494     -0.517000020       4158.53809      -1.56774521    
  -1.83825099       1.83825099     -0.517000020       4158.53809      -1.56774521    
  -1.32730997       1.32730997     -0.606999993       4158.53809      -1.56774521    
  -1.32730997       1.32730997     -0.606999993       3390.57764      -1.56478560    
 -0.965201020      0.965201020     -0.606999993       3390.57764      -1.56478560    
  -1.13495600      0.758352995     -0.606999993       3390.57764      -1.56478560    
  -1.56075203       1.04286098     -0.606999993       3390.57764      -1.56478560    
  -1.32730997       1.32730997     -0.606999993       5063.55518      -1.56774068    
  -1.83825099       1.83825099     -0.517000020       5063.55518      -1.56774068    
  -1.44430494       2.16155505     -0.517000020       5063.55518      -1.56774068    
  -1.04286098       1.56075203     -0.606999993       5063.55518      -1.56774068    
  -1.04286098       1.56075203     -0.606999993       4117.85010      -1.56472802    
 -0.758352995       1.13495600     -0.606999993       4117.85010      -1.56472802    
 -0.965201020      0.965201020     -0.606999993       4117.85010      -1.56472802    
  -1.32730997       1.32730997     -0.606999993       4117.85010      -1.56472802    
  -1.04286098       1.56075203     -0.606999993       5766.56006      -1.56772470    
  -1.44430494       2.16155505     -0.517000020       5766.56006      -1.56772470    
 -0.994853973       2.40179110     -0.517000020       5766.56006      -1.56772470    
 -0.718334973       1.73421395     -0.606999993       5766.56006      -1.56772470    
 -0.718334973       1.73421395     -0.606999993       4685.23389      -1.56474948    
 -0.522363007       1.26109600     -0.606999993       4685.23389      -1.56474948    
 -0.758352995       1.13495600     -0.606999993       4685.23389      -1.56474948    
  -1.04286098       1.56075203     -0.606999993       4685.23389      -1.56474948    
 -0.718334973       1.73421395     -0.606999993       6245.94971      -1.56772113    
 -0.994853973       2.40179110     -0.517000020       6245.94971      -1.56772113    
 -0.507171988       2.54972792     -0.517000020       6245.94971      -1.56772113    
 -0.366203994       1.84103203     -0.606999993       6245.94971      -1.56772113    
 -0.366203994       1.84103203     -0.606999993       5075.02881      -1.56482852    
 -0.266297996       1.33877206     -0.606999993       5075.02881      -1.56482852    
 -0.522363007       1.26109600     -0.606999993       5075.02881      -1.56482852    
 -0.718334973       1.73421395     -0.606999993       5075.02881      -1.56482852    
 -0.366203994       1.84103203     -0.606999993       6489.92090      -1.56773925    
 -0.507171988       2.54972792     -0.517000020       6489.92090      -1.56773925    
   0.00000000       2.59967995     -0.517000020       6489.92090      -1.56773925    
   0.00000000       1.87709999     -0.606999993       6489.92090      -1.56773925    
   0.00000000       1.87709999     -0.606999993       5273.75977      -1.56491232    
   0.00000000       1.36500001     -0.606999993       5273.75977      -1.56491232    
 -0.266297996       1.33877206     -0.606999993       5273.75977      -1.56491232    
 -0.366203994       1.84103203     -0.606999993       5273.75977      -1.56491232    
   0.00000000       1.87709999     -0.606999993       6490.74268      -1.56776905    
   0.00000000       2.59967995     -0.517000020       6490.74268      -1.56776905    
  0.507171988       2.54972792     -0.517000020       6490.74268      -1.56776905    
  0.366203994       1.84103203     -0.606999993       6490.74268      -1.56776905    
  0.366203994       1.84103203     -0.606999993       5271.76611      -1.56493402    
  0.266297996       1.33877206     -0.606999993       5271.76611      -1.56493402    
   0.00000000       1.36500001     -0.606999993       5271.76611      -1.56493402    
   0.00000000       1.87709999     -0.606999993       5271.76611      -1.56493402    
  0.366203994       1.84103203     -0.606999993       6247.44287      -1.56778407    
  0.507171988       2.54972792     -0.517000020       6247.44287      -1.56778407    
  0.994853973       2.40179110     -0.517000020       6247.44287      -1.56778407    
  0.718334973       1.73421395     -0.606999993       6247.44287      -1.56778407    
  0.718334973       1.73421395     -0.606999993       5068.20459      -1.56489277    
  0.522363007       1.26109600     -0.606999993       5068.20459      -1.56489277    
  0.266297996       1.33877206     -0.606999993       5068.20459      -1.56489277    
  0.366203994       1.84103203     -0.606999993       5068.20459      -1.56489277    
  0.718334973       1.73421395     -0.606999993       5766.50537      -1.56778622    
  0.994853973       2.40179110     -0.517000020       5766.50537      -1.56778622    
   1.44430494       2.16155505     -0.517000020       5766.50537      -1.56778622    
   1.04286098       1.56075203     -0.606999993       5766.50537      -1.56778622    
   1.04286098       1.56075203     -0.606999993       4670.81055      -1.56483877    
  0.758352995       1.13495600     -0.606999993       4670.81055      -1.56483877    
  0.522363007       1.26109600     -0.606999993       4670.81055      -1.56483877    
  0.718334973       1.73421395     -0.606999993       4670.81055      -1.56483877    
   1.04286098       1.56075203     -0.606999993       5058.92822      -1.56776261    
   1.44430494       2.16155505     -0.517000020       5058.92822      -1.56776261    
   1.83825099       1.83825099     -0.517000020       5058.92822      -1.56776261    
   1.32730997       1.32730997     -0.606999993       5058.92822      -1.56776261    
   1.32730997       1.32730997     -0.606999993       4093.62988      -1.56483889    
  0.965201020      0.965201020     -0.606999993       4093.62988      -1.56483889    
  0.758352995       1.13495600     -0.606999993       4093.62988      -1.56483889    
   1.04286098       1.56075203     -0.606999993       4093.62988      -1.56483889    
   1.32730997       1.32730997     -0.606999993       4148.96680      -1.56773746    
   1.83825099       1.83825099     -0.517000020       4148.96680      -1.56773746    
   2.16155505       1.44430494     -0.517000020       4148.96680      -1.56773746    
   1.56075203       1.04286098     -0.606999993       4148.96680      -1.56773746    
   1.56075203       1.04286098     -0.606999993       3356.23950      -1.56491601    
   1.13495600      0.758352995     -0.606999993       3356.23950      -1.56491601    
  0.965201020      0.965201020     -0.606999993       3356.23950      -1.56491601    
   1.32730997       1.32730997     -0.606999993       3356.23950      -1.56491601    
   1.56075203       1.04286098     -0.606999993       3074.84912      -1.56772077    
   2.16155505       1.44430494     -0.517000020       3074.84912      -1.56772077    
   2.40179110      0.994853973     -0.517000020       3074.84912      -1.56772077    
   1.73421395      0.718334973     -0.606999993       3074.84912      -1.56772077    
   1.73421395      0.718334973     -0.606999993       2487.45850      -1.56506407    
   1.26109600      0.522363007     -0.606999993       2487.45850      -1.56506407    
   1.13495600      0.758352995     -0.606999993       2487.45850      -1.56506407    
   1.56075203       1.04286098     -0.606999993       2487.45850      -1.56506407    
   1.73421395      0.718334973     -0.606999993       1885.05164      -1.56774437    
   2.40179110      0.994853973     -0.517000020       1885.05164      -1.56774437    
   2.54972792      0.507171988     -0.517000020       1885.05164      -1.56774437    
   1.84103203      0.366203994     -0.606999993       1885.05164      -1.56774437    
   1.84103203      0.366203994     -0.606999993       1522.28271      -1.56526303    
   1.33877206      0.266297996     -0.606999993       1522.28271      -1.56526303    
   1.26109600      0.522363007     -0.606999993       1522.28271      -1.56526303    
   1.73421395      0.718334973     -0.606999993       1522.28271      -1.56526303    
   1.84103203      0.366203994     -0.606999993       630.233826      -1.56790507    
   2.54972792      0.507171988     -0.517000020       630.233826      -1.56790507    
   2.59967995       0.00000000     -0.517000020       630.233826      -1.56790507    
   1.87709999       0.00000000     -0.606999993       630.233826      -1.56790507    
   1.87709999       0.00000000     -0.606999993       498.058289      -1.56575036    
   1.36500001       0.00000000     -0.606999993       498.058289      -1.56575036    
   1.33877206      0.266297996     -0.606999993       498.058289      -1.56575036    
   1.84103203      0.366203994     -0.606999993       498.058289      -1.56575036    
   1.87709999       0.00000000     -0.606999993       645.394836       1.57410204    
   2.59967995       0.00000000     -0.517000020       645.394836       1.57410204    
   2.54972792     -0.507171988     -0.517000020       645.394836       1.57410204    
   1.84103203     -0.366203994     -0.606999993       645.394836       1.57410204    
   1.84103203     -0.366203994     -0.606999993       545.908325       1.57700181    
   1.33877206     -0.266297996     -0.606999993       545.908325       1.57700181    
   1.36500001       0.00000000     -0.606999993       545.908325       1.57700181    
   1.87709999       0.00000000     -0.606999993       545.908325       1.57700181    
   1.84103203     -0.366203994     -0.606999993       1901.69836       1.57392907    
   2.54972792     -0.507171988     -0.517000020       1901.69836       1.57392907    
   2.40179110     -0.994853973     -0.517000020       1901.69836       1.57392907    
   1.73421395     -0.718334973     -0.606999993       1901.69836       1.57392907    
   1.73421395     -0.718334973     -0.606999993       1568.91809       1.57670653    
   1.26109600     -0.522363007     -0.606999993       1568.91809       1.57670653    
   1.33877206     -0.266297996     -0.606999993       1568.91809       1.57670653    
   1.84103203     -0.366203994     -0.606999993       1568.91809       1.57670653    
   1.73421395     -0.718334973     -0.606999993       3091.86475       1.57385635    
   2.40179110     -0.994853973     -0.517000020       3091.86475       1.57385635    
   2.16155505      -1.44430494     -0.517000020       3091.86475       1.57385635    
   1.56075203      -1.04286098     -0.606999993       3091.86475       1.57385635    
   1.56075203      -1.04286098     -0.606999993       2530.30273       1.57672751    
   1.13495600     -0.758352995     -0.606999993       2530.30273       1.57672751    
   1.26109600     -0.522363007     -0.606999993       2530.30273       1.57672751    