 VARIABLES="X" "Y" "Z" "abs(p) (Pa)" "angle(p) (rad)"
ZONE N=   2709,E =    2358, F=FEPOINT, ET=QUADRILATERAL
   0.00000000      -5.48999977     -0.157000005       3.20670867       1.53798473    
   0.00000000      -4.76741982     -0.246999994       3.20670867       1.53798473    
  0.930077016      -4.67581606     -0.246999994       3.20670867       1.53798473    
   1.07104599      -5.38451099     -0.157000005       3.20670867       1.53798473    
  -1.07104599      -5.38451099     -0.157000005       3.25549364       1.54943419    
 -0.930077016      -4.67581606     -0.246999994       3.25549364       1.54943419    
   0.00000000      -4.76741982     -0.246999994       3.25549364       1.54943419    
   0.00000000      -5.48999977     -0.157000005       3.25549364       1.54943419    
  -2.10093188      -5.07209921     -0.157000005       5.62791967       1.56150031    
  -1.82441294      -4.40452194     -0.246999994       5.62791967       1.56150031    
 -0.930077016      -4.67581606     -0.246999994       5.62791967       1.56150031    
  -1.07104599      -5.38451099     -0.157000005       5.62791967       1.56150031    
  -3.05008101      -4.56476784     -0.157000005       3.36249518       1.53053737    
  -2.64863706      -3.96396494     -0.246999994       3.36249518       1.53053737    
  -1.82441294      -4.40452194     -0.246999994       3.36249518       1.53053737    
  -2.10093188      -5.07209921     -0.157000005       3.36249518       1.53053737    
  -3.88201594      -3.88201594     -0.157000005       2.86616206       1.58519518    
  -3.37107491      -3.37107491     -0.246999994       2.86616206       1.58519518    
  -2.64863706      -3.96396494     -0.246999994       2.86616206       1.58519518    
  -3.05008101      -4.56476784     -0.157000005       2.86616206       1.58519518    
  -4.56476784      -3.05008101     -0.157000005      0.881014943      -1.53648806    
  -3.96396494      -2.64863706     -0.246999994      0.881014943      -1.53648806    
  -3.37107491      -3.37107491     -0.246999994      0.881014943      -1.53648806    
  -3.88201594      -3.88201594     -0.157000005      0.881014943      -1.53648806    
  -5.07209921      -2.10093188     -0.157000005       3.36582017       1.52200472    
  -4.40452194      -1.82441294     -0.246999994       3.36582017       1.52200472    
  -3.96396494      -2.64863706     -0.246999994       3.36582017       1.52200472    
  -4.56476784      -3.05008101     -0.157000005       3.36582017       1.52200472    
  -5.38451099      -1.07104599     -0.157000005       3.39847207       1.52638221    
  -4.67581606     -0.930077016     -0.246999994       3.39847207       1.52638221    
  -4.40452194      -1.82441294     -0.246999994       3.39847207       1.52638221    
  -5.07209921      -2.10093188     -0.157000005       3.39847207       1.52638221    
  -5.48999977       0.00000000     -0.157000005       5.91753912       1.56171536    
  -4.76741982       0.00000000     -0.246999994       5.91753912       1.56171536    
  -4.67581606     -0.930077016     -0.246999994       5.91753912       1.56171536    
  -5.38451099      -1.07104599     -0.157000005       5.91753912       1.56171536    
  -5.38451099       1.07104599     -0.157000005       6.01987648       1.56304324    
  -4.67581606      0.930077016     -0.246999994       6.01987648       1.56304324    
  -4.76741982       0.00000000     -0.246999994       6.01987648       1.56304324    
  -5.48999977       0.00000000     -0.157000005       6.01987648       1.56304324    
  -5.07209921       2.10093188     -0.157000005       6.08096838       1.55058718    
  -4.40452194       1.82441294     -0.246999994       6.08096838       1.55058718    
  -4.67581606      0.930077016     -0.246999994       6.08096838       1.55058718    
  -5.38451099       1.07104599     -0.157000005       6.08096838       1.55058718    
  -4.56476784       3.05008101     -0.157000005       6.05634165       1.56071830    
  -3.96396494       2.64863706     -0.246999994       6.05634165       1.56071830    
  -4.40452194       1.82441294     -0.246999994       6.05634165       1.56071830    
  -5.07209921       2.10093188     -0.157000005       6.05634165       1.56071830    
  -3.88201594       3.88201594     -0.157000005       3.58047938       1.53476346    
  -3.37107491       3.37107491     -0.246999994       3.58047938       1.53476346    
  -3.96396494       2.64863706     -0.246999994       3.58047938       1.53476346    
  -4.56476784       3.05008101     -0.157000005       3.58047938       1.53476346    
  -3.05008101       4.56476784     -0.157000005       5.77939558       1.55512631    
  -2.64863706       3.96396494     -0.246999994       5.77939558       1.55512631    
  -3.37107491       3.37107491     -0.246999994       5.77939558       1.55512631    
  -3.88201594       3.88201594     -0.157000005       5.77939558       1.55512631    
  -2.10093188       5.07209921     -0.157000005       3.53924894       1.54328167    
  -1.82441294       4.40452194     -0.246999994       3.53924894       1.54328167    
  -2.64863706       3.96396494     -0.246999994       3.53924894       1.54328167    
  -3.05008101       4.56476784     -0.157000005       3.53924894       1.54328167    
  -1.07104599       5.38451099     -0.157000005       5.73711300       1.55765378    
 -0.930077016       4.67581606     -0.246999994       5.73711300       1.55765378    
  -1.82441294       4.40452194     -0.246999994       5.73711300       1.55765378    
  -2.10093188       5.07209921     -0.157000005       5.73711300       1.55765378    
   0.00000000       5.48999977     -0.157000005       3.57142687       1.53932285    
   0.00000000       4.76741982     -0.246999994       3.57142687       1.53932285    
 -0.930077016       4.67581606     -0.246999994       3.57142687       1.53932285    
  -1.07104599       5.38451099     -0.157000005       3.57142687       1.53932285    
   1.07104599       5.38451099     -0.157000005       5.77663469       1.55913794    
  0.930077016       4.67581606     -0.246999994       5.77663469       1.55913794    
   0.00000000       4.76741982     -0.246999994       5.77663469       1.55913794    
   0.00000000       5.48999977     -0.157000005       5.77663469       1.55913794    
   2.10093188       5.07209921     -0.157000005       3.48749042       1.54043591    
   1.82441294       4.40452194     -0.246999994       3.48749042       1.54043591    
  0.930077016       4.67581606     -0.246999994       3.48749042       1.54043591    
   1.07104599       5.38451099     -0.157000005       3.48749042       1.54043591    
   3.05008101       4.56476784     -0.157000005       3.32781243       1.54101229    
   2.64863706       3.96396494     -0.246999994       3.32781243       1.54101229    
   1.82441294       4.40452194     -0.246999994       3.32781243       1.54101229    
   2.10093188       5.07209921     -0.157000005       3.32781243       1.54101229    
   3.88201594       3.88201594     -0.157000005       5.71161032       1.55835092    
   3.37107491       3.37107491     -0.246999994       5.71161032       1.55835092    
   2.64863706       3.96396494     -0.246999994       5.71161032       1.55835092    
   3.05008101       4.56476784     -0.157000005       5.71161032       1.55835092    
   4.56476784       3.05008101     -0.157000005       3.92128038       1.54296863    
   3.96396494       2.64863706     -0.246999994       3.92128038       1.54296863    
   3.37107491       3.37107491     -0.246999994       3.92128038       1.54296863    
   3.88201594       3.88201594     -0.157000005       3.92128038       1.54296863    
   5.07209921       2.10093188     -0.157000005       6.24570036       1.55888653    
   4.40452194       1.82441294     -0.246999994       6.24570036       1.55888653    
   3.96396494       2.64863706     -0.246999994       6.24570036       1.55888653    
   4.56476784       3.05008101     -0.157000005       6.24570036       1.55888653    
   5.38451099       1.07104599     -0.157000005       3.53867793       1.53198385    
   4.67581606      0.930077016     -0.246999994       3.53867793       1.53198385    
   4.40452194       1.82441294     -0.246999994       3.53867793       1.53198385    
   5.07209921       2.10093188     -0.157000005       3.53867793       1.53198385    
   5.48999977       0.00000000     -0.157000005       3.22981477       1.55610168    
   4.76741982       0.00000000     -0.246999994       3.22981477       1.55610168    
   4.67581606      0.930077016     -0.246999994       3.22981477       1.55610168    
   5.38451099       1.07104599     -0.157000005       3.22981477       1.55610168    
   5.38451099      -1.07104599     -0.157000005       3.17527914       1.54285979    
   4.67581606     -0.930077016     -0.246999994       3.17527914       1.54285979    
   4.76741982       0.00000000     -0.246999994       3.17527914       1.54285979    
   5.48999977       0.00000000     -0.157000005       3.17527914       1.54285979    
   5.07209921      -2.10093188     -0.157000005       3.21936035       1.53730631    
   4.40452194      -1.82441294     -0.246999994       3.21936035       1.53730631    
   4.67581606     -0.930077016     -0.246999994       3.21936035       1.53730631    
   5.38451099      -1.07104599     -0.157000005       3.21936035       1.53730631    
   4.56476784      -3.05008101     -0.157000005       3.18965960       1.55269372    
   3.96396494      -2.64863706     -0.246999994       3.18965960       1.55269372    
   4.40452194      -1.82441294     -0.246999994       3.18965960       1.55269372    
   5.07209921      -2.10093188     -0.157000005       3.18965960       1.55269372    
   3.88201594      -3.88201594     -0.157000005       3.27989030       1.54287970    
   3.37107491      -3.37107491     -0.246999994       3.27989030       1.54287970    
   3.96396494      -2.64863706     -0.246999994       3.27989030       1.54287970    
   4.56476784      -3.05008101     -0.157000005       3.27989030       1.54287970    
   3.05008101      -4.56476784     -0.157000005       5.70706940       1.56054914    
   2.64863706      -3.96396494     -0.246999994       5.70706940       1.56054914    
   3.37107491      -3.37107491     -0.246999994       5.70706940       1.56054914    
   3.88201594      -3.88201594     -0.157000005       5.70706940       1.56054914    
   2.10093188      -5.07209921     -0.157000005       3.42342424       1.54706299    
   1.82441294      -4.40452194     -0.246999994       3.42342424       1.54706299    
   2.64863706      -3.96396494     -0.246999994       3.42342424       1.54706299    
   3.05008101      -4.56476784     -0.157000005       3.42342424       1.54706299    
   1.07104599      -5.38451099     -0.157000005       3.22706890       1.54691875    
  0.930077016      -4.67581606     -0.246999994       3.22706890       1.54691875    
   1.82441294      -4.40452194     -0.246999994       3.22706890       1.54691875    
   2.10093188      -5.07209921     -0.157000005       3.22706890       1.54691875    
   0.00000000      -1.87709999     -0.606999993       3.11474013      -1.56998181    
   0.00000000      -1.36500001     -0.606999993       3.11474013      -1.56998181    
  0.266297996      -1.33877206     -0.606999993       3.11474013      -1.56998181    
  0.366203994      -1.84103203     -0.606999993       3.11474013      -1.56998181    
   0.00000000      -1.87709999     -0.606999993      0.286966145      -1.56942332    
   0.00000000      -2.59967995     -0.517000020      0.286966145      -1.56942332    
 -0.507171988      -2.54972792     -0.517000020      0.286966145      -1.56942332    
 -0.366203994      -1.84103203     -0.606999993      0.286966145      -1.56942332    
 -0.366203994      -1.84103203     -0.606999993       3.09049749      -1.56986976    
 -0.266297996      -1.33877206     -0.606999993       3.09049749      -1.56986976    
   0.00000000      -1.36500001     -0.606999993       3.09049749      -1.56986976    
   0.00000000      -1.87709999     -0.606999993       3.09049749      -1.56986976    
 -0.366203994      -1.84103203     -0.606999993      0.272122741      -1.56976926    
 -0.507171988      -2.54972792     -0.517000020      0.272122741      -1.56976926    
 -0.994853973      -2.40179110     -0.517000020      0.272122741      -1.56976926    
 -0.718334973      -1.73421395     -0.606999993      0.272122741      -1.56976926    
 -0.718334973      -1.73421395     -0.606999993       3.05989695      -1.56992292    
 -0.522363007      -1.26109600     -0.606999993       3.05989695      -1.56992292    
 -0.266297996      -1.33877206     -0.606999993       3.05989695      -1.56992292    
 -0.366203994      -1.84103203     -0.606999993       3.05989695      -1.56992292    
 -0.718334973      -1.73421395     -0.606999993      0.261294514      -1.56915736    
 -0.994853973      -2.40179110     -0.517000020      0.261294514      -1.56915736    
  -1.44430494      -2.16155505     -0.517000020      0.261294514      -1.56915736    
  -1.04286098      -1.56075203     -0.606999993      0.261294514      -1.56915736    
  -1.04286098      -1.56075203     -0.606999993       3.03687906      -1.56999159    
 -0.758352995      -1.13495600     -0.606999993       3.03687906      -1.56999159    
 -0.522363007      -1.26109600     -0.606999993       3.03687906      -1.56999159    
 -0.718334973      -1.73421395     -0.606999993       3.03687906      -1.56999159    
  -1.04286098      -1.56075203     -0.606999993      0.255827636      -1.56962585    
  -1.44430494      -2.16155505     -0.517000020      0.255827636      -1.56962585    
  -1.83825099      -1.83825099     -0.517000020      0.255827636      -1.56962585    
  -1.32730997      -1.32730997     -0.606999993      0.255827636      -1.56962585    
  -1.32730997      -1.32730997     -0.606999993       3.02580667      -1.56994736    
 -0.965201020     -0.965201020     -0.606999993       3.02580667      -1.56994736    
 -0.758352995      -1.13495600     -0.606999993       3.02580667      -1.56994736    
  -1.04286098      -1.56075203     -0.606999993       3.02580667      -1.56994736    
  -1.32730997      -1.32730997     -0.606999993      0.253984213      -1.56977344    
  -1.83825099      -1.83825099     -0.517000020      0.253984213      -1.56977344    
  -2.16155505      -1.44430494     -0.517000020      0.253984213      -1.56977344    
  -1.56075203      -1.04286098     -0.606999993      0.253984213      -1.56977344    
  -1.56075203      -1.04286098     -0.606999993       3.02037811      -1.56987822    
  -1.13495600     -0.758352995     -0.606999993       3.02037811      -1.56987822    
 -0.965201020     -0.965201020     -0.606999993       3.02037811      -1.56987822    
  -1.32730997      -1.32730997     -0.606999993       3.02037811      -1.56987822    
  -1.56075203      -1.04286098     -0.606999993      0.247448996      -1.56990337    
  -2.16155505      -1.44430494     -0.517000020      0.247448996      -1.56990337    
  -2.40179110     -0.994853973     -0.517000020      0.247448996      -1.56990337    
  -1.73421395     -0.718334973     -0.606999993      0.247448996      -1.56990337    
  -1.73421395     -0.718334973     -0.606999993       3.00108099      -1.56988215    
  -1.26109600     -0.522363007     -0.606999993       3.00108099      -1.56988215    
  -1.13495600     -0.758352995     -0.606999993       3.00108099      -1.56988215    
  -1.56075203      -1.04286098     -0.606999993       3.00108099      -1.56988215    
  -1.73421395     -0.718334973     -0.606999993      0.241359875      -1.57135689    
  -2.40179110     -0.994853973     -0.517000020      0.241359875      -1.57135689    
  -2.54972792     -0.507171988     -0.517000020      0.241359875      -1.57135689    
  -1.84103203     -0.366203994     -0.606999993      0.241359875      -1.57135689    
  -1.84103203     -0.366203994     -0.606999993       2.98809266      -1.56982052    
  -1.33877206     -0.266297996     -0.606999993       2.98809266      -1.56982052    
  -1.26109600     -0.522363007     -0.606999993       2.98809266      -1.56982052    
  -1.73421395     -0.718334973     -0.606999993       2.98809266      -1.56982052    
  -1.84103203     -0.366203994     -0.606999993      0.241797715      -1.57154357    
  -2.54972792     -0.507171988     -0.517000020      0.241797715      -1.57154357    
  -2.59967995       0.00000000     -0.517000020      0.241797715      -1.57154357    
  -1.87709999       0.00000000     -0.606999993      0.241797715      -1.57154357    
  -1.87709999       0.00000000     -0.606999993       2.99442816      -1.56975079    
  -1.36500001       0.00000000     -0.606999993       2.99442816      -1.56975079    
  -1.33877206     -0.266297996     -0.606999993       2.99442816      -1.56975079    
  -1.84103203     -0.366203994     -0.606999993       2.99442816      -1.56975079    
  -1.87709999       0.00000000     -0.606999993      0.253066957      -1.57118309    
  -2.59967995       0.00000000     -0.517000020      0.253066957      -1.57118309    
  -2.54972792      0.507171988     -0.517000020      0.253066957      -1.57118309    
  -1.84103203      0.366203994     -0.606999993      0.253066957      -1.57118309    
  -1.84103203      0.366203994     -0.606999993       3.02119780      -1.56970155    
  -1.33877206      0.266297996     -0.606999993       3.02119780      -1.56970155    
  -1.36500001       0.00000000     -0.606999993       3.02119780      -1.56970155    
  -1.87709999       0.00000000     -0.606999993       3.02119780      -1.56970155    
  -1.84103203      0.366203994     -0.606999993      0.272336513      -1.57175815    
  -2.54972792      0.507171988     -0.517000020      0.272336513      -1.57175815    
  -2.40179110      0.994853973     -0.517000020      0.272336513      -1.57175815    
  -1.73421395      0.718334973     -0.606999993      0.272336513      -1.57175815    
  -1.73421395      0.718334973     -0.606999993       3.05901742      -1.56976223    
  -1.26109600      0.522363007     -0.606999993       3.05901742      -1.56976223    
  -1.33877206      0.266297996     -0.606999993       3.05901742      -1.56976223    
  -1.84103203      0.366203994     -0.606999993       3.05901742      -1.56976223    
  -1.73421395      0.718334973     -0.606999993      0.292078733      -1.57181466    
  -2.40179110      0.994853973     -0.517000020      0.292078733      -1.57181466    
  -2.16155505       1.44430494     -0.517000020      0.292078733      -1.57181466    
  -1.56075203       1.04286098     -0.606999993      0.292078733      -1.57181466    
  -1.56075203       1.04286098     -0.606999993       3.09582138      -1.56982124    
  -1.13495600      0.758352995     -0.606999993       3.09582138      -1.56982124    
  -1.26109600      0.522363007     -0.606999993       3.09582138      -1.56982124    
  -1.73421395      0.718334973     -0.606999993       3.09582138      -1.56982124    
  -1.56075203       1.04286098     -0.606999993      0.303195149      -1.57119954    
  -2.16155505       1.44430494     -0.517000020      0.303195149      -1.57119954    
  -1.83825099       1.83825099     -0.517000020      0.303195149      -1.57119954    
  -1.32730997       1.32730997     -0.606999993      0.303195149      -1.57119954    
  -1.32730997       1.32730997     -0.606999993       3.12033319      -1.56979573    
 -0.965201020      0.965201020     -0.606999993       3.12033319      -1.56979573    
  -1.13495600      0.758352995     -0.606999993       3.12033319      -1.56979573    
  -1.56075203       1.04286098     -0.606999993       3.12033319      -1.56979573    
  -1.32730997       1.32730997     -0.606999993      0.305222958      -1.57167852    
  -1.83825099       1.83825099     -0.517000020      0.305222958      -1.57167852    
  -1.44430494       2.16155505     -0.517000020      0.305222958      -1.57167852    
  -1.04286098       1.56075203     -0.606999993      0.305222958      -1.57167852    
  -1.04286098       1.56075203     -0.606999993       3.12564206      -1.56984007    
 -0.758352995       1.13495600     -0.606999993       3.12564206      -1.56984007    
 -0.965201020      0.965201020     -0.606999993       3.12564206      -1.56984007    
  -1.32730997       1.32730997     -0.606999993       3.12564206      -1.56984007    
  -1.04286098       1.56075203     -0.606999993      0.298055381      -1.57191002    
  -1.44430494       2.16155505     -0.517000020      0.298055381      -1.57191002    
 -0.994853973       2.40179110     -0.517000020      0.298055381      -1.57191002    
 -0.718334973       1.73421395     -0.606999993      0.298055381      -1.57191002    
 -0.718334973       1.73421395     -0.606999993       3.11259079      -1.56986117    
 -0.522363007       1.26109600     -0.606999993       3.11259079      -1.56986117    
 -0.758352995       1.13495600     -0.606999993       3.11259079      -1.56986117    
  -1.04286098       1.56075203     -0.606999993       3.11259079      -1.56986117    
 -0.718334973       1.73421395     -0.606999993      0.286185980      -1.57060158    
 -0.994853973       2.40179110     -0.517000020      0.286185980      -1.57060158    
 -0.507171988       2.54972792     -0.517000020      0.286185980      -1.57060158    
 -0.366203994       1.84103203     -0.606999993      0.286185980      -1.57060158    
 -0.366203994       1.84103203     -0.606999993       3.08257365      -1.56974518    
 -0.266297996       1.33877206     -0.606999993       3.08257365      -1.56974518    
 -0.522363007       1.26109600     -0.606999993       3.08257365      -1.56974518    
 -0.718334973       1.73421395     -0.606999993       3.08257365      -1.56974518    
 -0.366203994       1.84103203     -0.606999993      0.271761954      -1.56988966    
 -0.507171988       2.54972792     -0.517000020      0.271761954      -1.56988966    
   0.00000000       2.59967995     -0.517000020      0.271761954      -1.56988966    
   0.00000000       1.87709999     -0.606999993      0.271761954      -1.56988966    
   0.00000000       1.87709999     -0.606999993       3.04598737      -1.56967831    
   0.00000000       1.36500001     -0.606999993       3.04598737      -1.56967831    
 -0.266297996       1.33877206     -0.606999993       3.04598737      -1.56967831    
 -0.366203994       1.84103203     -0.606999993       3.04598737      -1.56967831    
   0.00000000       1.87709999     -0.606999993      0.253845632      -1.57021487    
   0.00000000       2.59967995     -0.517000020      0.253845632      -1.57021487    
  0.507171988       2.54972792     -0.517000020      0.253845632      -1.57021487    
  0.366203994       1.84103203     -0.606999993      0.253845632      -1.57021487    
  0.366203994       1.84103203     -0.606999993       3.00607610      -1.56963611    
  0.266297996       1.33877206     -0.606999993       3.00607610      -1.56963611    
   0.00000000       1.36500001     -0.606999993       3.00607610      -1.56963611    
   0.00000000       1.87709999     -0.606999993       3.00607610      -1.56963611    
  0.366203994       1.84103203     -0.606999993      0.239486322      -1.57045460    
  0.507171988       2.54972792     -0.517000020      0.239486322      -1.57045460    
  0.994853973       2.40179110     -0.517000020      0.239486322      -1.57045460    
  0.718334973       1.73421395     -0.606999993      0.239486322      -1.57045460    
  0.718334973       1.73421395     -0.606999993       2.97668600      -1.56959748    
  0.522363007       1.26109600     -0.606999993       2.97668600      -1.56959748    
  0.266297996       1.33877206     -0.606999993       2.97668600      -1.56959748    
  0.366203994       1.84103203     -0.606999993       2.97668600      -1.56959748    
  0.718334973       1.73421395     -0.606999993      0.235726848      -1.57042897    
  0.994853973       2.40179110     -0.517000020      0.235726848      -1.57042897    
   1.44430494       2.16155505     -0.517000020      0.235726848      -1.57042897    
   1.04286098       1.56075203     -0.606999993      0.235726848      -1.57042897    
   1.04286098       1.56075203     -0.606999993       2.97226477      -1.56965899    
  0.758352995       1.13495600     -0.606999993       2.97226477      -1.56965899    
  0.522363007       1.26109600     -0.606999993       2.97226477      -1.56965899    
  0.718334973       1.73421395     -0.606999993       2.97226477      -1.56965899    
   1.04286098       1.56075203     -0.606999993      0.244036227      -1.57073128    
   1.44430494       2.16155505     -0.517000020      0.244036227      -1.57073128    
   1.83825099       1.83825099     -0.517000020      0.244036227      -1.57073128    
   1.32730997       1.32730997     -0.606999993      0.244036227      -1.57073128    
   1.32730997       1.32730997     -0.606999993       2.99358177      -1.56967390    
  0.965201020      0.965201020     -0.606999993       2.99358177      -1.56967390    
  0.758352995       1.13495600     -0.606999993       2.99358177      -1.56967390    
   1.04286098       1.56075203     -0.606999993       2.99358177      -1.56967390    
   1.32730997       1.32730997     -0.606999993      0.261771560      -1.57108188    
   1.83825099       1.83825099     -0.517000020      0.261771560      -1.57108188    
   2.16155505       1.44430494     -0.517000020      0.261771560      -1.57108188    
   1.56075203       1.04286098     -0.606999993      0.261771560      -1.57108188    
   1.56075203       1.04286098     -0.606999993       3.03187633      -1.56973207    
   1.13495600      0.758352995     -0.606999993       3.03187633      -1.56973207    
  0.965201020      0.965201020     -0.606999993       3.03187633      -1.56973207    
   1.32730997       1.32730997     -0.606999993       3.03187633      -1.56973207    
   1.56075203       1.04286098     -0.606999993      0.270515949      -1.57132614    
   2.16155505       1.44430494     -0.517000020      0.270515949      -1.57132614    
   2.40179110      0.994853973     -0.517000020      0.270515949      -1.57132614    
   1.73421395      0.718334973     -0.606999993      0.270515949      -1.57132614    
   1.73421395      0.718334973     -0.606999993       3.05663729      -1.56989300    
   1.26109600      0.522363007     -0.606999993       3.05663729      -1.56989300    
   1.13495600      0.758352995     -0.606999993       3.05663729      -1.56989300    
   1.56075203       1.04286098     -0.606999993       3.05663729      -1.56989300    
   1.73421395      0.718334973     -0.606999993      0.266437888      -1.57126701    
   2.40179110      0.994853973     -0.517000020      0.266437888      -1.57126701    
   2.54972792      0.507171988     -0.517000020      0.266437888      -1.57126701    
   1.84103203      0.366203994     -0.606999993      0.266437888      -1.57126701    
   1.84103203      0.366203994     -0.606999993       3.04119253      -1.57002783    
   1.33877206      0.266297996     -0.606999993       3.04119253      -1.57002783    
   1.26109600      0.522363007     -0.606999993       3.04119253      -1.57002783    
   1.73421395      0.718334973     -0.606999993       3.04119253      -1.57002783    
   1.84103203      0.366203994     -0.606999993      0.256811649      -1.57196343    
   2.54972792      0.507171988     -0.517000020      0.256811649      -1.57196343    
   2.59967995       0.00000000     -0.517000020      0.256811649      -1.57196343    
   1.87709999       0.00000000     -0.606999993      0.256811649      -1.57196343    
   1.87709999       0.00000000     -0.606999993       3.02087879      -1.57019067    
   1.36500001       0.00000000     -0.606999993       3.02087879      -1.57019067    
   1.33877206      0.266297996     -0.606999993       3.02087879      -1.57019067    
   1.84103203      0.366203994     -0.606999993       3.02087879      -1.57019067    
   1.87709999       0.00000000     -0.606999993      0.254126281      -1.57205737    
   2.59967995       0.00000000     -0.517000020      0.254126281      -1.57205737    
   2.54972792     -0.507171988     -0.517000020      0.254126281      -1.57205737    
   1.84103203     -0.366203994     -0.606999993      0.254126281      -1.57205737    
   1.84103203     -0.366203994     -0.606999993       3.01738811      -1.57033980    
   1.33877206     -0.266297996     -0.606999993       3.01738811      -1.57033980    
   1.36500001       0.00000000     -0.606999993       3.01738811      -1.57033980    
   1.87709999       0.00000000     -0.606999993       3.01738811      -1.57033980    
   1.84103203     -0.366203994     -0.606999993      0.260840178      -1.57241654    
   2.54972792     -0.507171988     -0.517000020      0.260840178      -1.57241654    
   2.40179110     -0.994853973     -0.517000020      0.260840178      -1.57241654    
   1.73421395     -0.718334973     -0.606999993      0.260840178      -1.57241654    
   1.73421395     -0.718334973     -0.606999993       3.03208351      -1.57045794    
   1.26109600     -0.522363007     -0.606999993       3.03208351      -1.57045794    
   1.33877206     -0.266297996     -0.606999993       3.03208351      -1.57045794    
   1.84103203     -0.366203994     -0.606999993       3.03208351      -1.57045794    
   1.73421395     -0.718334973     -0.606999993      0.272274345      -1.57307696    
   2.40179110     -0.994853973     -0.517000020      0.272274345      -1.57307696    
   2.16155505      -1.44430494     -0.517000020      0.272274345      -1.57307696    
   1.56075203      -1.04286098     -0.606999993      0.272274345      -1.57307696    
   1.56075203      -1.04286098     -0.606999993       3.05761290      -1.57046497    
   1.13495600     -0.758352995     -0.606999993       3.05761290      -1.57046497    
   1.26109600     -0.522363007     -0.606999993       3.05761290      -1.57046497    