 VARIABLES="X" "Y" "Z" "abs(p) (Pa)" "angle(p) (rad)"
ZONE N=   2709,E =    2358, F=FEPOINT, ET=QUADRILATERAL
   0.00000000      -5.48999977     -0.157000005       950.136414       1.98399591    
   0.00000000      -4.76741982     -0.246999994       950.136414       1.98399591    
  0.930077016      -4.67581606     -0.246999994       950.136414       1.98399591    
   1.07104599      -5.38451099     -0.157000005       950.136414       1.98399591    
  -1.07104599      -5.38451099     -0.157000005       951.343811       1.98419857    
 -0.930077016      -4.67581606     -0.246999994       951.343811       1.98419857    
   0.00000000      -4.76741982     -0.246999994       951.343811       1.98419857    
   0.00000000      -5.48999977     -0.157000005       951.343811       1.98419857    
  -2.10093188      -5.07209921     -0.157000005       961.983521       1.97552204    
  -1.82441294      -4.40452194     -0.246999994       961.983521       1.97552204    
 -0.930077016      -4.67581606     -0.246999994       961.983521       1.97552204    
  -1.07104599      -5.38451099     -0.157000005       961.983521       1.97552204    
  -3.05008101      -4.56476784     -0.157000005       954.729126       1.98452961    
  -2.64863706      -3.96396494     -0.246999994       954.729126       1.98452961    
  -1.82441294      -4.40452194     -0.246999994       954.729126       1.98452961    
  -2.10093188      -5.07209921     -0.157000005       954.729126       1.98452961    
  -3.88201594      -3.88201594     -0.157000005       956.747192       1.98378348    
  -3.37107491      -3.37107491     -0.246999994       956.747192       1.98378348    
  -2.64863706      -3.96396494     -0.246999994       956.747192       1.98378348    
  -3.05008101      -4.56476784     -0.157000005       956.747192       1.98378348    
  -4.56476784      -3.05008101     -0.157000005       969.128784       1.97194541    
  -3.96396494      -2.64863706     -0.246999994       969.128784       1.97194541    
  -3.37107491      -3.37107491     -0.246999994       969.128784       1.97194541    
  -3.88201594      -3.88201594     -0.157000005       969.128784       1.97194541    
  -5.07209921      -2.10093188     -0.157000005       958.496277       1.98186374    
  -4.40452194      -1.82441294     -0.246999994       958.496277       1.98186374    
  -3.96396494      -2.64863706     -0.246999994       958.496277       1.98186374    
  -4.56476784      -3.05008101     -0.157000005       958.496277       1.98186374    
  -5.38451099      -1.07104599     -0.157000005       955.474670       1.98356473    
  -4.67581606     -0.930077016     -0.246999994       955.474670       1.98356473    
  -4.40452194      -1.82441294     -0.246999994       955.474670       1.98356473    
  -5.07209921      -2.10093188     -0.157000005       955.474670       1.98356473    
  -5.48999977       0.00000000     -0.157000005       963.789429       1.97341239    
  -4.76741982       0.00000000     -0.246999994       963.789429       1.97341239    
  -4.67581606     -0.930077016     -0.246999994       963.789429       1.97341239    
  -5.38451099      -1.07104599     -0.157000005       963.789429       1.97341239    
  -5.38451099       1.07104599     -0.157000005       963.647278       1.97150123    
  -4.67581606      0.930077016     -0.246999994       963.647278       1.97150123    
  -4.76741982       0.00000000     -0.246999994       963.647278       1.97150123    
  -5.48999977       0.00000000     -0.157000005       963.647278       1.97150123    
  -5.07209921       2.10093188     -0.157000005       962.790100       1.97059596    
  -4.40452194       1.82441294     -0.246999994       962.790100       1.97059596    
  -4.67581606      0.930077016     -0.246999994       962.790100       1.97059596    
  -5.38451099       1.07104599     -0.157000005       962.790100       1.97059596    
  -4.56476784       3.05008101     -0.157000005       961.731018       1.97050190    
  -3.96396494       2.64863706     -0.246999994       961.731018       1.97050190    
  -4.40452194       1.82441294     -0.246999994       961.731018       1.97050190    
  -5.07209921       2.10093188     -0.157000005       961.731018       1.97050190    
  -3.88201594       3.88201594     -0.157000005       952.574585       1.97903597    
  -3.37107491       3.37107491     -0.246999994       952.574585       1.97903597    
  -3.96396494       2.64863706     -0.246999994       952.574585       1.97903597    
  -4.56476784       3.05008101     -0.157000005       952.574585       1.97903597    
  -3.05008101       4.56476784     -0.157000005       961.333374       1.97065389    
  -2.64863706       3.96396494     -0.246999994       961.333374       1.97065389    
  -3.37107491       3.37107491     -0.246999994       961.333374       1.97065389    
  -3.88201594       3.88201594     -0.157000005       961.333374       1.97065389    
  -2.10093188       5.07209921     -0.157000005       953.140747       1.97904408    
  -1.82441294       4.40452194     -0.246999994       953.140747       1.97904408    
  -2.64863706       3.96396494     -0.246999994       953.140747       1.97904408    
  -3.05008101       4.56476784     -0.157000005       953.140747       1.97904408    
  -1.07104599       5.38451099     -0.157000005       961.198853       1.97189987    
 -0.930077016       4.67581606     -0.246999994       961.198853       1.97189987    
  -1.82441294       4.40452194     -0.246999994       961.198853       1.97189987    
  -2.10093188       5.07209921     -0.157000005       961.198853       1.97189987    
   0.00000000       5.48999977     -0.157000005       952.669678       1.98133087    
   0.00000000       4.76741982     -0.246999994       952.669678       1.98133087    
 -0.930077016       4.67581606     -0.246999994       952.669678       1.98133087    
  -1.07104599       5.38451099     -0.157000005       952.669678       1.98133087    
   1.07104599       5.38451099     -0.157000005       961.238098       1.97452474    
  0.930077016       4.67581606     -0.246999994       961.238098       1.97452474    
   0.00000000       4.76741982     -0.246999994       961.238098       1.97452474    
   0.00000000       5.48999977     -0.157000005       961.238098       1.97452474    
   2.10093188       5.07209921     -0.157000005       953.412537       1.98430395    
   1.82441294       4.40452194     -0.246999994       953.412537       1.98430395    
  0.930077016       4.67581606     -0.246999994       953.412537       1.98430395    
   1.07104599       5.38451099     -0.157000005       953.412537       1.98430395    
   3.05008101       4.56476784     -0.157000005       954.961548       1.98476672    
   2.64863706       3.96396494     -0.246999994       954.961548       1.98476672    
   1.82441294       4.40452194     -0.246999994       954.961548       1.98476672    
   2.10093188       5.07209921     -0.157000005       954.961548       1.98476672    
   3.88201594       3.88201594     -0.157000005       967.663757       1.97364843    
   3.37107491       3.37107491     -0.246999994       967.663757       1.97364843    
   2.64863706       3.96396494     -0.246999994       967.663757       1.97364843    
   3.05008101       4.56476784     -0.157000005       967.663757       1.97364843    
   4.56476784       3.05008101     -0.157000005       966.973755       1.97483289    
   3.96396494       2.64863706     -0.246999994       966.973755       1.97483289    
   3.37107491       3.37107491     -0.246999994       966.973755       1.97483289    
   3.88201594       3.88201594     -0.157000005       966.973755       1.97483289    
   5.07209921       2.10093188     -0.157000005       969.332275       1.97227108    
   4.40452194       1.82441294     -0.246999994       969.332275       1.97227108    
   3.96396494       2.64863706     -0.246999994       969.332275       1.97227108    
   4.56476784       3.05008101     -0.157000005       969.332275       1.97227108    
   5.38451099       1.07104599     -0.157000005       956.422363       1.98418665    
   4.67581606      0.930077016     -0.246999994       956.422363       1.98418665    
   4.40452194       1.82441294     -0.246999994       956.422363       1.98418665    
   5.07209921       2.10093188     -0.157000005       956.422363       1.98418665    
   5.48999977       0.00000000     -0.157000005       952.839783       1.98614430    
   4.76741982       0.00000000     -0.246999994       952.839783       1.98614430    
   4.67581606      0.930077016     -0.246999994       952.839783       1.98614430    
   5.38451099       1.07104599     -0.157000005       952.839783       1.98614430    
   5.38451099      -1.07104599     -0.157000005       951.271790       1.98575771    
   4.67581606     -0.930077016     -0.246999994       951.271790       1.98575771    
   4.76741982       0.00000000     -0.246999994       951.271790       1.98575771    
   5.48999977       0.00000000     -0.157000005       951.271790       1.98575771    
   5.07209921      -2.10093188     -0.157000005       950.397217       1.98482513    
   4.40452194      -1.82441294     -0.246999994       950.397217       1.98482513    
   4.67581606     -0.930077016     -0.246999994       950.397217       1.98482513    
   5.38451099      -1.07104599     -0.157000005       950.397217       1.98482513    
   4.56476784      -3.05008101     -0.157000005       950.183777       1.98372781    
   3.96396494      -2.64863706     -0.246999994       950.183777       1.98372781    
   4.40452194      -1.82441294     -0.246999994       950.183777       1.98372781    
   5.07209921      -2.10093188     -0.157000005       950.183777       1.98372781    
   3.88201594      -3.88201594     -0.157000005       951.244202       1.98198080    
   3.37107491      -3.37107491     -0.246999994       951.244202       1.98198080    
   3.96396494      -2.64863706     -0.246999994       951.244202       1.98198080    
   4.56476784      -3.05008101     -0.157000005       951.244202       1.98198080    
   3.05008101      -4.56476784     -0.157000005       960.930969       1.97221637    
   2.64863706      -3.96396494     -0.246999994       960.930969       1.97221637    
   3.37107491      -3.37107491     -0.246999994       960.930969       1.97221637    
   3.88201594      -3.88201594     -0.157000005       960.930969       1.97221637    
   2.10093188      -5.07209921     -0.157000005       951.778687       1.98119998    
   1.82441294      -4.40452194     -0.246999994       951.778687       1.98119998    
   2.64863706      -3.96396494     -0.246999994       951.778687       1.98119998    
   3.05008101      -4.56476784     -0.157000005       951.778687       1.98119998    
   1.07104599      -5.38451099     -0.157000005       950.320435       1.98302162    
  0.930077016      -4.67581606     -0.246999994       950.320435       1.98302162    
   1.82441294      -4.40452194     -0.246999994       950.320435       1.98302162    
   2.10093188      -5.07209921     -0.157000005       950.320435       1.98302162    
   0.00000000      -1.87709999     -0.606999993       2524.90015       1.63784015    
   0.00000000      -1.36500001     -0.606999993       2524.90015       1.63784015    
  0.266297996      -1.33877206     -0.606999993       2524.90015       1.63784015    
  0.366203994      -1.84103203     -0.606999993       2524.90015       1.63784015    
   0.00000000      -1.87709999     -0.606999993       2131.23535       1.64154041    
   0.00000000      -2.59967995     -0.517000020       2131.23535       1.64154041    
 -0.507171988      -2.54972792     -0.517000020       2131.23535       1.64154041    
 -0.366203994      -1.84103203     -0.606999993       2131.23535       1.64154041    
 -0.366203994      -1.84103203     -0.606999993       2525.31396       1.63791120    
 -0.266297996      -1.33877206     -0.606999993       2525.31396       1.63791120    
   0.00000000      -1.36500001     -0.606999993       2525.31396       1.63791120    
   0.00000000      -1.87709999     -0.606999993       2525.31396       1.63791120    
 -0.366203994      -1.84103203     -0.606999993       2126.62939       1.64174318    
 -0.507171988      -2.54972792     -0.517000020       2126.62939       1.64174318    
 -0.994853973      -2.40179110     -0.517000020       2126.62939       1.64174318    
 -0.718334973      -1.73421395     -0.606999993       2126.62939       1.64174318    
 -0.718334973      -1.73421395     -0.606999993       2523.67334       1.63803399    
 -0.522363007      -1.26109600     -0.606999993       2523.67334       1.63803399    
 -0.266297996      -1.33877206     -0.606999993       2523.67334       1.63803399    
 -0.366203994      -1.84103203     -0.606999993       2523.67334       1.63803399    
 -0.718334973      -1.73421395     -0.606999993       2123.00049       1.64189136    
 -0.994853973      -2.40179110     -0.517000020       2123.00049       1.64189136    
  -1.44430494      -2.16155505     -0.517000020       2123.00049       1.64189136    
  -1.04286098      -1.56075203     -0.606999993       2123.00049       1.64189136    
  -1.04286098      -1.56075203     -0.606999993       2522.96777       1.63809812    
 -0.758352995      -1.13495600     -0.606999993       2522.96777       1.63809812    
 -0.522363007      -1.26109600     -0.606999993       2522.96777       1.63809812    
 -0.718334973      -1.73421395     -0.606999993       2522.96777       1.63809812    
  -1.04286098      -1.56075203     -0.606999993       2124.78979       1.64185190    
  -1.44430494      -2.16155505     -0.517000020       2124.78979       1.64185190    
  -1.83825099      -1.83825099     -0.517000020       2124.78979       1.64185190    
  -1.32730997      -1.32730997     -0.606999993       2124.78979       1.64185190    
  -1.32730997      -1.32730997     -0.606999993       2525.46118       1.63805187    
 -0.965201020     -0.965201020     -0.606999993       2525.46118       1.63805187    
 -0.758352995      -1.13495600     -0.606999993       2525.46118       1.63805187    
  -1.04286098      -1.56075203     -0.606999993       2525.46118       1.63805187    
  -1.32730997      -1.32730997     -0.606999993       2130.96216       1.64164329    
  -1.83825099      -1.83825099     -0.517000020       2130.96216       1.64164329    
  -2.16155505      -1.44430494     -0.517000020       2130.96216       1.64164329    
  -1.56075203      -1.04286098     -0.606999993       2130.96216       1.64164329    
  -1.56075203      -1.04286098     -0.606999993       2530.56616       1.63790047    
  -1.13495600     -0.758352995     -0.606999993       2530.56616       1.63790047    
 -0.965201020     -0.965201020     -0.606999993       2530.56616       1.63790047    
  -1.32730997      -1.32730997     -0.606999993       2530.56616       1.63790047    
  -1.56075203      -1.04286098     -0.606999993       2136.06006       1.64143288    
  -2.16155505      -1.44430494     -0.517000020       2136.06006       1.64143288    
  -2.40179110     -0.994853973     -0.517000020       2136.06006       1.64143288    
  -1.73421395     -0.718334973     -0.606999993       2136.06006       1.64143288    
  -1.73421395     -0.718334973     -0.606999993       2535.23828       1.63773513    
  -1.26109600     -0.522363007     -0.606999993       2535.23828       1.63773513    
  -1.13495600     -0.758352995     -0.606999993       2535.23828       1.63773513    
  -1.56075203      -1.04286098     -0.606999993       2535.23828       1.63773513    
  -1.73421395     -0.718334973     -0.606999993       2135.94751       1.64134705    
  -2.40179110     -0.994853973     -0.517000020       2135.94751       1.64134705    
  -2.54972792     -0.507171988     -0.517000020       2135.94751       1.64134705    
  -1.84103203     -0.366203994     -0.606999993       2135.94751       1.64134705    
  -1.84103203     -0.366203994     -0.606999993       2536.98438       1.63760483    
  -1.33877206     -0.266297996     -0.606999993       2536.98438       1.63760483    
  -1.26109600     -0.522363007     -0.606999993       2536.98438       1.63760483    
  -1.73421395     -0.718334973     -0.606999993       2536.98438       1.63760483    
  -1.84103203     -0.366203994     -0.606999993       2133.30664       1.64131892    
  -2.54972792     -0.507171988     -0.517000020       2133.30664       1.64131892    
  -2.59967995       0.00000000     -0.517000020       2133.30664       1.64131892    
  -1.87709999       0.00000000     -0.606999993       2133.30664       1.64131892    
  -1.87709999       0.00000000     -0.606999993       2536.72583       1.63750684    
  -1.36500001       0.00000000     -0.606999993       2536.72583       1.63750684    
  -1.33877206     -0.266297996     -0.606999993       2536.72583       1.63750684    
  -1.84103203     -0.366203994     -0.606999993       2536.72583       1.63750684    
  -1.87709999       0.00000000     -0.606999993       2133.39502       1.64120233    
  -2.59967995       0.00000000     -0.517000020       2133.39502       1.64120233    
  -2.54972792      0.507171988     -0.517000020       2133.39502       1.64120233    
  -1.84103203      0.366203994     -0.606999993       2133.39502       1.64120233    
  -1.84103203      0.366203994     -0.606999993       2536.87280       1.63739336    
  -1.33877206      0.266297996     -0.606999993       2536.87280       1.63739336    
  -1.36500001       0.00000000     -0.606999993       2536.87280       1.63739336    
  -1.87709999       0.00000000     -0.606999993       2536.87280       1.63739336    
  -1.84103203      0.366203994     -0.606999993       2137.10449       1.64099729    
  -2.54972792      0.507171988     -0.517000020       2137.10449       1.64099729    
  -2.40179110      0.994853973     -0.517000020       2137.10449       1.64099729    
  -1.73421395      0.718334973     -0.606999993       2137.10449       1.64099729    
  -1.73421395      0.718334973     -0.606999993       2538.04639       1.63726175    
  -1.26109600      0.522363007     -0.606999993       2538.04639       1.63726175    
  -1.33877206      0.266297996     -0.606999993       2538.04639       1.63726175    
  -1.84103203      0.366203994     -0.606999993       2538.04639       1.63726175    
  -1.73421395      0.718334973     -0.606999993       2139.68506       1.64084220    
  -2.40179110      0.994853973     -0.517000020       2139.68506       1.64084220    
  -2.16155505       1.44430494     -0.517000020       2139.68506       1.64084220    
  -1.56075203       1.04286098     -0.606999993       2139.68506       1.64084220    
  -1.56075203       1.04286098     -0.606999993       2538.10693       1.63717568    
  -1.13495600      0.758352995     -0.606999993       2538.10693       1.63717568    
  -1.26109600      0.522363007     -0.606999993       2538.10693       1.63717568    
  -1.73421395      0.718334973     -0.606999993       2538.10693       1.63717568    
  -1.56075203       1.04286098     -0.606999993       2136.83887       1.64088738    
  -2.16155505       1.44430494     -0.517000020       2136.83887       1.64088738    
  -1.83825099       1.83825099     -0.517000020       2136.83887       1.64088738    
  -1.32730997       1.32730997     -0.606999993       2136.83887       1.64088738    
  -1.32730997       1.32730997     -0.606999993       2535.43555       1.63719118    
 -0.965201020      0.965201020     -0.606999993       2535.43555       1.63719118    
  -1.13495600      0.758352995     -0.606999993       2535.43555       1.63719118    
  -1.56075203       1.04286098     -0.606999993       2535.43555       1.63719118    
  -1.32730997       1.32730997     -0.606999993       2131.13867       1.64105439    
  -1.83825099       1.83825099     -0.517000020       2131.13867       1.64105439    
  -1.44430494       2.16155505     -0.517000020       2131.13867       1.64105439    
  -1.04286098       1.56075203     -0.606999993       2131.13867       1.64105439    
  -1.04286098       1.56075203     -0.606999993       2531.39551       1.63728058    
 -0.758352995       1.13495600     -0.606999993       2531.39551       1.63728058    
 -0.965201020      0.965201020     -0.606999993       2531.39551       1.63728058    
  -1.32730997       1.32730997     -0.606999993       2531.39551       1.63728058    
  -1.04286098       1.56075203     -0.606999993       2128.66455       1.64115560    
  -1.44430494       2.16155505     -0.517000020       2128.66455       1.64115560    
 -0.994853973       2.40179110     -0.517000020       2128.66455       1.64115560    
 -0.718334973       1.73421395     -0.606999993       2128.66455       1.64115560    
 -0.718334973       1.73421395     -0.606999993       2529.14404       1.63736081    
 -0.522363007       1.26109600     -0.606999993       2529.14404       1.63736081    
 -0.758352995       1.13495600     -0.606999993       2529.14404       1.63736081    
  -1.04286098       1.56075203     -0.606999993       2529.14404       1.63736081    
 -0.718334973       1.73421395     -0.606999993       2131.59448       1.64114702    
 -0.994853973       2.40179110     -0.517000020       2131.59448       1.64114702    
 -0.507171988       2.54972792     -0.517000020       2131.59448       1.64114702    
 -0.366203994       1.84103203     -0.606999993       2131.59448       1.64114702    
 -0.366203994       1.84103203     -0.606999993       2529.86304       1.63740981    
 -0.266297996       1.33877206     -0.606999993       2529.86304       1.63740981    
 -0.522363007       1.26109600     -0.606999993       2529.86304       1.63740981    
 -0.718334973       1.73421395     -0.606999993       2529.86304       1.63740981    
 -0.366203994       1.84103203     -0.606999993       2135.96045       1.64111614    
 -0.507171988       2.54972792     -0.517000020       2135.96045       1.64111614    
   0.00000000       2.59967995     -0.517000020       2135.96045       1.64111614    
   0.00000000       1.87709999     -0.606999993       2135.96045       1.64111614    
   0.00000000       1.87709999     -0.606999993       2531.69409       1.63745117    
   0.00000000       1.36500001     -0.606999993       2531.69409       1.63745117    
 -0.266297996       1.33877206     -0.606999993       2531.69409       1.63745117    
 -0.366203994       1.84103203     -0.606999993       2531.69409       1.63745117    
   0.00000000       1.87709999     -0.606999993       2136.09424       1.64121926    
   0.00000000       2.59967995     -0.517000020       2136.09424       1.64121926    
  0.507171988       2.54972792     -0.517000020       2136.09424       1.64121926    
  0.366203994       1.84103203     -0.606999993       2136.09424       1.64121926    
  0.366203994       1.84103203     -0.606999993       2531.88208       1.63755703    
  0.266297996       1.33877206     -0.606999993       2531.88208       1.63755703    
   0.00000000       1.36500001     -0.606999993       2531.88208       1.63755703    
   0.00000000       1.87709999     -0.606999993       2531.88208       1.63755703    
  0.366203994       1.84103203     -0.606999993       2131.90283       1.64144444    
  0.507171988       2.54972792     -0.517000020       2131.90283       1.64144444    
  0.994853973       2.40179110     -0.517000020       2131.90283       1.64144444    
  0.718334973       1.73421395     -0.606999993       2131.90283       1.64144444    
  0.718334973       1.73421395     -0.606999993       2530.43140       1.63770092    
  0.522363007       1.26109600     -0.606999993       2530.43140       1.63770092    
  0.266297996       1.33877206     -0.606999993       2530.43140       1.63770092    
  0.366203994       1.84103203     -0.606999993       2530.43140       1.63770092    
  0.718334973       1.73421395     -0.606999993       2129.20264       1.64161325    
  0.994853973       2.40179110     -0.517000020       2129.20264       1.64161325    
   1.44430494       2.16155505     -0.517000020       2129.20264       1.64161325    
   1.04286098       1.56075203     -0.606999993       2129.20264       1.64161325    
   1.04286098       1.56075203     -0.606999993       2529.98242       1.63779867    
  0.758352995       1.13495600     -0.606999993       2529.98242       1.63779867    
  0.522363007       1.26109600     -0.606999993       2529.98242       1.63779867    
  0.718334973       1.73421395     -0.606999993       2529.98242       1.63779867    
   1.04286098       1.56075203     -0.606999993       2131.83130       1.64159584    
   1.44430494       2.16155505     -0.517000020       2131.83130       1.64159584    
   1.83825099       1.83825099     -0.517000020       2131.83130       1.64159584    
   1.32730997       1.32730997     -0.606999993       2131.83130       1.64159584    
   1.32730997       1.32730997     -0.606999993       2532.38843       1.63780701    
  0.965201020      0.965201020     -0.606999993       2532.38843       1.63780701    
  0.758352995       1.13495600     -0.606999993       2532.38843       1.63780701    
   1.04286098       1.56075203     -0.606999993       2532.38843       1.63780701    
   1.32730997       1.32730997     -0.606999993       2137.48633       1.64146185    
   1.83825099       1.83825099     -0.517000020       2137.48633       1.64146185    
   2.16155505       1.44430494     -0.517000020       2137.48633       1.64146185    
   1.56075203       1.04286098     -0.606999993       2137.48633       1.64146185    
   1.56075203       1.04286098     -0.606999993       2536.31152       1.63773942    
   1.13495600      0.758352995     -0.606999993       2536.31152       1.63773942    
  0.965201020      0.965201020     -0.606999993       2536.31152       1.63773942    
   1.32730997       1.32730997     -0.606999993       2536.31152       1.63773942    
   1.56075203       1.04286098     -0.606999993       2140.09058       1.64139318    
   2.16155505       1.44430494     -0.517000020       2140.09058       1.64139318    
   2.40179110      0.994853973     -0.517000020       2140.09058       1.64139318    
   1.73421395      0.718334973     -0.606999993       2140.09058       1.64139318    
   1.73421395      0.718334973     -0.606999993       2538.46069       1.63767886    
   1.26109600      0.522363007     -0.606999993       2538.46069       1.63767886    
   1.13495600      0.758352995     -0.606999993       2538.46069       1.63767886    
   1.56075203       1.04286098     -0.606999993       2538.46069       1.63767886    
   1.73421395      0.718334973     -0.606999993       2136.99048       1.64146411    
   2.40179110      0.994853973     -0.517000020       2136.99048       1.64146411    
   2.54972792      0.507171988     -0.517000020       2136.99048       1.64146411    
   1.84103203      0.366203994     -0.606999993       2136.99048       1.64146411    
   1.84103203      0.366203994     -0.606999993       2537.68994       1.63765633    
   1.33877206      0.266297996     -0.606999993       2537.68994       1.63765633    
   1.26109600      0.522363007     -0.606999993       2537.68994       1.63765633    
   1.73421395      0.718334973     -0.606999993       2537.68994       1.63765633    
   1.84103203      0.366203994     -0.606999993       2132.70117       1.64154088    
   2.54972792      0.507171988     -0.517000020       2132.70117       1.64154088    
   2.59967995       0.00000000     -0.517000020       2132.70117       1.64154088    
   1.87709999       0.00000000     -0.606999993       2132.70117       1.64154088    
   1.87709999       0.00000000     -0.606999993       2535.78906       1.63764238    
   1.36500001       0.00000000     -0.606999993       2535.78906       1.63764238    
   1.33877206      0.266297996     -0.606999993       2535.78906       1.63764238    
   1.84103203      0.366203994     -0.606999993       2535.78906       1.63764238    
   1.87709999       0.00000000     -0.606999993       2132.09790       1.64149237    
   2.59967995       0.00000000     -0.517000020       2132.09790       1.64149237    
   2.54972792     -0.507171988     -0.517000020       2132.09790       1.64149237    
   1.84103203     -0.366203994     -0.606999993       2132.09790       1.64149237    
   1.84103203     -0.366203994     -0.606999993       2534.94531       1.63758039    
   1.33877206     -0.266297996     -0.606999993       2534.94531       1.63758039    
   1.36500001       0.00000000     -0.606999993       2534.94531       1.63758039    
   1.87709999       0.00000000     -0.606999993       2534.94531       1.63758039    
   1.84103203     -0.366203994     -0.606999993       2134.40015       1.64135301    
   2.54972792     -0.507171988     -0.517000020       2134.40015       1.64135301    
   2.40179110     -0.994853973     -0.517000020       2134.40015       1.64135301    
   1.73421395     -0.718334973     -0.606999993       2134.40015       1.64135301    
   1.73421395     -0.718334973     -0.606999993       2534.75244       1.63751221    
   1.26109600     -0.522363007     -0.606999993       2534.75244       1.63751221    
   1.33877206     -0.266297996     -0.606999993       2534.75244       1.63751221    
   1.84103203     -0.366203994     -0.606999993       2534.75244       1.63751221    
   1.73421395     -0.718334973     -0.606999993       2134.32300       1.64128983    
   2.40179110     -0.994853973     -0.517000020       2134.32300       1.64128983    
   2.16155505      -1.44430494     -0.517000020       2134.32300       1.64128983    
   1.56075203      -1.04286098     -0.606999993       2134.32300       1.64128983    
   1.56075203      -1.04286098     -0.606999993       2532.86108       1.63750529    
   1.13495600     -0.758352995     -0.606999993       2532.86108       1.63750529    
   1.26109600     -0.522363007     -0.606999993       2532.86108       1.63750529    