 VARIABLES="X" "Y" "Z" "abs(p) (Pa)" "angle(p) (rad)"
ZONE N=   2709,E =    2358, F=FEPOINT, ET=QUADRILATERAL
   0.00000000      -5.48999977     -0.157000005       226.160553     -0.333775103    
   0.00000000      -4.76741982     -0.246999994       226.160553     -0.333775103    
  0.930077016      -4.67581606     -0.246999994       226.160553     -0.333775103    
   1.07104599      -5.38451099     -0.157000005       226.160553     -0.333775103    
  -1.07104599      -5.38451099     -0.157000005       226.065048     -0.334200084    
 -0.930077016      -4.67581606     -0.246999994       226.065048     -0.334200084    
   0.00000000      -4.76741982     -0.246999994       226.065048     -0.334200084    
   0.00000000      -5.48999977     -0.157000005       226.065048     -0.334200084    
  -2.10093188      -5.07209921     -0.157000005       225.381821     -0.337484449    
  -1.82441294      -4.40452194     -0.246999994       225.381821     -0.337484449    
 -0.930077016      -4.67581606     -0.246999994       225.381821     -0.337484449    
  -1.07104599      -5.38451099     -0.157000005       225.381821     -0.337484449    
  -3.05008101      -4.56476784     -0.157000005       225.855774     -0.335132182    
  -2.64863706      -3.96396494     -0.246999994       225.855774     -0.335132182    
  -1.82441294      -4.40452194     -0.246999994       225.855774     -0.335132182    
  -2.10093188      -5.07209921     -0.157000005       225.855774     -0.335132182    
  -3.88201594      -3.88201594     -0.157000005       225.641724     -0.335030466    
  -3.37107491      -3.37107491     -0.246999994       225.641724     -0.335030466    
  -2.64863706      -3.96396494     -0.246999994       225.641724     -0.335030466    
  -3.05008101      -4.56476784     -0.157000005       225.641724     -0.335030466    
  -4.56476784      -3.05008101     -0.157000005       224.581924     -0.337152272    
  -3.96396494      -2.64863706     -0.246999994       224.581924     -0.337152272    
  -3.37107491      -3.37107491     -0.246999994       224.581924     -0.337152272    
  -3.88201594      -3.88201594     -0.157000005       224.581924     -0.337152272    
  -5.07209921      -2.10093188     -0.157000005       225.099304     -0.333212376    
  -4.40452194      -1.82441294     -0.246999994       225.099304     -0.333212376    
  -3.96396494      -2.64863706     -0.246999994       225.099304     -0.333212376    
  -4.56476784      -3.05008101     -0.157000005       225.099304     -0.333212376    
  -5.38451099      -1.07104599     -0.157000005       225.095520     -0.332869262    
  -4.67581606     -0.930077016     -0.246999994       225.095520     -0.332869262    
  -4.40452194      -1.82441294     -0.246999994       225.095520     -0.332869262    
  -5.07209921      -2.10093188     -0.157000005       225.095520     -0.332869262    
  -5.48999977       0.00000000     -0.157000005       224.310638     -0.335973531    
  -4.76741982       0.00000000     -0.246999994       224.310638     -0.335973531    
  -4.67581606     -0.930077016     -0.246999994       224.310638     -0.335973531    
  -5.38451099      -1.07104599     -0.157000005       224.310638     -0.335973531    
  -5.38451099       1.07104599     -0.157000005       224.115082     -0.336556703    
  -4.67581606      0.930077016     -0.246999994       224.115082     -0.336556703    
  -4.76741982       0.00000000     -0.246999994       224.115082     -0.336556703    
  -5.48999977       0.00000000     -0.157000005       224.115082     -0.336556703    
  -5.07209921       2.10093188     -0.157000005       224.004761     -0.336353809    
  -4.40452194       1.82441294     -0.246999994       224.004761     -0.336353809    
  -4.67581606      0.930077016     -0.246999994       224.004761     -0.336353809    
  -5.38451099       1.07104599     -0.157000005       224.004761     -0.336353809    
  -4.56476784       3.05008101     -0.157000005       223.995819     -0.335933834    
  -3.96396494       2.64863706     -0.246999994       223.995819     -0.335933834    
  -4.40452194       1.82441294     -0.246999994       223.995819     -0.335933834    
  -5.07209921       2.10093188     -0.157000005       223.995819     -0.335933834    
  -3.88201594       3.88201594     -0.157000005       224.649414     -0.334311932    
  -3.37107491       3.37107491     -0.246999994       224.649414     -0.334311932    
  -3.96396494       2.64863706     -0.246999994       224.649414     -0.334311932    
  -4.56476784       3.05008101     -0.157000005       224.649414     -0.334311932    
  -3.05008101       4.56476784     -0.157000005       224.127029     -0.337494850    
  -2.64863706       3.96396494     -0.246999994       224.127029     -0.337494850    
  -3.37107491       3.37107491     -0.246999994       224.127029     -0.337494850    
  -3.88201594       3.88201594     -0.157000005       224.127029     -0.337494850    
  -2.10093188       5.07209921     -0.157000005       224.636429     -0.335569829    
  -1.82441294       4.40452194     -0.246999994       224.636429     -0.335569829    
  -2.64863706       3.96396494     -0.246999994       224.636429     -0.335569829    
  -3.05008101       4.56476784     -0.157000005       224.636429     -0.335569829    
  -1.07104599       5.38451099     -0.157000005       224.064087     -0.337938190    
 -0.930077016       4.67581606     -0.246999994       224.064087     -0.337938190    
  -1.82441294       4.40452194     -0.246999994       224.064087     -0.337938190    
  -2.10093188       5.07209921     -0.157000005       224.064087     -0.337938190    
   0.00000000       5.48999977     -0.157000005       224.545319     -0.335393488    
   0.00000000       4.76741982     -0.246999994       224.545319     -0.335393488    
 -0.930077016       4.67581606     -0.246999994       224.545319     -0.335393488    
  -1.07104599       5.38451099     -0.157000005       224.545319     -0.335393488    
   1.07104599       5.38451099     -0.157000005       223.970551     -0.337571174    
  0.930077016       4.67581606     -0.246999994       223.970551     -0.337571174    
   0.00000000       4.76741982     -0.246999994       223.970551     -0.337571174    
   0.00000000       5.48999977     -0.157000005       223.970551     -0.337571174    
   2.10093188       5.07209921     -0.157000005       224.585922     -0.335714430    
   1.82441294       4.40452194     -0.246999994       224.585922     -0.335714430    
  0.930077016       4.67581606     -0.246999994       224.585922     -0.335714430    
   1.07104599       5.38451099     -0.157000005       224.585922     -0.335714430    
   3.05008101       4.56476784     -0.157000005       224.544189     -0.335548460    
   2.64863706       3.96396494     -0.246999994       224.544189     -0.335548460    
   1.82441294       4.40452194     -0.246999994       224.544189     -0.335548460    
   2.10093188       5.07209921     -0.157000005       224.544189     -0.335548460    
   3.88201594       3.88201594     -0.157000005       223.750656     -0.338290393    
   3.37107491       3.37107491     -0.246999994       223.750656     -0.338290393    
   2.64863706       3.96396494     -0.246999994       223.750656     -0.338290393    
   3.05008101       4.56476784     -0.157000005       223.750656     -0.338290393    
   4.56476784       3.05008101     -0.157000005       223.745148     -0.336766958    
   3.96396494       2.64863706     -0.246999994       223.745148     -0.336766958    
   3.37107491       3.37107491     -0.246999994       223.745148     -0.336766958    
   3.88201594       3.88201594     -0.157000005       223.745148     -0.336766958    
   5.07209921       2.10093188     -0.157000005       223.606964     -0.336318731    
   4.40452194       1.82441294     -0.246999994       223.606964     -0.336318731    
   3.96396494       2.64863706     -0.246999994       223.606964     -0.336318731    
   4.56476784       3.05008101     -0.157000005       223.606964     -0.336318731    
   5.38451099       1.07104599     -0.157000005       224.604950     -0.333188951    
   4.67581606      0.930077016     -0.246999994       224.604950     -0.333188951    
   4.40452194       1.82441294     -0.246999994       224.604950     -0.333188951    
   5.07209921       2.10093188     -0.157000005       224.604950     -0.333188951    
   5.48999977       0.00000000     -0.157000005       224.960022     -0.332541853    
   4.76741982       0.00000000     -0.246999994       224.960022     -0.332541853    
   4.67581606      0.930077016     -0.246999994       224.960022     -0.332541853    
   5.38451099       1.07104599     -0.157000005       224.960022     -0.332541853    
   5.38451099      -1.07104599     -0.157000005       225.153473     -0.332048357    
   4.67581606     -0.930077016     -0.246999994       225.153473     -0.332048357    
   4.76741982       0.00000000     -0.246999994       225.153473     -0.332048357    
   5.48999977       0.00000000     -0.157000005       225.153473     -0.332048357    
   5.07209921      -2.10093188     -0.157000005       225.310638     -0.331481636    
   4.40452194      -1.82441294     -0.246999994       225.310638     -0.331481636    
   4.67581606     -0.930077016     -0.246999994       225.310638     -0.331481636    
   5.38451099      -1.07104599     -0.157000005       225.310638     -0.331481636    
   4.56476784      -3.05008101     -0.157000005       225.480988     -0.331444502    
   3.96396494      -2.64863706     -0.246999994       225.480988     -0.331444502    
   4.40452194      -1.82441294     -0.246999994       225.480988     -0.331444502    
   5.07209921      -2.10093188     -0.157000005       225.480988     -0.331444502    
   3.88201594      -3.88201594     -0.157000005       225.648621     -0.332895905    
   3.37107491      -3.37107491     -0.246999994       225.648621     -0.332895905    
   3.96396494      -2.64863706     -0.246999994       225.648621     -0.332895905    
   4.56476784      -3.05008101     -0.157000005       225.648621     -0.332895905    
   3.05008101      -4.56476784     -0.157000005       225.213715     -0.336453915    
   2.64863706      -3.96396494     -0.246999994       225.213715     -0.336453915    
   3.37107491      -3.37107491     -0.246999994       225.213715     -0.336453915    
   3.88201594      -3.88201594     -0.157000005       225.213715     -0.336453915    
   2.10093188      -5.07209921     -0.157000005       225.975983     -0.334424853    
   1.82441294      -4.40452194     -0.246999994       225.975983     -0.334424853    
   2.64863706      -3.96396494     -0.246999994       225.975983     -0.334424853    
   3.05008101      -4.56476784     -0.157000005       225.975983     -0.334424853    
   1.07104599      -5.38451099     -0.157000005       226.172638     -0.334281713    
  0.930077016      -4.67581606     -0.246999994       226.172638     -0.334281713    
   1.82441294      -4.40452194     -0.246999994       226.172638     -0.334281713    
   2.10093188      -5.07209921     -0.157000005       226.172638     -0.334281713    
   0.00000000      -1.87709999     -0.606999993       681.976685      -1.34089804    
   0.00000000      -1.36500001     -0.606999993       681.976685      -1.34089804    
  0.266297996      -1.33877206     -0.606999993       681.976685      -1.34089804    
  0.366203994      -1.84103203     -0.606999993       681.976685      -1.34089804    
   0.00000000      -1.87709999     -0.606999993       518.041992      -1.28082514    
   0.00000000      -2.59967995     -0.517000020       518.041992      -1.28082514    
 -0.507171988      -2.54972792     -0.517000020       518.041992      -1.28082514    
 -0.366203994      -1.84103203     -0.606999993       518.041992      -1.28082514    
 -0.366203994      -1.84103203     -0.606999993       682.083923      -1.34094656    
 -0.266297996      -1.33877206     -0.606999993       682.083923      -1.34094656    
   0.00000000      -1.36500001     -0.606999993       682.083923      -1.34094656    
   0.00000000      -1.87709999     -0.606999993       682.083923      -1.34094656    
 -0.366203994      -1.84103203     -0.606999993       512.124756      -1.27749825    
 -0.507171988      -2.54972792     -0.517000020       512.124756      -1.27749825    
 -0.994853973      -2.40179110     -0.517000020       512.124756      -1.27749825    
 -0.718334973      -1.73421395     -0.606999993       512.124756      -1.27749825    
 -0.718334973      -1.73421395     -0.606999993       679.581726      -1.34013391    
 -0.522363007      -1.26109600     -0.606999993       679.581726      -1.34013391    
 -0.266297996      -1.33877206     -0.606999993       679.581726      -1.34013391    
 -0.366203994      -1.84103203     -0.606999993       679.581726      -1.34013391    
 -0.718334973      -1.73421395     -0.606999993       507.194824      -1.27470756    
 -0.994853973      -2.40179110     -0.517000020       507.194824      -1.27470756    
  -1.44430494      -2.16155505     -0.517000020       507.194824      -1.27470756    
  -1.04286098      -1.56075203     -0.606999993       507.194824      -1.27470756    
  -1.04286098      -1.56075203     -0.606999993       677.859192      -1.33960807    
 -0.758352995      -1.13495600     -0.606999993       677.859192      -1.33960807    
 -0.522363007      -1.26109600     -0.606999993       677.859192      -1.33960807    
 -0.718334973      -1.73421395     -0.606999993       677.859192      -1.33960807    
  -1.04286098      -1.56075203     -0.606999993       508.525238      -1.27560139    
  -1.44430494      -2.16155505     -0.517000020       508.525238      -1.27560139    
  -1.83825099      -1.83825099     -0.517000020       508.525238      -1.27560139    
  -1.32730997      -1.32730997     -0.606999993       508.525238      -1.27560139    
  -1.32730997      -1.32730997     -0.606999993       679.782288      -1.34033799    
 -0.965201020     -0.965201020     -0.606999993       679.782288      -1.34033799    
 -0.758352995      -1.13495600     -0.606999993       679.782288      -1.34033799    
  -1.04286098      -1.56075203     -0.606999993       679.782288      -1.34033799    
  -1.32730997      -1.32730997     -0.606999993       515.045532      -1.27950251    
  -1.83825099      -1.83825099     -0.517000020       515.045532      -1.27950251    
  -2.16155505      -1.44430494     -0.517000020       515.045532      -1.27950251    
  -1.56075203      -1.04286098     -0.606999993       515.045532      -1.27950251    
  -1.56075203      -1.04286098     -0.606999993       684.699036      -1.34207356    
  -1.13495600     -0.758352995     -0.606999993       684.699036      -1.34207356    
 -0.965201020     -0.965201020     -0.606999993       684.699036      -1.34207356    
  -1.32730997      -1.32730997     -0.606999993       684.699036      -1.34207356    
  -1.56075203      -1.04286098     -0.606999993       520.507080      -1.28272128    
  -2.16155505      -1.44430494     -0.517000020       520.507080      -1.28272128    
  -2.40179110     -0.994853973     -0.517000020       520.507080      -1.28272128    
  -1.73421395     -0.718334973     -0.606999993       520.507080      -1.28272128    
  -1.73421395     -0.718334973     -0.606999993       689.154968      -1.34362686    
  -1.26109600     -0.522363007     -0.606999993       689.154968      -1.34362686    
  -1.13495600     -0.758352995     -0.606999993       689.154968      -1.34362686    
  -1.56075203      -1.04286098     -0.606999993       689.154968      -1.34362686    
  -1.73421395     -0.718334973     -0.606999993       520.193420      -1.28267455    
  -2.40179110     -0.994853973     -0.517000020       520.193420      -1.28267455    
  -2.54972792     -0.507171988     -0.517000020       520.193420      -1.28267455    
  -1.84103203     -0.366203994     -0.606999993       520.193420      -1.28267455    
  -1.84103203     -0.366203994     -0.606999993       690.559204      -1.34415781    
  -1.33877206     -0.266297996     -0.606999993       690.559204      -1.34415781    
  -1.26109600     -0.522363007     -0.606999993       690.559204      -1.34415781    
  -1.73421395     -0.718334973     -0.606999993       690.559204      -1.34415781    
  -1.84103203     -0.366203994     -0.606999993       517.162720      -1.28108490    
  -2.54972792     -0.507171988     -0.517000020       517.162720      -1.28108490    
  -2.59967995       0.00000000     -0.517000020       517.162720      -1.28108490    
  -1.87709999       0.00000000     -0.606999993       517.162720      -1.28108490    
  -1.87709999       0.00000000     -0.606999993       690.013977      -1.34404016    
  -1.36500001       0.00000000     -0.606999993       690.013977      -1.34404016    
  -1.33877206     -0.266297996     -0.606999993       690.013977      -1.34404016    
  -1.84103203     -0.366203994     -0.606999993       690.013977      -1.34404016    
  -1.87709999       0.00000000     -0.606999993       517.506287      -1.28137779    
  -2.59967995       0.00000000     -0.517000020       517.506287      -1.28137779    
  -2.54972792      0.507171988     -0.517000020       517.506287      -1.28137779    
  -1.84103203      0.366203994     -0.606999993       517.506287      -1.28137779    
  -1.84103203      0.366203994     -0.606999993       690.312195      -1.34419012    
  -1.33877206      0.266297996     -0.606999993       690.312195      -1.34419012    
  -1.36500001       0.00000000     -0.606999993       690.312195      -1.34419012    
  -1.87709999       0.00000000     -0.606999993       690.312195      -1.34419012    
  -1.84103203      0.366203994     -0.606999993       522.157776      -1.28405845    
  -2.54972792      0.507171988     -0.517000020       522.157776      -1.28405845    
  -2.40179110      0.994853973     -0.517000020       522.157776      -1.28405845    
  -1.73421395      0.718334973     -0.606999993       522.157776      -1.28405845    
  -1.73421395      0.718334973     -0.606999993       691.968140      -1.34477746    
  -1.26109600      0.522363007     -0.606999993       691.968140      -1.34477746    
  -1.33877206      0.266297996     -0.606999993       691.968140      -1.34477746    
  -1.84103203      0.366203994     -0.606999993       691.968140      -1.34477746    
  -1.73421395      0.718334973     -0.606999993       525.496887      -1.28596413    
  -2.40179110      0.994853973     -0.517000020       525.496887      -1.28596413    
  -2.16155505       1.44430494     -0.517000020       525.496887      -1.28596413    
  -1.56075203       1.04286098     -0.606999993       525.496887      -1.28596413    
  -1.56075203       1.04286098     -0.606999993       692.512451      -1.34499145    
  -1.13495600      0.758352995     -0.606999993       692.512451      -1.34499145    
  -1.26109600      0.522363007     -0.606999993       692.512451      -1.34499145    
  -1.73421395      0.718334973     -0.606999993       692.512451      -1.34499145    
  -1.56075203       1.04286098     -0.606999993       522.414612      -1.28433132    
  -2.16155505       1.44430494     -0.517000020       522.414612      -1.28433132    
  -1.83825099       1.83825099     -0.517000020       522.414612      -1.28433132    
  -1.32730997       1.32730997     -0.606999993       522.414612      -1.28433132    
  -1.32730997       1.32730997     -0.606999993       689.931274      -1.34418428    
 -0.965201020      0.965201020     -0.606999993       689.931274      -1.34418428    
  -1.13495600      0.758352995     -0.606999993       689.931274      -1.34418428    
  -1.56075203       1.04286098     -0.606999993       689.931274      -1.34418428    
  -1.32730997       1.32730997     -0.606999993       515.963074      -1.28077352    
  -1.83825099       1.83825099     -0.517000020       515.963074      -1.28077352    
  -1.44430494       2.16155505     -0.517000020       515.963074      -1.28077352    
  -1.04286098       1.56075203     -0.606999993       515.963074      -1.28077352    
  -1.04286098       1.56075203     -0.606999993       685.783325      -1.34284961    
 -0.758352995       1.13495600     -0.606999993       685.783325      -1.34284961    
 -0.965201020      0.965201020     -0.606999993       685.783325      -1.34284961    
  -1.32730997       1.32730997     -0.606999993       685.783325      -1.34284961    
  -1.04286098       1.56075203     -0.606999993       513.263611      -1.27928150    
  -1.44430494       2.16155505     -0.517000020       513.263611      -1.27928150    
 -0.994853973       2.40179110     -0.517000020       513.263611      -1.27928150    
 -0.718334973       1.73421395     -0.606999993       513.263611      -1.27928150    
 -0.718334973       1.73421395     -0.606999993       683.543823      -1.34213376    
 -0.522363007       1.26109600     -0.606999993       683.543823      -1.34213376    
 -0.758352995       1.13495600     -0.606999993       683.543823      -1.34213376    
  -1.04286098       1.56075203     -0.606999993       683.543823      -1.34213376    
 -0.718334973       1.73421395     -0.606999993       516.789429      -1.28132105    
 -0.994853973       2.40179110     -0.517000020       516.789429      -1.28132105    
 -0.507171988       2.54972792     -0.517000020       516.789429      -1.28132105    
 -0.366203994       1.84103203     -0.606999993       516.789429      -1.28132105    
 -0.366203994       1.84103203     -0.606999993       684.572327      -1.34250557    
 -0.266297996       1.33877206     -0.606999993       684.572327      -1.34250557    
 -0.522363007       1.26109600     -0.606999993       684.572327      -1.34250557    
 -0.718334973       1.73421395     -0.606999993       684.572327      -1.34250557    
 -0.366203994       1.84103203     -0.606999993       521.925232      -1.28422701    
 -0.507171988       2.54972792     -0.517000020       521.925232      -1.28422701    
   0.00000000       2.59967995     -0.517000020       521.925232      -1.28422701    
   0.00000000       1.87709999     -0.606999993       521.925232      -1.28422701    
   0.00000000       1.87709999     -0.606999993       686.599182      -1.34320629    
   0.00000000       1.36500001     -0.606999993       686.599182      -1.34320629    
 -0.266297996       1.33877206     -0.606999993       686.599182      -1.34320629    
 -0.366203994       1.84103203     -0.606999993       686.599182      -1.34320629    
   0.00000000       1.87709999     -0.606999993       521.902283      -1.28424096    
   0.00000000       2.59967995     -0.517000020       521.902283      -1.28424096    
  0.507171988       2.54972792     -0.517000020       521.902283      -1.28424096    
  0.366203994       1.84103203     -0.606999993       521.902283      -1.28424096    
  0.366203994       1.84103203     -0.606999993       686.562805      -1.34321380    
  0.266297996       1.33877206     -0.606999993       686.562805      -1.34321380    
   0.00000000       1.36500001     -0.606999993       686.562805      -1.34321380    
   0.00000000       1.87709999     -0.606999993       686.562805      -1.34321380    
  0.366203994       1.84103203     -0.606999993       516.718445      -1.28135800    
  0.507171988       2.54972792     -0.517000020       516.718445      -1.28135800    
  0.994853973       2.40179110     -0.517000020       516.718445      -1.28135800    
  0.718334973       1.73421395     -0.606999993       516.718445      -1.28135800    
  0.718334973       1.73421395     -0.606999993       684.463135      -1.34253001    
  0.522363007       1.26109600     -0.606999993       684.463135      -1.34253001    
  0.266297996       1.33877206     -0.606999993       684.463135      -1.34253001    
  0.366203994       1.84103203     -0.606999993       684.463135      -1.34253001    
  0.718334973       1.73421395     -0.606999993       513.170410      -1.27933872    
  0.994853973       2.40179110     -0.517000020       513.170410      -1.27933872    
   1.44430494       2.16155505     -0.517000020       513.170410      -1.27933872    
   1.04286098       1.56075203     -0.606999993       513.170410      -1.27933872    
   1.04286098       1.56075203     -0.606999993       683.389648      -1.34217489    
  0.758352995       1.13495600     -0.606999993       683.389648      -1.34217489    
  0.522363007       1.26109600     -0.606999993       683.389648      -1.34217489    
  0.718334973       1.73421395     -0.606999993       683.389648      -1.34217489    
   1.04286098       1.56075203     -0.606999993       515.868591      -1.28084922    
   1.44430494       2.16155505     -0.517000020       515.868591      -1.28084922    
   1.83825099       1.83825099     -0.517000020       515.868591      -1.28084922    
   1.32730997       1.32730997     -0.606999993       515.868591      -1.28084922    
   1.32730997       1.32730997     -0.606999993       685.589355      -1.34289026    
  0.965201020      0.965201020     -0.606999993       685.589355      -1.34289026    
  0.758352995       1.13495600     -0.606999993       685.589355      -1.34289026    
   1.04286098       1.56075203     -0.606999993       685.589355      -1.34289026    
   1.32730997       1.32730997     -0.606999993       522.333801      -1.28440595    
   1.83825099       1.83825099     -0.517000020       522.333801      -1.28440595    
   2.16155505       1.44430494     -0.517000020       522.333801      -1.28440595    
   1.56075203       1.04286098     -0.606999993       522.333801      -1.28440595    
   1.56075203       1.04286098     -0.606999993       689.688904      -1.34420657    
   1.13495600      0.758352995     -0.606999993       689.688904      -1.34420657    
  0.965201020      0.965201020     -0.606999993       689.688904      -1.34420657    
   1.32730997       1.32730997     -0.606999993       689.688904      -1.34420657    
   1.56075203       1.04286098     -0.606999993       525.421814      -1.28600788    
   2.16155505       1.44430494     -0.517000020       525.421814      -1.28600788    
   2.40179110      0.994853973     -0.517000020       525.421814      -1.28600788    
   1.73421395      0.718334973     -0.606999993       525.421814      -1.28600788    
   1.73421395      0.718334973     -0.606999993       692.147400      -1.34496891    
   1.26109600      0.522363007     -0.606999993       692.147400      -1.34496891    
   1.13495600      0.758352995     -0.606999993       692.147400      -1.34496891    
   1.56075203       1.04286098     -0.606999993       692.147400      -1.34496891    
   1.73421395      0.718334973     -0.606999993       522.043640      -1.28403199    
   2.40179110      0.994853973     -0.517000020       522.043640      -1.28403199    
   2.54972792      0.507171988     -0.517000020       522.043640      -1.28403199    
   1.84103203      0.366203994     -0.606999993       522.043640      -1.28403199    
   1.84103203      0.366203994     -0.606999993       691.483765      -1.34469783    
   1.33877206      0.266297996     -0.606999993       691.483765      -1.34469783    
   1.26109600      0.522363007     -0.606999993       691.483765      -1.34469783    
   1.73421395      0.718334973     -0.606999993       691.483765      -1.34469783    
   1.84103203      0.366203994     -0.606999993       517.332764      -1.28125966    
   2.54972792      0.507171988     -0.517000020       517.332764      -1.28125966    
   2.59967995       0.00000000     -0.517000020       517.332764      -1.28125966    
   1.87709999       0.00000000     -0.606999993       517.332764      -1.28125966    
   1.87709999       0.00000000     -0.606999993       689.722839      -1.34404755    
   1.36500001       0.00000000     -0.606999993       689.722839      -1.34404755    
   1.33877206      0.266297996     -0.606999993       689.722839      -1.34404755    
   1.84103203      0.366203994     -0.606999993       689.722839      -1.34404755    
   1.87709999       0.00000000     -0.606999993       516.944153      -1.28089452    
   2.59967995       0.00000000     -0.517000020       516.944153      -1.28089452    
   2.54972792     -0.507171988     -0.517000020       516.944153      -1.28089452    
   1.84103203     -0.366203994     -0.606999993       516.944153      -1.28089452    
   1.84103203     -0.366203994     -0.606999993       689.339111      -1.34383619    
   1.33877206     -0.266297996     -0.606999993       689.339111      -1.34383619    
   1.36500001       0.00000000     -0.606999993       689.339111      -1.34383619    
   1.87709999       0.00000000     -0.606999993       689.339111      -1.34383619    
   1.84103203     -0.366203994     -0.606999993       519.941833      -1.28243005    
   2.54972792     -0.507171988     -0.517000020       519.941833      -1.28243005    
   2.40179110     -0.994853973     -0.517000020       519.941833      -1.28243005    
   1.73421395     -0.718334973     -0.606999993       519.941833      -1.28243005    
   1.73421395     -0.718334973     -0.606999993       689.822937      -1.34389913    
   1.26109600     -0.522363007     -0.606999993       689.822937      -1.34389913    
   1.33877206     -0.266297996     -0.606999993       689.822937      -1.34389913    
   1.84103203     -0.366203994     -0.606999993       689.822937      -1.34389913    
   1.73421395     -0.718334973     -0.606999993       520.218933      -1.28243530    
   2.40179110     -0.994853973     -0.517000020       520.218933      -1.28243530    
   2.16155505      -1.44430494     -0.517000020       520.218933      -1.28243530    
   1.56075203      -1.04286098     -0.606999993       520.218933      -1.28243530    
   1.56075203      -1.04286098     -0.606999993       688.414490      -1.34333718    
   1.13495600     -0.758352995     -0.606999993       688.414490      -1.34333718    
   1.26109600     -0.522363007     -0.606999993       688.414490      -1.34333718    