 VARIABLES="X" "Y" "Z" "abs(p) (Pa)" "angle(p) (rad)"
ZONE N=   2709,E =    2358, F=FEPOINT, ET=QUADRILATERAL
   0.00000000      -5.48999977     -0.157000005       4171.44873      -1.29813886    
   0.00000000      -4.76741982     -0.246999994       4171.44873      -1.29813886    
  0.930077016      -4.67581606     -0.246999994       4171.44873      -1.29813886    
   1.07104599      -5.38451099     -0.157000005       4171.44873      -1.29813886    
  -1.07104599      -5.38451099     -0.157000005       4175.30029      -1.29853272    
 -0.930077016      -4.67581606     -0.246999994       4175.30029      -1.29853272    
   0.00000000      -4.76741982     -0.246999994       4175.30029      -1.29853272    
   0.00000000      -5.48999977     -0.157000005       4175.30029      -1.29853272    
  -2.10093188      -5.07209921     -0.157000005       4058.65552      -1.30398118    
  -1.82441294      -4.40452194     -0.246999994       4058.65552      -1.30398118    
 -0.930077016      -4.67581606     -0.246999994       4058.65552      -1.30398118    
  -1.07104599      -5.38451099     -0.157000005       4058.65552      -1.30398118    
  -3.05008101      -4.56476784     -0.157000005       3705.44775      -1.29875231    
  -2.64863706      -3.96396494     -0.246999994       3705.44775      -1.29875231    
  -1.82441294      -4.40452194     -0.246999994       3705.44775      -1.29875231    
  -2.10093188      -5.07209921     -0.157000005       3705.44775      -1.29875231    
  -3.88201594      -3.88201594     -0.157000005       3250.93579      -1.29877889    
  -3.37107491      -3.37107491     -0.246999994       3250.93579      -1.29877889    
  -2.64863706      -3.96396494     -0.246999994       3250.93579      -1.29877889    
  -3.05008101      -4.56476784     -0.157000005       3250.93579      -1.29877889    
  -4.56476784      -3.05008101     -0.157000005       2708.39233      -1.30613959    
  -3.96396494      -2.64863706     -0.246999994       2708.39233      -1.30613959    
  -3.37107491      -3.37107491     -0.246999994       2708.39233      -1.30613959    
  -3.88201594      -3.88201594     -0.157000005       2708.39233      -1.30613959    
  -5.07209921      -2.10093188     -0.157000005       1990.17859      -1.30018890    
  -4.40452194      -1.82441294     -0.246999994       1990.17859      -1.30018890    
  -3.96396494      -2.64863706     -0.246999994       1990.17859      -1.30018890    
  -4.56476784      -3.05008101     -0.157000005       1990.17859      -1.30018890    
  -5.38451099      -1.07104599     -0.157000005       1218.14160      -1.29715896    
  -4.67581606     -0.930077016     -0.246999994       1218.14160      -1.29715896    
  -4.40452194      -1.82441294     -0.246999994       1218.14160      -1.29715896    
  -5.07209921      -2.10093188     -0.157000005       1218.14160      -1.29715896    
  -5.48999977       0.00000000     -0.157000005       408.628052      -1.29531074    
  -4.76741982       0.00000000     -0.246999994       408.628052      -1.29531074    
  -4.67581606     -0.930077016     -0.246999994       408.628052      -1.29531074    
  -5.38451099      -1.07104599     -0.157000005       408.628052      -1.29531074    
  -5.38451099       1.07104599     -0.157000005       426.656982       1.82808328    
  -4.67581606      0.930077016     -0.246999994       426.656982       1.82808328    
  -4.76741982       0.00000000     -0.246999994       426.656982       1.82808328    
  -5.48999977       0.00000000     -0.157000005       426.656982       1.82808328    
  -5.07209921       2.10093188     -0.157000005       1246.08533       1.83369756    
  -4.40452194       1.82441294     -0.246999994       1246.08533       1.83369756    
  -4.67581606      0.930077016     -0.246999994       1246.08533       1.83369756    
  -5.38451099       1.07104599     -0.157000005       1246.08533       1.83369756    
  -4.56476784       3.05008101     -0.157000005       2014.19373       1.83564782    
  -3.96396494       2.64863706     -0.246999994       2014.19373       1.83564782    
  -4.40452194       1.82441294     -0.246999994       2014.19373       1.83564782    
  -5.07209921       2.10093188     -0.157000005       2014.19373       1.83564782    
  -3.88201594       3.88201594     -0.157000005       2677.09375       1.84166873    
  -3.37107491       3.37107491     -0.246999994       2677.09375       1.84166873    
  -3.96396494       2.64863706     -0.246999994       2677.09375       1.84166873    
  -4.56476784       3.05008101     -0.157000005       2677.09375       1.84166873    
  -3.05008101       4.56476784     -0.157000005       3288.89624       1.83697426    
  -2.64863706       3.96396494     -0.246999994       3288.89624       1.83697426    
  -3.37107491       3.37107491     -0.246999994       3288.89624       1.83697426    
  -3.88201594       3.88201594     -0.157000005       3288.89624       1.83697426    
  -2.10093188       5.07209921     -0.157000005       3712.36792       1.84212101    
  -1.82441294       4.40452194     -0.246999994       3712.36792       1.84212101    
  -2.64863706       3.96396494     -0.246999994       3712.36792       1.84212101    
  -3.05008101       4.56476784     -0.157000005       3712.36792       1.84212101    
  -1.07104599       5.38451099     -0.157000005       4063.30835       1.83745909    
 -0.930077016       4.67581606     -0.246999994       4063.30835       1.83745909    
  -1.82441294       4.40452194     -0.246999994       4063.30835       1.83745909    
  -2.10093188       5.07209921     -0.157000005       4063.30835       1.83745909    
   0.00000000       5.48999977     -0.157000005       4184.58984       1.84263158    
   0.00000000       4.76741982     -0.246999994       4184.58984       1.84263158    
 -0.930077016       4.67581606     -0.246999994       4184.58984       1.84263158    
  -1.07104599       5.38451099     -0.157000005       4184.58984       1.84263158    
   1.07104599       5.38451099     -0.157000005       4222.99951       1.83815527    
  0.930077016       4.67581606     -0.246999994       4222.99951       1.83815527    
   0.00000000       4.76741982     -0.246999994       4222.99951       1.83815527    
   0.00000000       5.48999977     -0.157000005       4222.99951       1.83815527    
   2.10093188       5.07209921     -0.157000005       4021.03857       1.84374964    
   1.82441294       4.40452194     -0.246999994       4021.03857       1.84374964    
  0.930077016       4.67581606     -0.246999994       4021.03857       1.84374964    
   1.07104599       5.38451099     -0.157000005       4021.03857       1.84374964    
   3.05008101       4.56476784     -0.157000005       3707.14819       1.84420168    
   2.64863706       3.96396494     -0.246999994       3707.14819       1.84420168    
   1.82441294       4.40452194     -0.246999994       3707.14819       1.84420168    
   2.10093188       5.07209921     -0.157000005       3707.14819       1.84420168    
   3.88201594       3.88201594     -0.157000005       3293.00952       1.83800685    
   3.37107491       3.37107491     -0.246999994       3293.00952       1.83800685    
   2.64863706       3.96396494     -0.246999994       3293.00952       1.83800685    
   3.05008101       4.56476784     -0.157000005       3293.00952       1.83800685    
   4.56476784       3.05008101     -0.157000005       2703.49731       1.83862257    
   3.96396494       2.64863706     -0.246999994       2703.49731       1.83862257    
   3.37107491       3.37107491     -0.246999994       2703.49731       1.83862257    
   3.88201594       3.88201594     -0.157000005       2703.49731       1.83862257    
   5.07209921       2.10093188     -0.157000005       2017.34863       1.83716702    
   4.40452194       1.82441294     -0.246999994       2017.34863       1.83716702    
   3.96396494       2.64863706     -0.246999994       2017.34863       1.83716702    
   4.56476784       3.05008101     -0.157000005       2017.34863       1.83716702    
   5.38451099       1.07104599     -0.157000005       1225.58386       1.84548628    
   4.67581606      0.930077016     -0.246999994       1225.58386       1.84548628    
   4.40452194       1.82441294     -0.246999994       1225.58386       1.84548628    
   5.07209921       2.10093188     -0.157000005       1225.58386       1.84548628    
   5.48999977       0.00000000     -0.157000005       409.587921       1.85620129    
   4.76741982       0.00000000     -0.246999994       409.587921       1.85620129    
   4.67581606      0.930077016     -0.246999994       409.587921       1.85620129    
   5.38451099       1.07104599     -0.157000005       409.587921       1.85620129    
   5.38451099      -1.07104599     -0.157000005       416.444885      -1.30981648    
   4.67581606     -0.930077016     -0.246999994       416.444885      -1.30981648    
   4.76741982       0.00000000     -0.246999994       416.444885      -1.30981648    
   5.48999977       0.00000000     -0.157000005       416.444885      -1.30981648    
   5.07209921      -2.10093188     -0.157000005       1224.95923      -1.30130923    
   4.40452194      -1.82441294     -0.246999994       1224.95923      -1.30130923    
   4.67581606     -0.930077016     -0.246999994       1224.95923      -1.30130923    
   5.38451099      -1.07104599     -0.157000005       1224.95923      -1.30130923    
   4.56476784      -3.05008101     -0.157000005       1985.53455      -1.29962730    
   3.96396494      -2.64863706     -0.246999994       1985.53455      -1.29962730    
   4.40452194      -1.82441294     -0.246999994       1985.53455      -1.29962730    
   5.07209921      -2.10093188     -0.157000005       1985.53455      -1.29962730    
   3.88201594      -3.88201594     -0.157000005       2671.83838      -1.29964006    
   3.37107491      -3.37107491     -0.246999994       2671.83838      -1.29964006    
   3.96396494      -2.64863706     -0.246999994       2671.83838      -1.29964006    
   4.56476784      -3.05008101     -0.157000005       2671.83838      -1.29964006    
   3.05008101      -4.56476784     -0.157000005       3286.16943      -1.30483699    
   2.64863706      -3.96396494     -0.246999994       3286.16943      -1.30483699    
   3.37107491      -3.37107491     -0.246999994       3286.16943      -1.30483699    
   3.88201594      -3.88201594     -0.157000005       3286.16943      -1.30483699    
   2.10093188      -5.07209921     -0.157000005       3705.22632      -1.29910207    
   1.82441294      -4.40452194     -0.246999994       3705.22632      -1.29910207    
   2.64863706      -3.96396494     -0.246999994       3705.22632      -1.29910207    
   3.05008101      -4.56476784     -0.157000005       3705.22632      -1.29910207    
   1.07104599      -5.38451099     -0.157000005       4012.53027      -1.29825842    
  0.930077016      -4.67581606     -0.246999994       4012.53027      -1.29825842    
   1.82441294      -4.40452194     -0.246999994       4012.53027      -1.29825842    
   2.10093188      -5.07209921     -0.157000005       4012.53027      -1.29825842    
   0.00000000      -1.87709999     -0.606999993       3592.79346      -1.50706124    
   0.00000000      -1.36500001     -0.606999993       3592.79346      -1.50706124    
  0.266297996      -1.33877206     -0.606999993       3592.79346      -1.50706124    
  0.366203994      -1.84103203     -0.606999993       3592.79346      -1.50706124    
   0.00000000      -1.87709999     -0.606999993       4016.34570      -1.49784458    
   0.00000000      -2.59967995     -0.517000020       4016.34570      -1.49784458    
 -0.507171988      -2.54972792     -0.517000020       4016.34570      -1.49784458    
 -0.366203994      -1.84103203     -0.606999993       4016.34570      -1.49784458    
 -0.366203994      -1.84103203     -0.606999993       3594.47510      -1.50704038    
 -0.266297996      -1.33877206     -0.606999993       3594.47510      -1.50704038    
   0.00000000      -1.36500001     -0.606999993       3594.47510      -1.50704038    
   0.00000000      -1.87709999     -0.606999993       3594.47510      -1.50704038    
 -0.366203994      -1.84103203     -0.606999993       3851.80835      -1.49754810    
 -0.507171988      -2.54972792     -0.517000020       3851.80835      -1.49754810    
 -0.994853973      -2.40179110     -0.517000020       3851.80835      -1.49754810    
 -0.718334973      -1.73421395     -0.606999993       3851.80835      -1.49754810    
 -0.718334973      -1.73421395     -0.606999993       3453.09985      -1.50680614    
 -0.522363007      -1.26109600     -0.606999993       3453.09985      -1.50680614    
 -0.266297996      -1.33877206     -0.606999993       3453.09985      -1.50680614    
 -0.366203994      -1.84103203     -0.606999993       3453.09985      -1.50680614    
 -0.718334973      -1.73421395     -0.606999993       3541.74438      -1.49712729    
 -0.994853973      -2.40179110     -0.517000020       3541.74438      -1.49712729    
  -1.44430494      -2.16155505     -0.517000020       3541.74438      -1.49712729    
  -1.04286098      -1.56075203     -0.606999993       3541.74438      -1.49712729    
  -1.04286098      -1.56075203     -0.606999993       3179.63647      -1.50646806    
 -0.758352995      -1.13495600     -0.606999993       3179.63647      -1.50646806    
 -0.522363007      -1.26109600     -0.606999993       3179.63647      -1.50646806    
 -0.718334973      -1.73421395     -0.606999993       3179.63647      -1.50646806    
  -1.04286098      -1.56075203     -0.606999993       3106.00415      -1.49680197    
  -1.44430494      -2.16155505     -0.517000020       3106.00415      -1.49680197    
  -1.83825099      -1.83825099     -0.517000020       3106.00415      -1.49680197    
  -1.32730997      -1.32730997     -0.606999993       3106.00415      -1.49680197    
  -1.32730997      -1.32730997     -0.606999993       2788.16309      -1.50615871    
 -0.965201020     -0.965201020     -0.606999993       2788.16309      -1.50615871    
 -0.758352995      -1.13495600     -0.606999993       2788.16309      -1.50615871    
  -1.04286098      -1.56075203     -0.606999993       2788.16309      -1.50615871    
  -1.32730997      -1.32730997     -0.606999993       2556.18042      -1.49677932    
  -1.83825099      -1.83825099     -0.517000020       2556.18042      -1.49677932    
  -2.16155505      -1.44430494     -0.517000020       2556.18042      -1.49677932    
  -1.56075203      -1.04286098     -0.606999993       2556.18042      -1.49677932    
  -1.56075203      -1.04286098     -0.606999993       2292.00952      -1.50606966    
  -1.13495600     -0.758352995     -0.606999993       2292.00952      -1.50606966    
 -0.965201020     -0.965201020     -0.606999993       2292.00952      -1.50606966    
  -1.32730997      -1.32730997     -0.606999993       2292.00952      -1.50606966    
  -1.56075203      -1.04286098     -0.606999993       1903.88660      -1.49716020    
  -2.16155505      -1.44430494     -0.517000020       1903.88660      -1.49716020    
  -2.40179110     -0.994853973     -0.517000020       1903.88660      -1.49716020    
  -1.73421395     -0.718334973     -0.606999993       1903.88660      -1.49716020    
  -1.73421395     -0.718334973     -0.606999993       1706.04602      -1.50615740    
  -1.26109600     -0.522363007     -0.606999993       1706.04602      -1.50615740    
  -1.13495600     -0.758352995     -0.606999993       1706.04602      -1.50615740    
  -1.56075203      -1.04286098     -0.606999993       1706.04602      -1.50615740    
  -1.73421395     -0.718334973     -0.606999993       1171.52979      -1.49762964    
  -2.40179110     -0.994853973     -0.517000020       1171.52979      -1.49762964    
  -2.54972792     -0.507171988     -0.517000020       1171.52979      -1.49762964    
  -1.84103203     -0.366203994     -0.606999993       1171.52979      -1.49762964    
  -1.84103203     -0.366203994     -0.606999993       1050.77661      -1.50614798    
  -1.33877206     -0.266297996     -0.606999993       1050.77661      -1.50614798    
  -1.26109600     -0.522363007     -0.606999993       1050.77661      -1.50614798    
  -1.73421395     -0.718334973     -0.606999993       1050.77661      -1.50614798    
  -1.84103203     -0.366203994     -0.606999993       392.615631      -1.49698234    
  -2.54972792     -0.507171988     -0.517000020       392.615631      -1.49698234    
  -2.59967995       0.00000000     -0.517000020       392.615631      -1.49698234    
  -1.87709999       0.00000000     -0.606999993       392.615631      -1.49698234    
  -1.87709999       0.00000000     -0.606999993       352.976135      -1.50430083    
  -1.36500001       0.00000000     -0.606999993       352.976135      -1.50430083    
  -1.33877206     -0.266297996     -0.606999993       352.976135      -1.50430083    
  -1.84103203     -0.366203994     -0.606999993       352.976135      -1.50430083    
  -1.87709999       0.00000000     -0.606999993       400.149078       1.64077878    
  -2.59967995       0.00000000     -0.517000020       400.149078       1.64077878    
  -2.54972792      0.507171988     -0.517000020       400.149078       1.64077878    
  -1.84103203      0.366203994     -0.606999993       400.149078       1.64077878    
  -1.84103203      0.366203994     -0.606999993       358.896698       1.63061893    
  -1.33877206      0.266297996     -0.606999993       358.896698       1.63061893    
  -1.36500001       0.00000000     -0.606999993       358.896698       1.63061893    
  -1.87709999       0.00000000     -0.606999993       358.896698       1.63061893    
  -1.84103203      0.366203994     -0.606999993       1179.09631       1.64237571    
  -2.54972792      0.507171988     -0.517000020       1179.09631       1.64237571    
  -2.40179110      0.994853973     -0.517000020       1179.09631       1.64237571    
  -1.73421395      0.718334973     -0.606999993       1179.09631       1.64237571    
  -1.73421395      0.718334973     -0.606999993       1056.99194       1.63297963    
  -1.26109600      0.522363007     -0.606999993       1056.99194       1.63297963    
  -1.33877206      0.266297996     -0.606999993       1056.99194       1.63297963    
  -1.84103203      0.366203994     -0.606999993       1056.99194       1.63297963    
  -1.73421395      0.718334973     -0.606999993       1913.08875       1.64327693    
  -2.40179110      0.994853973     -0.517000020       1913.08875       1.64327693    
  -2.16155505       1.44430494     -0.517000020       1913.08875       1.64327693    
  -1.56075203       1.04286098     -0.606999993       1913.08875       1.64327693    
  -1.56075203       1.04286098     -0.606999993       1713.37085       1.63377655    
  -1.13495600      0.758352995     -0.606999993       1713.37085       1.63377655    
  -1.26109600      0.522363007     -0.606999993       1713.37085       1.63377655    
  -1.73421395      0.718334973     -0.606999993       1713.37085       1.63377655    
  -1.56075203       1.04286098     -0.606999993       2567.78491       1.64397633    
  -2.16155505       1.44430494     -0.517000020       2567.78491       1.64397633    
  -1.83825099       1.83825099     -0.517000020       2567.78491       1.64397633    
  -1.32730997       1.32730997     -0.606999993       2567.78491       1.64397633    
  -1.32730997       1.32730997     -0.606999993       2301.19629       1.63428080    
 -0.965201020      0.965201020     -0.606999993       2301.19629       1.63428080    
  -1.13495600      0.758352995     -0.606999993       2301.19629       1.63428080    
  -1.56075203       1.04286098     -0.606999993       2301.19629       1.63428080    
  -1.32730997       1.32730997     -0.606999993       3118.92529       1.64422965    
  -1.83825099       1.83825099     -0.517000020       3118.92529       1.64422965    
  -1.44430494       2.16155505     -0.517000020       3118.92529       1.64422965    
  -1.04286098       1.56075203     -0.606999993       3118.92529       1.64422965    
  -1.04286098       1.56075203     -0.606999993       2799.15625       1.63450539    
 -0.758352995       1.13495600     -0.606999993       2799.15625       1.63450539    
 -0.965201020      0.965201020     -0.606999993       2799.15625       1.63450539    
  -1.32730997       1.32730997     -0.606999993       2799.15625       1.63450539    
  -1.04286098       1.56075203     -0.606999993       3554.67017       1.64412177    
  -1.44430494       2.16155505     -0.517000020       3554.67017       1.64412177    
 -0.994853973       2.40179110     -0.517000020       3554.67017       1.64412177    
 -0.718334973       1.73421395     -0.606999993       3554.67017       1.64412177    
 -0.718334973       1.73421395     -0.606999993       3192.18555       1.63447034    
 -0.522363007       1.26109600     -0.606999993       3192.18555       1.63447034    
 -0.758352995       1.13495600     -0.606999993       3192.18555       1.63447034    
  -1.04286098       1.56075203     -0.606999993       3192.18555       1.63447034    
 -0.718334973       1.73421395     -0.606999993       3864.43799       1.64382696    
 -0.994853973       2.40179110     -0.517000020       3864.43799       1.64382696    
 -0.507171988       2.54972792     -0.517000020       3864.43799       1.64382696    
 -0.366203994       1.84103203     -0.606999993       3864.43799       1.64382696    
 -0.366203994       1.84103203     -0.606999993       3467.23779       1.63429499    
 -0.266297996       1.33877206     -0.606999993       3467.23779       1.63429499    
 -0.522363007       1.26109600     -0.606999993       3467.23779       1.63429499    
 -0.718334973       1.73421395     -0.606999993       3467.23779       1.63429499    
 -0.366203994       1.84103203     -0.606999993       4029.30811       1.64361393    
 -0.507171988       2.54972792     -0.517000020       4029.30811       1.64361393    
   0.00000000       2.59967995     -0.517000020       4029.30811       1.64361393    
   0.00000000       1.87709999     -0.606999993       4029.30811       1.64361393    
   0.00000000       1.87709999     -0.606999993       3610.41895       1.63417494    
   0.00000000       1.36500001     -0.606999993       3610.41895       1.63417494    
 -0.266297996       1.33877206     -0.606999993       3610.41895       1.63417494    
 -0.366203994       1.84103203     -0.606999993       3610.41895       1.63417494    
   0.00000000       1.87709999     -0.606999993       4029.61719       1.64366508    
   0.00000000       2.59967995     -0.517000020       4029.61719       1.64366508    
  0.507171988       2.54972792     -0.517000020       4029.61719       1.64366508    
  0.366203994       1.84103203     -0.606999993       4029.61719       1.64366508    
  0.366203994       1.84103203     -0.606999993       3610.90674       1.63423169    
  0.266297996       1.33877206     -0.606999993       3610.90674       1.63423169    
   0.00000000       1.36500001     -0.606999993       3610.90674       1.63423169    
   0.00000000       1.87709999     -0.606999993       3610.90674       1.63423169    
  0.366203994       1.84103203     -0.606999993       3865.35400       1.64395547    
  0.507171988       2.54972792     -0.517000020       3865.35400       1.64395547    
  0.994853973       2.40179110     -0.517000020       3865.35400       1.64395547    
  0.718334973       1.73421395     -0.606999993       3865.35400       1.64395547    
  0.718334973       1.73421395     -0.606999993       3468.85596       1.63445652    
  0.522363007       1.26109600     -0.606999993       3468.85596       1.63445652    
  0.266297996       1.33877206     -0.606999993       3468.85596       1.63445652    
  0.366203994       1.84103203     -0.606999993       3468.85596       1.63445652    
  0.718334973       1.73421395     -0.606999993       3556.28247       1.64432418    
  0.994853973       2.40179110     -0.517000020       3556.28247       1.64432418    
   1.44430494       2.16155505     -0.517000020       3556.28247       1.64432418    
   1.04286098       1.56075203     -0.606999993       3556.28247       1.64432418    
   1.04286098       1.56075203     -0.606999993       3195.12354       1.63470972    
  0.758352995       1.13495600     -0.606999993       3195.12354       1.63470972    
  0.522363007       1.26109600     -0.606999993       3195.12354       1.63470972    
  0.718334973       1.73421395     -0.606999993       3195.12354       1.63470972    
   1.04286098       1.56075203     -0.606999993       3121.32031       1.64452255    
   1.44430494       2.16155505     -0.517000020       3121.32031       1.64452255    
   1.83825099       1.83825099     -0.517000020       3121.32031       1.64452255    
   1.32730997       1.32730997     -0.606999993       3121.32031       1.64452255    
   1.32730997       1.32730997     -0.606999993       2803.47095       1.63485599    
  0.965201020      0.965201020     -0.606999993       2803.47095       1.63485599    
  0.758352995       1.13495600     -0.606999993       2803.47095       1.63485599    
   1.04286098       1.56075203     -0.606999993       2803.47095       1.63485599    
   1.32730997       1.32730997     -0.606999993       2570.87720       1.64435208    
   1.83825099       1.83825099     -0.517000020       2570.87720       1.64435208    
   2.16155505       1.44430494     -0.517000020       2570.87720       1.64435208    
   1.56075203       1.04286098     -0.606999993       2570.87720       1.64435208    
   1.56075203       1.04286098     -0.606999993       2306.90796       1.63478112    
   1.13495600      0.758352995     -0.606999993       2306.90796       1.63478112    
  0.965201020      0.965201020     -0.606999993       2306.90796       1.63478112    
   1.32730997       1.32730997     -0.606999993       2306.90796       1.63478112    
   1.56075203       1.04286098     -0.606999993       1916.70459       1.64381480    
   2.16155505       1.44430494     -0.517000020       1916.70459       1.64381480    
   2.40179110      0.994853973     -0.517000020       1916.70459       1.64381480    
   1.73421395      0.718334973     -0.606999993       1916.70459       1.64381480    
   1.73421395      0.718334973     -0.606999993       1720.30054       1.63447464    
   1.26109600      0.522363007     -0.606999993       1720.30054       1.63447464    
   1.13495600      0.758352995     -0.606999993       1720.30054       1.63447464    
   1.56075203       1.04286098     -0.606999993       1720.30054       1.63447464    
   1.73421395      0.718334973     -0.606999993       1183.01843       1.64324117    
   2.40179110      0.994853973     -0.517000020       1183.01843       1.64324117    
   2.54972792      0.507171988     -0.517000020       1183.01843       1.64324117    
   1.84103203      0.366203994     -0.606999993       1183.01843       1.64324117    
   1.84103203      0.366203994     -0.606999993       1064.90906       1.63409138    
   1.33877206      0.266297996     -0.606999993       1064.90906       1.63409138    
   1.26109600      0.522363007     -0.606999993       1064.90906       1.63409138    
   1.73421395      0.718334973     -0.606999993       1064.90906       1.63409138    
   1.84103203      0.366203994     -0.606999993       404.380188       1.64311957    
   2.54972792      0.507171988     -0.517000020       404.380188       1.64311957    
   2.59967995       0.00000000     -0.517000020       404.380188       1.64311957    
   1.87709999       0.00000000     -0.606999993       404.380188       1.64311957    
   1.87709999       0.00000000     -0.606999993       367.750885       1.63367784    
   1.36500001       0.00000000     -0.606999993       367.750885       1.63367784    
   1.33877206      0.266297996     -0.606999993       367.750885       1.63367784    
   1.84103203      0.366203994     -0.606999993       367.750885       1.63367784    
   1.87709999       0.00000000     -0.606999993       388.019409      -1.49902248    
   2.59967995       0.00000000     -0.517000020       388.019409      -1.49902248    
   2.54972792     -0.507171988     -0.517000020       388.019409      -1.49902248    
   1.84103203     -0.366203994     -0.606999993       388.019409      -1.49902248    
   1.84103203     -0.366203994     -0.606999993       343.278412      -1.50699377    
   1.33877206     -0.266297996     -0.606999993       343.278412      -1.50699377    
   1.36500001       0.00000000     -0.606999993       343.278412      -1.50699377    
   1.87709999       0.00000000     -0.606999993       343.278412      -1.50699377    
   1.84103203     -0.366203994     -0.606999993       1166.53259      -1.49814546    
   2.54972792     -0.507171988     -0.517000020       1166.53259      -1.49814546    
   2.40179110     -0.994853973     -0.517000020       1166.53259      -1.49814546    
   1.73421395     -0.718334973     -0.606999993       1166.53259      -1.49814546    
   1.73421395     -0.718334973     -0.606999993       1040.45459      -1.50688815    
   1.26109600     -0.522363007     -0.606999993       1040.45459      -1.50688815    
   1.33877206     -0.266297996     -0.606999993       1040.45459      -1.50688815    
   1.84103203     -0.366203994     -0.606999993       1040.45459      -1.50688815    
   1.73421395     -0.718334973     -0.606999993       1898.57373      -1.49738717    
   2.40179110     -0.994853973     -0.517000020       1898.57373      -1.49738717    
   2.16155505      -1.44430494     -0.517000020       1898.57373      -1.49738717    
   1.56075203      -1.04286098     -0.606999993       1898.57373      -1.49738717    
   1.56075203      -1.04286098     -0.606999993       1695.40869      -1.50651896    
   1.13495600     -0.758352995     -0.606999993       1695.40869      -1.50651896    
   1.26109600     -0.522363007     -0.606999993       1695.40869      -1.50651896    