 VARIABLES="X" "Y" "Z" "abs(p) (Pa)" "angle(p) (rad)"
ZONE N=   2709,E =    2358, F=FEPOINT, ET=QUADRILATERAL
   0.00000000      -5.48999977     -0.157000005       35.7143555     -0.182253018    
   0.00000000      -4.76741982     -0.246999994       35.7143555     -0.182253018    
  0.930077016      -4.67581606     -0.246999994       35.7143555     -0.182253018    
   1.07104599      -5.38451099     -0.157000005       35.7143555     -0.182253018    
  -1.07104599      -5.38451099     -0.157000005       36.1186790       2.94368362    
 -0.930077016      -4.67581606     -0.246999994       36.1186790       2.94368362    
   0.00000000      -4.76741982     -0.246999994       36.1186790       2.94368362    
   0.00000000      -5.48999977     -0.157000005       36.1186790       2.94368362    
  -2.10093188      -5.07209921     -0.157000005       104.072960       2.95311689    
  -1.82441294      -4.40452194     -0.246999994       104.072960       2.95311689    
 -0.930077016      -4.67581606     -0.246999994       104.072960       2.95311689    
  -1.07104599      -5.38451099     -0.157000005       104.072960       2.95311689    
  -3.05008101      -4.56476784     -0.157000005       171.688705       2.94174385    
  -2.64863706      -3.96396494     -0.246999994       171.688705       2.94174385    
  -1.82441294      -4.40452194     -0.246999994       171.688705       2.94174385    
  -2.10093188      -5.07209921     -0.157000005       171.688705       2.94174385    
  -3.88201594      -3.88201594     -0.157000005       229.252258       2.94227719    
  -3.37107491      -3.37107491     -0.246999994       229.252258       2.94227719    
  -2.64863706      -3.96396494     -0.246999994       229.252258       2.94227719    
  -3.05008101      -4.56476784     -0.157000005       229.252258       2.94227719    
  -4.56476784      -3.05008101     -0.157000005       271.952698       2.95642853    
  -3.96396494      -2.64863706     -0.246999994       271.952698       2.95642853    
  -3.37107491      -3.37107491     -0.246999994       271.952698       2.95642853    
  -3.88201594      -3.88201594     -0.157000005       271.952698       2.95642853    
  -5.07209921      -2.10093188     -0.157000005       317.663452       2.94714975    
  -4.40452194      -1.82441294     -0.246999994       317.663452       2.94714975    
  -3.96396494      -2.64863706     -0.246999994       317.663452       2.94714975    
  -4.56476784      -3.05008101     -0.157000005       317.663452       2.94714975    
  -5.38451099      -1.07104599     -0.157000005       346.749664       2.95023012    
  -4.67581606     -0.930077016     -0.246999994       346.749664       2.95023012    
  -4.40452194      -1.82441294     -0.246999994       346.749664       2.95023012    
  -5.07209921      -2.10093188     -0.157000005       346.749664       2.95023012    
  -5.48999977       0.00000000     -0.157000005       353.654388       2.96575022    
  -4.76741982       0.00000000     -0.246999994       353.654388       2.96575022    
  -4.67581606     -0.930077016     -0.246999994       353.654388       2.96575022    
  -5.38451099      -1.07104599     -0.157000005       353.654388       2.96575022    
  -5.38451099       1.07104599     -0.157000005       353.119019       2.97098255    
  -4.67581606      0.930077016     -0.246999994       353.119019       2.97098255    
  -4.76741982       0.00000000     -0.246999994       353.119019       2.97098255    
  -5.48999977       0.00000000     -0.157000005       353.119019       2.97098255    
  -5.07209921       2.10093188     -0.157000005       339.298828       2.97382760    
  -4.40452194       1.82441294     -0.246999994       339.298828       2.97382760    
  -4.67581606      0.930077016     -0.246999994       339.298828       2.97382760    
  -5.38451099       1.07104599     -0.157000005       339.298828       2.97382760    
  -4.56476784       3.05008101     -0.157000005       312.604401       2.97438645    
  -3.96396494       2.64863706     -0.246999994       312.604401       2.97438645    
  -4.40452194       1.82441294     -0.246999994       312.604401       2.97438645    
  -5.07209921       2.10093188     -0.157000005       312.604401       2.97438645    
  -3.88201594       3.88201594     -0.157000005       279.336945       2.96331191    
  -3.37107491       3.37107491     -0.246999994       279.336945       2.96331191    
  -3.96396494       2.64863706     -0.246999994       279.336945       2.96331191    
  -4.56476784       3.05008101     -0.157000005       279.336945       2.96331191    
  -3.05008101       4.56476784     -0.157000005       225.200882       2.97157240    
  -2.64863706       3.96396494     -0.246999994       225.200882       2.97157240    
  -3.37107491       3.37107491     -0.246999994       225.200882       2.97157240    
  -3.88201594       3.88201594     -0.157000005       225.200882       2.97157240    
  -2.10093188       5.07209921     -0.157000005       170.594376       2.96023083    
  -1.82441294       4.40452194     -0.246999994       170.594376       2.96023083    
  -2.64863706       3.96396494     -0.246999994       170.594376       2.96023083    
  -3.05008101       4.56476784     -0.157000005       170.594376       2.96023083    
  -1.07104599       5.38451099     -0.157000005       103.570023       2.96830583    
 -0.930077016       4.67581606     -0.246999994       103.570023       2.96830583    
  -1.82441294       4.40452194     -0.246999994       103.570023       2.96830583    
  -2.10093188       5.07209921     -0.157000005       103.570023       2.96830583    
   0.00000000       5.48999977     -0.157000005       35.5208778       2.96065998    
   0.00000000       4.76741982     -0.246999994       35.5208778       2.96065998    
 -0.930077016       4.67581606     -0.246999994       35.5208778       2.96065998    
  -1.07104599       5.38451099     -0.157000005       35.5208778       2.96065998    
   1.07104599       5.38451099     -0.157000005       35.1175842     -0.191927850    
  0.930077016       4.67581606     -0.246999994       35.1175842     -0.191927850    
   0.00000000       4.76741982     -0.246999994       35.1175842     -0.191927850    
   0.00000000       5.48999977     -0.157000005       35.1175842     -0.191927850    
   2.10093188       5.07209921     -0.157000005       106.242195     -0.199085161    
   1.82441294       4.40452194     -0.246999994       106.242195     -0.199085161    
  0.930077016       4.67581606     -0.246999994       106.242195     -0.199085161    
   1.07104599       5.38451099     -0.157000005       106.242195     -0.199085161    
   3.05008101       4.56476784     -0.157000005       171.505524     -0.199609935    
   2.64863706       3.96396494     -0.246999994       171.505524     -0.199609935    
   1.82441294       4.40452194     -0.246999994       171.505524     -0.199609935    
   2.10093188       5.07209921     -0.157000005       171.505524     -0.199609935    
   3.88201594       3.88201594     -0.157000005       224.199890     -0.188296884    
   3.37107491       3.37107491     -0.246999994       224.199890     -0.188296884    
   2.64863706       3.96396494     -0.246999994       224.199890     -0.188296884    
   3.05008101       4.56476784     -0.157000005       224.199890     -0.188296884    
   4.56476784       3.05008101     -0.157000005       274.096069     -0.189824790    
   3.96396494       2.64863706     -0.246999994       274.096069     -0.189824790    
   3.37107491       3.37107491     -0.246999994       274.096069     -0.189824790    
   3.88201594       3.88201594     -0.157000005       274.096069     -0.189824790    
   5.07209921       2.10093188     -0.157000005       311.088959     -0.184394911    
   4.40452194       1.82441294     -0.246999994       311.088959     -0.184394911    
   3.96396494       2.64863706     -0.246999994       311.088959     -0.184394911    
   4.56476784       3.05008101     -0.157000005       311.088959     -0.184394911    
   5.38451099       1.07104599     -0.157000005       347.175629     -0.193596154    
   4.67581606      0.930077016     -0.246999994       347.175629     -0.193596154    
   4.40452194       1.82441294     -0.246999994       347.175629     -0.193596154    
   5.07209921       2.10093188     -0.157000005       347.175629     -0.193596154    
   5.48999977       0.00000000     -0.157000005       362.740540     -0.192224339    
   4.76741982       0.00000000     -0.246999994       362.740540     -0.192224339    
   4.67581606      0.930077016     -0.246999994       362.740540     -0.192224339    
   5.38451099       1.07104599     -0.157000005       362.740540     -0.192224339    
   5.38451099      -1.07104599     -0.157000005       362.609558     -0.189525932    
   4.67581606     -0.930077016     -0.246999994       362.609558     -0.189525932    
   4.76741982       0.00000000     -0.246999994       362.609558     -0.189525932    
   5.48999977       0.00000000     -0.157000005       362.609558     -0.189525932    
   5.07209921      -2.10093188     -0.157000005       348.162048     -0.187326923    
   4.40452194      -1.82441294     -0.246999994       348.162048     -0.187326923    
   4.67581606     -0.930077016     -0.246999994       348.162048     -0.187326923    
   5.38451099      -1.07104599     -0.157000005       348.162048     -0.187326923    
   4.56476784      -3.05008101     -0.157000005       320.457031     -0.185927212    
   3.96396494      -2.64863706     -0.246999994       320.457031     -0.185927212    
   4.40452194      -1.82441294     -0.246999994       320.457031     -0.185927212    
   5.07209921      -2.10093188     -0.157000005       320.457031     -0.185927212    
   3.88201594      -3.88201594     -0.157000005       280.552368     -0.184567139    
   3.37107491      -3.37107491     -0.246999994       280.552368     -0.184567139    
   3.96396494      -2.64863706     -0.246999994       280.552368     -0.184567139    
   4.56476784      -3.05008101     -0.157000005       280.552368     -0.184567139    
   3.05008101      -4.56476784     -0.157000005       225.929993     -0.173365235    
   2.64863706      -3.96396494     -0.246999994       225.929993     -0.173365235    
   3.37107491      -3.37107491     -0.246999994       225.929993     -0.173365235    
   3.88201594      -3.88201594     -0.157000005       225.929993     -0.173365235    
   2.10093188      -5.07209921     -0.157000005       171.457016     -0.183228418    
   1.82441294      -4.40452194     -0.246999994       171.457016     -0.183228418    
   2.64863706      -3.96396494     -0.246999994       171.457016     -0.183228418    
   3.05008101      -4.56476784     -0.157000005       171.457016     -0.183228418    
   1.07104599      -5.38451099     -0.157000005       106.143440     -0.184989542    
  0.930077016      -4.67581606     -0.246999994       106.143440     -0.184989542    
   1.82441294      -4.40452194     -0.246999994       106.143440     -0.184989542    
   2.10093188      -5.07209921     -0.157000005       106.143440     -0.184989542    
   0.00000000      -1.87709999     -0.606999993       84.7728500       1.50768435    
   0.00000000      -1.36500001     -0.606999993       84.7728500       1.50768435    
  0.266297996      -1.33877206     -0.606999993       84.7728500       1.50768435    
  0.366203994      -1.84103203     -0.606999993       84.7728500       1.50768435    
   0.00000000      -1.87709999     -0.606999993       30.9878826      -1.76669621    
   0.00000000      -2.59967995     -0.517000020       30.9878826      -1.76669621    
 -0.507171988      -2.54972792     -0.517000020       30.9878826      -1.76669621    
 -0.366203994      -1.84103203     -0.606999993       30.9878826      -1.76669621    
 -0.366203994      -1.84103203     -0.606999993       89.0804520      -1.62895143    
 -0.266297996      -1.33877206     -0.606999993       89.0804520      -1.62895143    
   0.00000000      -1.36500001     -0.606999993       89.0804520      -1.62895143    
   0.00000000      -1.87709999     -0.606999993       89.0804520      -1.62895143    
 -0.366203994      -1.84103203     -0.606999993       92.2924957      -1.76403379    
 -0.507171988      -2.54972792     -0.517000020       92.2924957      -1.76403379    
 -0.994853973      -2.40179110     -0.517000020       92.2924957      -1.76403379    
 -0.718334973      -1.73421395     -0.606999993       92.2924957      -1.76403379    
 -0.718334973      -1.73421395     -0.606999993       259.495789      -1.63020158    
 -0.522363007      -1.26109600     -0.606999993       259.495789      -1.63020158    
 -0.266297996      -1.33877206     -0.606999993       259.495789      -1.63020158    
 -0.366203994      -1.84103203     -0.606999993       259.495789      -1.63020158    
 -0.718334973      -1.73421395     -0.606999993       150.152344      -1.76095402    
 -0.994853973      -2.40179110     -0.517000020       150.152344      -1.76095402    
  -1.44430494      -2.16155505     -0.517000020       150.152344      -1.76095402    
  -1.04286098      -1.56075203     -0.606999993       150.152344      -1.76095402    
  -1.04286098      -1.56075203     -0.606999993       420.181946      -1.62992930    
 -0.758352995      -1.13495600     -0.606999993       420.181946      -1.62992930    
 -0.522363007      -1.26109600     -0.606999993       420.181946      -1.62992930    
 -0.718334973      -1.73421395     -0.606999993       420.181946      -1.62992930    
  -1.04286098      -1.56075203     -0.606999993       202.723145      -1.75849712    
  -1.44430494      -2.16155505     -0.517000020       202.723145      -1.75849712    
  -1.83825099      -1.83825099     -0.517000020       202.723145      -1.75849712    
  -1.32730997      -1.32730997     -0.606999993       202.723145      -1.75849712    
  -1.32730997      -1.32730997     -0.606999993       565.185791      -1.62958884    
 -0.965201020     -0.965201020     -0.606999993       565.185791      -1.62958884    
 -0.758352995      -1.13495600     -0.606999993       565.185791      -1.62958884    
  -1.04286098      -1.56075203     -0.606999993       565.185791      -1.62958884    
  -1.32730997      -1.32730997     -0.606999993       248.102692      -1.75724554    
  -1.83825099      -1.83825099     -0.517000020       248.102692      -1.75724554    
  -2.16155505      -1.44430494     -0.517000020       248.102692      -1.75724554    
  -1.56075203      -1.04286098     -0.606999993       248.102692      -1.75724554    
  -1.56075203      -1.04286098     -0.606999993       689.160522      -1.62938023    
  -1.13495600     -0.758352995     -0.606999993       689.160522      -1.62938023    
 -0.965201020     -0.965201020     -0.606999993       689.160522      -1.62938023    
  -1.32730997      -1.32730997     -0.606999993       689.160522      -1.62938023    
  -1.56075203      -1.04286098     -0.606999993       284.125488      -1.75699806    
  -2.16155505      -1.44430494     -0.517000020       284.125488      -1.75699806    
  -2.40179110     -0.994853973     -0.517000020       284.125488      -1.75699806    
  -1.73421395     -0.718334973     -0.606999993       284.125488      -1.75699806    
  -1.73421395     -0.718334973     -0.606999993       787.441772      -1.62930572    
  -1.26109600     -0.522363007     -0.606999993       787.441772      -1.62930572    
  -1.13495600     -0.758352995     -0.606999993       787.441772      -1.62930572    
  -1.56075203      -1.04286098     -0.606999993       787.441772      -1.62930572    
  -1.73421395     -0.718334973     -0.606999993       308.937073      -1.75710762    
  -2.40179110     -0.994853973     -0.517000020       308.937073      -1.75710762    
  -2.54972792     -0.507171988     -0.517000020       308.937073      -1.75710762    
  -1.84103203     -0.366203994     -0.606999993       308.937073      -1.75710762    
  -1.84103203     -0.366203994     -0.606999993       855.772949      -1.62928402    
  -1.33877206     -0.266297996     -0.606999993       855.772949      -1.62928402    
  -1.26109600     -0.522363007     -0.606999993       855.772949      -1.62928402    
  -1.73421395     -0.718334973     -0.606999993       855.772949      -1.62928402    
  -1.84103203     -0.366203994     -0.606999993       321.768646      -1.75701416    
  -2.54972792     -0.507171988     -0.517000020       321.768646      -1.75701416    
  -2.59967995       0.00000000     -0.517000020       321.768646      -1.75701416    
  -1.87709999       0.00000000     -0.606999993       321.768646      -1.75701416    
  -1.87709999       0.00000000     -0.606999993       891.328857      -1.62923634    
  -1.36500001       0.00000000     -0.606999993       891.328857      -1.62923634    
  -1.33877206     -0.266297996     -0.606999993       891.328857      -1.62923634    
  -1.84103203     -0.366203994     -0.606999993       891.328857      -1.62923634    
  -1.87709999       0.00000000     -0.606999993       322.656067      -1.75648928    
  -2.59967995       0.00000000     -0.517000020       322.656067      -1.75648928    
  -2.54972792      0.507171988     -0.517000020       322.656067      -1.75648928    
  -1.84103203      0.366203994     -0.606999993       322.656067      -1.75648928    
  -1.84103203      0.366203994     -0.606999993       892.844543      -1.62910998    
  -1.33877206      0.266297996     -0.606999993       892.844543      -1.62910998    
  -1.36500001       0.00000000     -0.606999993       892.844543      -1.62910998    
  -1.87709999       0.00000000     -0.606999993       892.844543      -1.62910998    
  -1.84103203      0.366203994     -0.606999993       311.569702      -1.75550640    
  -2.54972792      0.507171988     -0.517000020       311.569702      -1.75550640    
  -2.40179110      0.994853973     -0.517000020       311.569702      -1.75550640    
  -1.73421395      0.718334973     -0.606999993       311.569702      -1.75550640    
  -1.73421395      0.718334973     -0.606999993       860.151611      -1.62890279    
  -1.26109600      0.522363007     -0.606999993       860.151611      -1.62890279    
  -1.33877206      0.266297996     -0.606999993       860.151611      -1.62890279    
  -1.84103203      0.366203994     -0.606999993       860.151611      -1.62890279    
  -1.73421395      0.718334973     -0.606999993       288.306061      -1.75424540    
  -2.40179110      0.994853973     -0.517000020       288.306061      -1.75424540    
  -2.16155505       1.44430494     -0.517000020       288.306061      -1.75424540    
  -1.56075203       1.04286098     -0.606999993       288.306061      -1.75424540    
  -1.56075203       1.04286098     -0.606999993       794.113892      -1.62866557    
  -1.13495600      0.758352995     -0.606999993       794.113892      -1.62866557    
  -1.26109600      0.522363007     -0.606999993       794.113892      -1.62866557    
  -1.73421395      0.718334973     -0.606999993       794.113892      -1.62866557    
  -1.56075203       1.04286098     -0.606999993       253.271851      -1.75318098    
  -2.16155505       1.44430494     -0.517000020       253.271851      -1.75318098    
  -1.83825099       1.83825099     -0.517000020       253.271851      -1.75318098    
  -1.32730997       1.32730997     -0.606999993       253.271851      -1.75318098    
  -1.32730997       1.32730997     -0.606999993       696.961792      -1.62849331    
 -0.965201020      0.965201020     -0.606999993       696.961792      -1.62849331    
  -1.13495600      0.758352995     -0.606999993       696.961792      -1.62849331    
  -1.56075203       1.04286098     -0.606999993       696.961792      -1.62849331    
  -1.32730997       1.32730997     -0.606999993       208.082382      -1.75294197    
  -1.83825099       1.83825099     -0.517000020       208.082382      -1.75294197    
  -1.44430494       2.16155505     -0.517000020       208.082382      -1.75294197    
  -1.04286098       1.56075203     -0.606999993       208.082382      -1.75294197    
  -1.04286098       1.56075203     -0.606999993       572.534241      -1.62851417    
 -0.758352995       1.13495600     -0.606999993       572.534241      -1.62851417    
 -0.965201020      0.965201020     -0.606999993       572.534241      -1.62851417    
  -1.32730997       1.32730997     -0.606999993       572.534241      -1.62851417    
  -1.04286098       1.56075203     -0.606999993       154.979660      -1.75375772    
  -1.44430494       2.16155505     -0.517000020       154.979660      -1.75375772    
 -0.994853973       2.40179110     -0.517000020       154.979660      -1.75375772    
 -0.718334973       1.73421395     -0.606999993       154.979660      -1.75375772    
 -0.718334973       1.73421395     -0.606999993       425.740540      -1.62879097    
 -0.522363007       1.26109600     -0.606999993       425.740540      -1.62879097    
 -0.758352995       1.13495600     -0.606999993       425.740540      -1.62879097    
  -1.04286098       1.56075203     -0.606999993       425.740540      -1.62879097    
 -0.718334973       1.73421395     -0.606999993       96.0873337      -1.75463831    
 -0.994853973       2.40179110     -0.517000020       96.0873337      -1.75463831    
 -0.507171988       2.54972792     -0.517000020       96.0873337      -1.75463831    
 -0.366203994       1.84103203     -0.606999993       96.0873337      -1.75463831    
 -0.366203994       1.84103203     -0.606999993       262.433533      -1.62925625    
 -0.266297996       1.33877206     -0.606999993       262.433533      -1.62925625    
 -0.522363007       1.26109600     -0.606999993       262.433533      -1.62925625    
 -0.718334973       1.73421395     -0.606999993       262.433533      -1.62925625    
 -0.366203994       1.84103203     -0.606999993       33.4736786      -1.75007820    
 -0.507171988       2.54972792     -0.517000020       33.4736786      -1.75007820    
   0.00000000       2.59967995     -0.517000020       33.4736786      -1.75007820    
   0.00000000       1.87709999     -0.606999993       33.4736786      -1.75007820    
   0.00000000       1.87709999     -0.606999993       88.8424911      -1.63012099    
   0.00000000       1.36500001     -0.606999993       88.8424911      -1.63012099    
 -0.266297996       1.33877206     -0.606999993       88.8424911      -1.63012099    
 -0.366203994       1.84103203     -0.606999993       88.8424911      -1.63012099    
   0.00000000       1.87709999     -0.606999993       30.5107594       1.37215257    
   0.00000000       2.59967995     -0.517000020       30.5107594       1.37215257    
  0.507171988       2.54972792     -0.517000020       30.5107594       1.37215257    
  0.366203994       1.84103203     -0.606999993       30.5107594       1.37215257    
  0.366203994       1.84103203     -0.606999993       88.2062759       1.51295817    
  0.266297996       1.33877206     -0.606999993       88.2062759       1.51295817    
   0.00000000       1.36500001     -0.606999993       88.2062759       1.51295817    
   0.00000000       1.87709999     -0.606999993       88.2062759       1.51295817    
  0.366203994       1.84103203     -0.606999993       93.2530746       1.38066792    
  0.507171988       2.54972792     -0.517000020       93.2530746       1.38066792    
  0.994853973       2.40179110     -0.517000020       93.2530746       1.38066792    
  0.718334973       1.73421395     -0.606999993       93.2530746       1.38066792    
  0.718334973       1.73421395     -0.606999993       261.862610       1.51264703    
  0.522363007       1.26109600     -0.606999993       261.862610       1.51264703    
  0.266297996       1.33877206     -0.606999993       261.862610       1.51264703    
  0.366203994       1.84103203     -0.606999993       261.862610       1.51264703    
  0.718334973       1.73421395     -0.606999993       152.374817       1.38422465    
  0.994853973       2.40179110     -0.517000020       152.374817       1.38422465    
   1.44430494       2.16155505     -0.517000020       152.374817       1.38422465    
   1.04286098       1.56075203     -0.606999993       152.374817       1.38422465    
   1.04286098       1.56075203     -0.606999993       425.372803       1.51288021    
  0.758352995       1.13495600     -0.606999993       425.372803       1.51288021    
  0.522363007       1.26109600     -0.606999993       425.372803       1.51288021    
  0.718334973       1.73421395     -0.606999993       425.372803       1.51288021    
   1.04286098       1.56075203     -0.606999993       205.821472       1.38617623    
   1.44430494       2.16155505     -0.517000020       205.821472       1.38617623    
   1.83825099       1.83825099     -0.517000020       205.821472       1.38617623    
   1.32730997       1.32730997     -0.606999993       205.821472       1.38617623    
   1.32730997       1.32730997     -0.606999993       572.398804       1.51298273    
  0.965201020      0.965201020     -0.606999993       572.398804       1.51298273    
  0.758352995       1.13495600     -0.606999993       572.398804       1.51298273    
   1.04286098       1.56075203     -0.606999993       572.398804       1.51298273    
   1.32730997       1.32730997     -0.606999993       251.418259       1.38648427    
   1.83825099       1.83825099     -0.517000020       251.418259       1.38648427    
   2.16155505       1.44430494     -0.517000020       251.418259       1.38648427    
   1.56075203       1.04286098     -0.606999993       251.418259       1.38648427    
   1.56075203       1.04286098     -0.606999993       696.997986       1.51285493    
   1.13495600      0.758352995     -0.606999993       696.997986       1.51285493    
  0.965201020      0.965201020     -0.606999993       696.997986       1.51285493    
   1.32730997       1.32730997     -0.606999993       696.997986       1.51285493    
   1.56075203       1.04286098     -0.606999993       286.842468       1.38561141    
   2.16155505       1.44430494     -0.517000020       286.842468       1.38561141    
   2.40179110      0.994853973     -0.517000020       286.842468       1.38561141    
   1.73421395      0.718334973     -0.606999993       286.842468       1.38561141    
   1.73421395      0.718334973     -0.606999993       793.945923       1.51253784    
   1.26109600      0.522363007     -0.606999993       793.945923       1.51253784    
   1.13495600      0.758352995     -0.606999993       793.945923       1.51253784    
   1.56075203       1.04286098     -0.606999993       793.945923       1.51253784    
   1.73421395      0.718334973     -0.606999993       310.476746       1.38438797    
   2.40179110      0.994853973     -0.517000020       310.476746       1.38438797    
   2.54972792      0.507171988     -0.517000020       310.476746       1.38438797    
   1.84103203      0.366203994     -0.606999993       310.476746       1.38438797    
   1.84103203      0.366203994     -0.606999993       859.774048       1.51217902    
   1.33877206      0.266297996     -0.606999993       859.774048       1.51217902    
   1.26109600      0.522363007     -0.606999993       859.774048       1.51217902    
   1.73421395      0.718334973     -0.606999993       859.774048       1.51217902    
   1.84103203      0.366203994     -0.606999993       321.984253       1.38345516    
   2.54972792      0.507171988     -0.517000020       321.984253       1.38345516    
   2.59967995       0.00000000     -0.517000020       321.984253       1.38345516    
   1.87709999       0.00000000     -0.606999993       321.984253       1.38345516    
   1.87709999       0.00000000     -0.606999993       892.372620       1.51188374    
   1.36500001       0.00000000     -0.606999993       892.372620       1.51188374    
   1.33877206      0.266297996     -0.606999993       892.372620       1.51188374    
   1.84103203      0.366203994     -0.606999993       892.372620       1.51188374    
   1.87709999       0.00000000     -0.606999993       321.560791       1.38306212    
   2.59967995       0.00000000     -0.517000020       321.560791       1.38306212    
   2.54972792     -0.507171988     -0.517000020       321.560791       1.38306212    
   1.84103203     -0.366203994     -0.606999993       321.560791       1.38306212    
   1.84103203     -0.366203994     -0.606999993       890.725220       1.51169109    
   1.33877206     -0.266297996     -0.606999993       890.725220       1.51169109    
   1.36500001       0.00000000     -0.606999993       890.725220       1.51169109    
   1.87709999       0.00000000     -0.606999993       890.725220       1.51169109    
   1.84103203     -0.366203994     -0.606999993       309.153595       1.38317561    
   2.54972792     -0.507171988     -0.517000020       309.153595       1.38317561    
   2.40179110     -0.994853973     -0.517000020       309.153595       1.38317561    
   1.73421395     -0.718334973     -0.606999993       309.153595       1.38317561    
   1.73421395     -0.718334973     -0.606999993       855.001526       1.51159871    
   1.26109600     -0.522363007     -0.606999993       855.001526       1.51159871    
   1.33877206     -0.266297996     -0.606999993       855.001526       1.51159871    
   1.84103203     -0.366203994     -0.606999993       855.001526       1.51159871    
   1.73421395     -0.718334973     -0.606999993       284.649261       1.38352048    
   2.40179110     -0.994853973     -0.517000020       284.649261       1.38352048    
   2.16155505      -1.44430494     -0.517000020       284.649261       1.38352048    
   1.56075203      -1.04286098     -0.606999993       284.649261       1.38352048    
   1.56075203      -1.04286098     -0.606999993       786.443298       1.51154947    
   1.13495600     -0.758352995     -0.606999993       786.443298       1.51154947    
   1.26109600     -0.522363007     -0.606999993       786.443298       1.51154947    