 VARIABLES="X" "Y" "Z" "abs(p) (Pa)" "angle(p) (rad)"
ZONE N=   2709,E =    2358, F=FEPOINT, ET=QUADRILATERAL
   0.00000000      -5.48999977     -0.157000005       4086.12720      -1.34229374    
   0.00000000      -4.76741982     -0.246999994       4086.12720      -1.34229374    
  0.930077016      -4.67581606     -0.246999994       4086.12720      -1.34229374    
   1.07104599      -5.38451099     -0.157000005       4086.12720      -1.34229374    
  -1.07104599      -5.38451099     -0.157000005       4090.04199      -1.34256160    
 -0.930077016      -4.67581606     -0.246999994       4090.04199      -1.34256160    
   0.00000000      -4.76741982     -0.246999994       4090.04199      -1.34256160    
   0.00000000      -5.48999977     -0.157000005       4090.04199      -1.34256160    
  -2.10093188      -5.07209921     -0.157000005       3981.64502      -1.34752989    
  -1.82441294      -4.40452194     -0.246999994       3981.64502      -1.34752989    
 -0.930077016      -4.67581606     -0.246999994       3981.64502      -1.34752989    
  -1.07104599      -5.38451099     -0.157000005       3981.64502      -1.34752989    
  -3.05008101      -4.56476784     -0.157000005       3631.00659      -1.34235859    
  -2.64863706      -3.96396494     -0.246999994       3631.00659      -1.34235859    
  -1.82441294      -4.40452194     -0.246999994       3631.00659      -1.34235859    
  -2.10093188      -5.07209921     -0.157000005       3631.00659      -1.34235859    
  -3.88201594      -3.88201594     -0.157000005       3186.14331      -1.34210825    
  -3.37107491      -3.37107491     -0.246999994       3186.14331      -1.34210825    
  -2.64863706      -3.96396494     -0.246999994       3186.14331      -1.34210825    
  -3.05008101      -4.56476784     -0.157000005       3186.14331      -1.34210825    
  -4.56476784      -3.05008101     -0.157000005       2659.89575      -1.34885788    
  -3.96396494      -2.64863706     -0.246999994       2659.89575      -1.34885788    
  -3.37107491      -3.37107491     -0.246999994       2659.89575      -1.34885788    
  -3.88201594      -3.88201594     -0.157000005       2659.89575      -1.34885788    
  -5.07209921      -2.10093188     -0.157000005       1952.14441      -1.34307826    
  -4.40452194      -1.82441294     -0.246999994       1952.14441      -1.34307826    
  -3.96396494      -2.64863706     -0.246999994       1952.14441      -1.34307826    
  -4.56476784      -3.05008101     -0.157000005       1952.14441      -1.34307826    
  -5.38451099      -1.07104599     -0.157000005       1193.81165      -1.34003770    
  -4.67581606     -0.930077016     -0.246999994       1193.81165      -1.34003770    
  -4.40452194      -1.82441294     -0.246999994       1193.81165      -1.34003770    
  -5.07209921      -2.10093188     -0.157000005       1193.81165      -1.34003770    
  -5.48999977       0.00000000     -0.157000005       400.130463      -1.33848262    
  -4.76741982       0.00000000     -0.246999994       400.130463      -1.33848262    
  -4.67581606     -0.930077016     -0.246999994       400.130463      -1.33848262    
  -5.38451099      -1.07104599     -0.157000005       400.130463      -1.33848262    
  -5.38451099       1.07104599     -0.157000005       420.049408       1.78641307    
  -4.67581606      0.930077016     -0.246999994       420.049408       1.78641307    
  -4.76741982       0.00000000     -0.246999994       420.049408       1.78641307    
  -5.48999977       0.00000000     -0.157000005       420.049408       1.78641307    
  -5.07209921       2.10093188     -0.157000005       1224.38135       1.79135048    
  -4.40452194       1.82441294     -0.246999994       1224.38135       1.79135048    
  -4.67581606      0.930077016     -0.246999994       1224.38135       1.79135048    
  -5.38451099       1.07104599     -0.157000005       1224.38135       1.79135048    
  -4.56476784       3.05008101     -0.157000005       1977.85217       1.79277408    
  -3.96396494       2.64863706     -0.246999994       1977.85217       1.79277408    
  -4.40452194       1.82441294     -0.246999994       1977.85217       1.79277408    
  -5.07209921       2.10093188     -0.157000005       1977.85217       1.79277408    
  -3.88201594       3.88201594     -0.157000005       2624.16089       1.79818654    
  -3.37107491       3.37107491     -0.246999994       2624.16089       1.79818654    
  -3.96396494       2.64863706     -0.246999994       2624.16089       1.79818654    
  -4.56476784       3.05008101     -0.157000005       2624.16089       1.79818654    
  -3.05008101       4.56476784     -0.157000005       3227.41675       1.79335773    
  -2.64863706       3.96396494     -0.246999994       3227.41675       1.79335773    
  -3.37107491       3.37107491     -0.246999994       3227.41675       1.79335773    
  -3.88201594       3.88201594     -0.157000005       3227.41675       1.79335773    
  -2.10093188       5.07209921     -0.157000005       3637.50928       1.79797912    
  -1.82441294       4.40452194     -0.246999994       3637.50928       1.79797912    
  -2.64863706       3.96396494     -0.246999994       3637.50928       1.79797912    
  -3.05008101       4.56476784     -0.157000005       3637.50928       1.79797912    
  -1.07104599       5.38451099     -0.157000005       3985.88013       1.79343498    
 -0.930077016       4.67581606     -0.246999994       3985.88013       1.79343498    
  -1.82441294       4.40452194     -0.246999994       3985.88013       1.79343498    
  -2.10093188       5.07209921     -0.157000005       3985.88013       1.79343498    
   0.00000000       5.48999977     -0.157000005       4099.05762       1.79831743    
   0.00000000       4.76741982     -0.246999994       4099.05762       1.79831743    
 -0.930077016       4.67581606     -0.246999994       4099.05762       1.79831743    
  -1.07104599       5.38451099     -0.157000005       4099.05762       1.79831743    
   1.07104599       5.38451099     -0.157000005       4141.66357       1.79422474    
  0.930077016       4.67581606     -0.246999994       4141.66357       1.79422474    
   0.00000000       4.76741982     -0.246999994       4141.66357       1.79422474    
   0.00000000       5.48999977     -0.157000005       4141.66357       1.79422474    
   2.10093188       5.07209921     -0.157000005       3938.68115       1.79978132    
   1.82441294       4.40452194     -0.246999994       3938.68115       1.79978132    
  0.930077016       4.67581606     -0.246999994       3938.68115       1.79978132    
   1.07104599       5.38451099     -0.157000005       3938.68115       1.79978132    
   3.05008101       4.56476784     -0.157000005       3631.52563       1.80056155    
   2.64863706       3.96396494     -0.246999994       3631.52563       1.80056155    
   1.82441294       4.40452194     -0.246999994       3631.52563       1.80056155    
   2.10093188       5.07209921     -0.157000005       3631.52563       1.80056155    
   3.88201594       3.88201594     -0.157000005       3231.93823       1.79502141    
   3.37107491       3.37107491     -0.246999994       3231.93823       1.79502141    
   2.64863706       3.96396494     -0.246999994       3231.93823       1.79502141    
   3.05008101       4.56476784     -0.157000005       3231.93823       1.79502141    
   4.56476784       3.05008101     -0.157000005       2653.42334       1.79598367    
   3.96396494       2.64863706     -0.246999994       2653.42334       1.79598367    
   3.37107491       3.37107491     -0.246999994       2653.42334       1.79598367    
   3.88201594       3.88201594     -0.157000005       2653.42334       1.79598367    
   5.07209921       2.10093188     -0.157000005       1981.18616       1.79484105    
   4.40452194       1.82441294     -0.246999994       1981.18616       1.79484105    
   3.96396494       2.64863706     -0.246999994       1981.18616       1.79484105    
   4.56476784       3.05008101     -0.157000005       1981.18616       1.79484105    
   5.38451099       1.07104599     -0.157000005       1200.94751       1.80303442    
   4.67581606      0.930077016     -0.246999994       1200.94751       1.80303442    
   4.40452194       1.82441294     -0.246999994       1200.94751       1.80303442    
   5.07209921       2.10093188     -0.157000005       1200.94751       1.80303442    
   5.48999977       0.00000000     -0.157000005       400.010223       1.81329656    
   4.76741982       0.00000000     -0.246999994       400.010223       1.81329656    
   4.67581606      0.930077016     -0.246999994       400.010223       1.81329656    
   5.38451099       1.07104599     -0.157000005       400.010223       1.81329656    
   5.38451099      -1.07104599     -0.157000005       409.886536      -1.35146821    
   4.67581606     -0.930077016     -0.246999994       409.886536      -1.35146821    
   4.76741982       0.00000000     -0.246999994       409.886536      -1.35146821    
   5.48999977       0.00000000     -0.157000005       409.886536      -1.35146821    
   5.07209921      -2.10093188     -0.157000005       1202.08997      -1.34365499    
   4.40452194      -1.82441294     -0.246999994       1202.08997      -1.34365499    
   4.67581606     -0.930077016     -0.246999994       1202.08997      -1.34365499    
   5.38451099      -1.07104599     -0.157000005       1202.08997      -1.34365499    
   4.56476784      -3.05008101     -0.157000005       1946.95117      -1.34237289    
   3.96396494      -2.64863706     -0.246999994       1946.95117      -1.34237289    
   4.40452194      -1.82441294     -0.246999994       1946.95117      -1.34237289    
   5.07209921      -2.10093188     -0.157000005       1946.95117      -1.34237289    
   3.88201594      -3.88201594     -0.157000005       2618.96289      -1.34267378    
   3.37107491      -3.37107491     -0.246999994       2618.96289      -1.34267378    
   3.96396494      -2.64863706     -0.246999994       2618.96289      -1.34267378    
   4.56476784      -3.05008101     -0.157000005       2618.96289      -1.34267378    
   3.05008101      -4.56476784     -0.157000005       3224.90430      -1.34800768    
   2.64863706      -3.96396494     -0.246999994       3224.90430      -1.34800768    
   3.37107491      -3.37107491     -0.246999994       3224.90430      -1.34800768    
   3.88201594      -3.88201594     -0.157000005       3224.90430      -1.34800768    
   2.10093188      -5.07209921     -0.157000005       3630.55078      -1.34289682    
   1.82441294      -4.40452194     -0.246999994       3630.55078      -1.34289682    
   2.64863706      -3.96396494     -0.246999994       3630.55078      -1.34289682    
   3.05008101      -4.56476784     -0.157000005       3630.55078      -1.34289682    
   1.07104599      -5.38451099     -0.157000005       3930.58716      -1.34231699    
  0.930077016      -4.67581606     -0.246999994       3930.58716      -1.34231699    
   1.82441294      -4.40452194     -0.246999994       3930.58716      -1.34231699    
   2.10093188      -5.07209921     -0.157000005       3930.58716      -1.34231699    
   0.00000000      -1.87709999     -0.606999993       3711.80664      -1.52235579    
   0.00000000      -1.36500001     -0.606999993       3711.80664      -1.52235579    
  0.266297996      -1.33877206     -0.606999993       3711.80664      -1.52235579    
  0.366203994      -1.84103203     -0.606999993       3711.80664      -1.52235579    
   0.00000000      -1.87709999     -0.606999993       4050.52271      -1.51542807    
   0.00000000      -2.59967995     -0.517000020       4050.52271      -1.51542807    
 -0.507171988      -2.54972792     -0.517000020       4050.52271      -1.51542807    
 -0.366203994      -1.84103203     -0.606999993       4050.52271      -1.51542807    
 -0.366203994      -1.84103203     -0.606999993       3713.43115      -1.52235186    
 -0.266297996      -1.33877206     -0.606999993       3713.43115      -1.52235186    
   0.00000000      -1.36500001     -0.606999993       3713.43115      -1.52235186    
   0.00000000      -1.87709999     -0.606999993       3713.43115      -1.52235186    
 -0.366203994      -1.84103203     -0.606999993       3884.62988      -1.51520336    
 -0.507171988      -2.54972792     -0.517000020       3884.62988      -1.51520336    
 -0.994853973      -2.40179110     -0.517000020       3884.62988      -1.51520336    
 -0.718334973      -1.73421395     -0.606999993       3884.62988      -1.51520336    
 -0.718334973      -1.73421395     -0.606999993       3567.34595      -1.52216911    
 -0.522363007      -1.26109600     -0.606999993       3567.34595      -1.52216911    
 -0.266297996      -1.33877206     -0.606999993       3567.34595      -1.52216911    
 -0.366203994      -1.84103203     -0.606999993       3567.34595      -1.52216911    
 -0.718334973      -1.73421395     -0.606999993       3571.93677      -1.51487541    
 -0.994853973      -2.40179110     -0.517000020       3571.93677      -1.51487541    
  -1.44430494      -2.16155505     -0.517000020       3571.93677      -1.51487541    
  -1.04286098      -1.56075203     -0.606999993       3571.93677      -1.51487541    
  -1.04286098      -1.56075203     -0.606999993       3284.80469      -1.52190900    
 -0.758352995      -1.13495600     -0.606999993       3284.80469      -1.52190900    
 -0.522363007      -1.26109600     -0.606999993       3284.80469      -1.52190900    
 -0.718334973      -1.73421395     -0.606999993       3284.80469      -1.52190900    
  -1.04286098      -1.56075203     -0.606999993       3132.49146      -1.51461148    
  -1.44430494      -2.16155505     -0.517000020       3132.49146      -1.51461148    
  -1.83825099      -1.83825099     -0.517000020       3132.49146      -1.51461148    
  -1.32730997      -1.32730997     -0.606999993       3132.49146      -1.51461148    
  -1.32730997      -1.32730997     -0.606999993       2880.26465      -1.52169454    
 -0.965201020     -0.965201020     -0.606999993       2880.26465      -1.52169454    
 -0.758352995      -1.13495600     -0.606999993       2880.26465      -1.52169454    
  -1.04286098      -1.56075203     -0.606999993       2880.26465      -1.52169454    
  -1.32730997      -1.32730997     -0.606999993       2577.95190      -1.51457620    
  -1.83825099      -1.83825099     -0.517000020       2577.95190      -1.51457620    
  -2.16155505      -1.44430494     -0.517000020       2577.95190      -1.51457620    
  -1.56075203      -1.04286098     -0.606999993       2577.95190      -1.51457620    
  -1.56075203      -1.04286098     -0.606999993       2367.50269      -1.52160740    
  -1.13495600     -0.758352995     -0.606999993       2367.50269      -1.52160740    
 -0.965201020     -0.965201020     -0.606999993       2367.50269      -1.52160740    
  -1.32730997      -1.32730997     -0.606999993       2367.50269      -1.52160740    
  -1.56075203      -1.04286098     -0.606999993       1920.08704      -1.51481605    
  -2.16155505      -1.44430494     -0.517000020       1920.08704      -1.51481605    
  -2.40179110     -0.994853973     -0.517000020       1920.08704      -1.51481605    
  -1.73421395     -0.718334973     -0.606999993       1920.08704      -1.51481605    
  -1.73421395     -0.718334973     -0.606999993       1762.03638      -1.52165961    
  -1.26109600     -0.522363007     -0.606999993       1762.03638      -1.52165961    
  -1.13495600     -0.758352995     -0.606999993       1762.03638      -1.52165961    
  -1.56075203      -1.04286098     -0.606999993       1762.03638      -1.52165961    
  -1.73421395     -0.718334973     -0.606999993       1181.46021      -1.51513374    
  -2.40179110     -0.994853973     -0.517000020       1181.46021      -1.51513374    
  -2.54972792     -0.507171988     -0.517000020       1181.46021      -1.51513374    
  -1.84103203     -0.366203994     -0.606999993       1181.46021      -1.51513374    
  -1.84103203     -0.366203994     -0.606999993       1085.12292      -1.52158654    
  -1.33877206     -0.266297996     -0.606999993       1085.12292      -1.52158654    
  -1.26109600     -0.522363007     -0.606999993       1085.12292      -1.52158654    
  -1.73421395     -0.718334973     -0.606999993       1085.12292      -1.52158654    
  -1.84103203     -0.366203994     -0.606999993       395.962830      -1.51442516    
  -2.54972792     -0.507171988     -0.517000020       395.962830      -1.51442516    
  -2.59967995       0.00000000     -0.517000020       395.962830      -1.51442516    
  -1.87709999       0.00000000     -0.606999993       395.962830      -1.51442516    
  -1.87709999       0.00000000     -0.606999993       364.345428      -1.51994216    
  -1.36500001       0.00000000     -0.606999993       364.345428      -1.51994216    
  -1.33877206     -0.266297996     -0.606999993       364.345428      -1.51994216    
  -1.84103203     -0.366203994     -0.606999993       364.345428      -1.51994216    
  -1.87709999       0.00000000     -0.606999993       403.442627       1.62354445    
  -2.59967995       0.00000000     -0.517000020       403.442627       1.62354445    
  -2.54972792      0.507171988     -0.517000020       403.442627       1.62354445    
  -1.84103203      0.366203994     -0.606999993       403.442627       1.62354445    
  -1.84103203      0.366203994     -0.606999993       370.922333       1.61585784    
  -1.33877206      0.266297996     -0.606999993       370.922333       1.61585784    
  -1.36500001       0.00000000     -0.606999993       370.922333       1.61585784    
  -1.87709999       0.00000000     -0.606999993       370.922333       1.61585784    
  -1.84103203      0.366203994     -0.606999993       1188.91418       1.62498200    
  -2.54972792      0.507171988     -0.517000020       1188.91418       1.62498200    
  -2.40179110      0.994853973     -0.517000020       1188.91418       1.62498200    
  -1.73421395      0.718334973     -0.606999993       1188.91418       1.62498200    
  -1.73421395      0.718334973     -0.606999993       1091.94702       1.61787581    
  -1.26109600      0.522363007     -0.606999993       1091.94702       1.61787581    
  -1.33877206      0.266297996     -0.606999993       1091.94702       1.61787581    
  -1.84103203      0.366203994     -0.606999993       1091.94702       1.61787581    
  -1.73421395      0.718334973     -0.606999993       1929.09827       1.62572730    
  -2.40179110      0.994853973     -0.517000020       1929.09827       1.62572730    
  -2.16155505       1.44430494     -0.517000020       1929.09827       1.62572730    
  -1.56075203       1.04286098     -0.606999993       1929.09827       1.62572730    
  -1.56075203       1.04286098     -0.606999993       1769.89978       1.61850905    
  -1.13495600      0.758352995     -0.606999993       1769.89978       1.61850905    
  -1.26109600      0.522363007     -0.606999993       1769.89978       1.61850905    
  -1.73421395      0.718334973     -0.606999993       1769.89978       1.61850905    
  -1.56075203       1.04286098     -0.606999993       2589.34766       1.62624192    
  -2.16155505       1.44430494     -0.517000020       2589.34766       1.62624192    
  -1.83825099       1.83825099     -0.517000020       2589.34766       1.62624192    
  -1.32730997       1.32730997     -0.606999993       2589.34766       1.62624192    
  -1.32730997       1.32730997     -0.606999993       2377.09570       1.61890078    
 -0.965201020      0.965201020     -0.606999993       2377.09570       1.61890078    
  -1.13495600      0.758352995     -0.606999993       2377.09570       1.61890078    
  -1.56075203       1.04286098     -0.606999993       2377.09570       1.61890078    
  -1.32730997       1.32730997     -0.606999993       3145.12134       1.62642860    
  -1.83825099       1.83825099     -0.517000020       3145.12134       1.62642860    
  -1.44430494       2.16155505     -0.517000020       3145.12134       1.62642860    
  -1.04286098       1.56075203     -0.606999993       3145.12134       1.62642860    
  -1.04286098       1.56075203     -0.606999993       2891.47461       1.61908031    
 -0.758352995       1.13495600     -0.606999993       2891.47461       1.61908031    
 -0.965201020      0.965201020     -0.606999993       2891.47461       1.61908031    
  -1.32730997       1.32730997     -0.606999993       2891.47461       1.61908031    
  -1.04286098       1.56075203     -0.606999993       3584.49487       1.62634754    
  -1.44430494       2.16155505     -0.517000020       3584.49487       1.62634754    
 -0.994853973       2.40179110     -0.517000020       3584.49487       1.62634754    
 -0.718334973       1.73421395     -0.606999993       3584.49487       1.62634754    
 -0.718334973       1.73421395     -0.606999993       3297.40576       1.61904871    
 -0.522363007       1.26109600     -0.606999993       3297.40576       1.61904871    
 -0.758352995       1.13495600     -0.606999993       3297.40576       1.61904871    
  -1.04286098       1.56075203     -0.606999993       3297.40576       1.61904871    
 -0.718334973       1.73421395     -0.606999993       3896.84277       1.62613237    
 -0.994853973       2.40179110     -0.517000020       3896.84277       1.62613237    
 -0.507171988       2.54972792     -0.517000020       3896.84277       1.62613237    
 -0.366203994       1.84103203     -0.606999993       3896.84277       1.62613237    
 -0.366203994       1.84103203     -0.606999993       3581.33447       1.61894655    
 -0.266297996       1.33877206     -0.606999993       3581.33447       1.61894655    
 -0.522363007       1.26109600     -0.606999993       3581.33447       1.61894655    
 -0.718334973       1.73421395     -0.606999993       3581.33447       1.61894655    
 -0.366203994       1.84103203     -0.606999993       4063.01245       1.62598443    
 -0.507171988       2.54972792     -0.517000020       4063.01245       1.62598443    
   0.00000000       2.59967995     -0.517000020       4063.01245       1.62598443    
   0.00000000       1.87709999     -0.606999993       4063.01245       1.62598443    
   0.00000000       1.87709999     -0.606999993       3729.03857       1.61887467    
   0.00000000       1.36500001     -0.606999993       3729.03857       1.61887467    
 -0.266297996       1.33877206     -0.606999993       3729.03857       1.61887467    
 -0.366203994       1.84103203     -0.606999993       3729.03857       1.61887467    
   0.00000000       1.87709999     -0.606999993       4063.25757       1.62604153    
   0.00000000       2.59967995     -0.517000020       4063.25757       1.62604153    
  0.507171988       2.54972792     -0.517000020       4063.25757       1.62604153    
  0.366203994       1.84103203     -0.606999993       4063.25757       1.62604153    
  0.366203994       1.84103203     -0.606999993       3729.45679       1.61893332    
  0.266297996       1.33877206     -0.606999993       3729.45679       1.61893332    
   0.00000000       1.36500001     -0.606999993       3729.45679       1.61893332    
   0.00000000       1.87709999     -0.606999993       3729.45679       1.61893332    
  0.366203994       1.84103203     -0.606999993       3897.64062       1.62629104    
  0.507171988       2.54972792     -0.517000020       3897.64062       1.62629104    
  0.994853973       2.40179110     -0.517000020       3897.64062       1.62629104    
  0.718334973       1.73421395     -0.606999993       3897.64062       1.62629104    
  0.718334973       1.73421395     -0.606999993       3582.71997       1.61913037    
  0.522363007       1.26109600     -0.606999993       3582.71997       1.61913037    
  0.266297996       1.33877206     -0.606999993       3582.71997       1.61913037    
  0.366203994       1.84103203     -0.606999993       3582.71997       1.61913037    
  0.718334973       1.73421395     -0.606999993       3585.96143       1.62661016    
  0.994853973       2.40179110     -0.517000020       3585.96143       1.62661016    
   1.44430494       2.16155505     -0.517000020       3585.96143       1.62661016    
   1.04286098       1.56075203     -0.606999993       3585.96143       1.62661016    
   1.04286098       1.56075203     -0.606999993       3299.96143       1.61935937    
  0.758352995       1.13495600     -0.606999993       3299.96143       1.61935937    
  0.522363007       1.26109600     -0.606999993       3299.96143       1.61935937    
  0.718334973       1.73421395     -0.606999993       3299.96143       1.61935937    
   1.04286098       1.56075203     -0.606999993       3147.35376       1.62680185    
   1.44430494       2.16155505     -0.517000020       3147.35376       1.62680185    
   1.83825099       1.83825099     -0.517000020       3147.35376       1.62680185    
   1.32730997       1.32730997     -0.606999993       3147.35376       1.62680185    
   1.32730997       1.32730997     -0.606999993       2895.30127       1.61949849    
  0.965201020      0.965201020     -0.606999993       2895.30127       1.61949849    
  0.758352995       1.13495600     -0.606999993       2895.30127       1.61949849    
   1.04286098       1.56075203     -0.606999993       2895.30127       1.61949849    
   1.32730997       1.32730997     -0.606999993       2592.24316       1.62670255    
   1.83825099       1.83825099     -0.517000020       2592.24316       1.62670255    
   2.16155505       1.44430494     -0.517000020       2592.24316       1.62670255    
   1.56075203       1.04286098     -0.606999993       2592.24316       1.62670255    
   1.56075203       1.04286098     -0.606999993       2382.20972       1.61945903    
   1.13495600      0.758352995     -0.606999993       2382.20972       1.61945903    
  0.965201020      0.965201020     -0.606999993       2382.20972       1.61945903    
   1.32730997       1.32730997     -0.606999993       2382.20972       1.61945903    
   1.56075203       1.04286098     -0.606999993       1932.45081       1.62634325    
   2.16155505       1.44430494     -0.517000020       1932.45081       1.62634325    
   2.40179110      0.994853973     -0.517000020       1932.45081       1.62634325    
   1.73421395      0.718334973     -0.606999993       1932.45081       1.62634325    
   1.73421395      0.718334973     -0.606999993       1776.08948       1.61926067    
   1.26109600      0.522363007     -0.606999993       1776.08948       1.61926067    
   1.13495600      0.758352995     -0.606999993       1776.08948       1.61926067    
   1.56075203       1.04286098     -0.606999993       1776.08948       1.61926067    
   1.73421395      0.718334973     -0.606999993       1192.52747       1.62593579    
   2.40179110      0.994853973     -0.517000020       1192.52747       1.62593579    
   2.54972792      0.507171988     -0.517000020       1192.52747       1.62593579    
   1.84103203      0.366203994     -0.606999993       1192.52747       1.62593579    
   1.84103203      0.366203994     -0.606999993       1099.02417       1.61900616    
   1.33877206      0.266297996     -0.606999993       1099.02417       1.61900616    
   1.26109600      0.522363007     -0.606999993       1099.02417       1.61900616    
   1.73421395      0.718334973     -0.606999993       1099.02417       1.61900616    
   1.84103203      0.366203994     -0.606999993       407.332855       1.62591636    
   2.54972792      0.507171988     -0.517000020       407.332855       1.62591636    
   2.59967995       0.00000000     -0.517000020       407.332855       1.62591636    
   1.87709999       0.00000000     -0.606999993       407.332855       1.62591636    
   1.87709999       0.00000000     -0.606999993       378.885468       1.61874616    
   1.36500001       0.00000000     -0.606999993       378.885468       1.61874616    
   1.33877206      0.266297996     -0.606999993       378.885468       1.61874616    
   1.84103203      0.366203994     -0.606999993       378.885468       1.61874616    
   1.87709999       0.00000000     -0.606999993       391.692230      -1.51634848    
   2.59967995       0.00000000     -0.517000020       391.692230      -1.51634848    
   2.54972792     -0.507171988     -0.517000020       391.692230      -1.51634848    
   1.84103203     -0.366203994     -0.606999993       391.692230      -1.51634848    
   1.84103203     -0.366203994     -0.606999993       355.535736      -1.52230394    
   1.33877206     -0.266297996     -0.606999993       355.535736      -1.52230394    
   1.36500001       0.00000000     -0.606999993       355.535736      -1.52230394    
   1.87709999       0.00000000     -0.606999993       355.535736      -1.52230394    
   1.84103203     -0.366203994     -0.606999993       1176.73962      -1.51560020    
   2.54972792     -0.507171988     -0.517000020       1176.73962      -1.51560020    
   2.40179110     -0.994853973     -0.517000020       1176.73962      -1.51560020    
   1.73421395     -0.718334973     -0.606999993       1176.73962      -1.51560020    
   1.73421395     -0.718334973     -0.606999993       1075.62280      -1.52217674    
   1.26109600     -0.522363007     -0.606999993       1075.62280      -1.52217674    
   1.33877206     -0.266297996     -0.606999993       1075.62280      -1.52217674    
   1.84103203     -0.366203994     -0.606999993       1075.62280      -1.52217674    
   1.73421395     -0.718334973     -0.606999993       1915.00696      -1.51500964    
   2.40179110     -0.994853973     -0.517000020       1915.00696      -1.51500964    
   2.16155505      -1.44430494     -0.517000020       1915.00696      -1.51500964    
   1.56075203      -1.04286098     -0.606999993       1915.00696      -1.51500964    
   1.56075203      -1.04286098     -0.606999993       1752.15894      -1.52190208    
   1.13495600     -0.758352995     -0.606999993       1752.15894      -1.52190208    
   1.26109600     -0.522363007     -0.606999993       1752.15894      -1.52190208    