 VARIABLES="X" "Y" "Z" "abs(p) (Pa)" "angle(p) (rad)"
ZONE N=   2709,E =    2358, F=FEPOINT, ET=QUADRILATERAL
   0.00000000      -5.48999977     -0.157000005       42.6893730     -0.195363596    
   0.00000000      -4.76741982     -0.246999994       42.6893730     -0.195363596    
  0.930077016      -4.67581606     -0.246999994       42.6893730     -0.195363596    
   1.07104599      -5.38451099     -0.157000005       42.6893730     -0.195363596    
  -1.07104599      -5.38451099     -0.157000005       41.9659309       2.91179037    
 -0.930077016      -4.67581606     -0.246999994       41.9659309       2.91179037    
   0.00000000      -4.76741982     -0.246999994       41.9659309       2.91179037    
   0.00000000      -5.48999977     -0.157000005       41.9659309       2.91179037    
  -2.10093188      -5.07209921     -0.157000005       123.941498       2.92636156    
  -1.82441294      -4.40452194     -0.246999994       123.941498       2.92636156    
 -0.930077016      -4.67581606     -0.246999994       123.941498       2.92636156    
  -1.07104599      -5.38451099     -0.157000005       123.941498       2.92636156    
  -3.05008101      -4.56476784     -0.157000005       202.241409       2.94251561    
  -2.64863706      -3.96396494     -0.246999994       202.241409       2.94251561    
  -1.82441294      -4.40452194     -0.246999994       202.241409       2.94251561    
  -2.10093188      -5.07209921     -0.157000005       202.241409       2.94251561    
  -3.88201594      -3.88201594     -0.157000005       271.733521       2.94749260    
  -3.37107491      -3.37107491     -0.246999994       271.733521       2.94749260    
  -2.64863706      -3.96396494     -0.246999994       271.733521       2.94749260    
  -3.05008101      -4.56476784     -0.157000005       271.733521       2.94749260    
  -4.56476784      -3.05008101     -0.157000005       328.809631       2.94418979    
  -3.96396494      -2.64863706     -0.246999994       328.809631       2.94418979    
  -3.37107491      -3.37107491     -0.246999994       328.809631       2.94418979    
  -3.88201594      -3.88201594     -0.157000005       328.809631       2.94418979    
  -5.07209921      -2.10093188     -0.157000005       378.545746       2.94618368    
  -4.40452194      -1.82441294     -0.246999994       378.545746       2.94618368    
  -3.96396494      -2.64863706     -0.246999994       378.545746       2.94618368    
  -4.56476784      -3.05008101     -0.157000005       378.545746       2.94618368    
  -5.38451099      -1.07104599     -0.157000005       411.831116       2.94429016    
  -4.67581606     -0.930077016     -0.246999994       411.831116       2.94429016    
  -4.40452194      -1.82441294     -0.246999994       411.831116       2.94429016    
  -5.07209921      -2.10093188     -0.157000005       411.831116       2.94429016    
  -5.48999977       0.00000000     -0.157000005       425.809875       2.94038200    
  -4.76741982       0.00000000     -0.246999994       425.809875       2.94038200    
  -4.67581606     -0.930077016     -0.246999994       425.809875       2.94038200    
  -5.38451099      -1.07104599     -0.157000005       425.809875       2.94038200    
  -5.38451099       1.07104599     -0.157000005       425.947113       2.93911362    
  -4.67581606      0.930077016     -0.246999994       425.947113       2.93911362    
  -4.76741982       0.00000000     -0.246999994       425.947113       2.93911362    
  -5.48999977       0.00000000     -0.157000005       425.947113       2.93911362    
  -5.07209921       2.10093188     -0.157000005       410.115326       2.93787694    
  -4.40452194       1.82441294     -0.246999994       410.115326       2.93787694    
  -4.67581606      0.930077016     -0.246999994       410.115326       2.93787694    
  -5.38451099       1.07104599     -0.157000005       410.115326       2.93787694    
  -4.56476784       3.05008101     -0.157000005       378.372772       2.93985128    
  -3.96396494       2.64863706     -0.246999994       378.372772       2.93985128    
  -4.40452194       1.82441294     -0.246999994       378.372772       2.93985128    
  -5.07209921       2.10093188     -0.157000005       378.372772       2.93985128    
  -3.88201594       3.88201594     -0.157000005       333.840424       2.94594383    
  -3.37107491       3.37107491     -0.246999994       333.840424       2.94594383    
  -3.96396494       2.64863706     -0.246999994       333.840424       2.94594383    
  -4.56476784       3.05008101     -0.157000005       333.840424       2.94594383    
  -3.05008101       4.56476784     -0.157000005       272.598907       2.94459939    
  -2.64863706       3.96396494     -0.246999994       272.598907       2.94459939    
  -3.37107491       3.37107491     -0.246999994       272.598907       2.94459939    
  -3.88201594       3.88201594     -0.157000005       272.598907       2.94459939    
  -2.10093188       5.07209921     -0.157000005       203.914658       2.94572020    
  -1.82441294       4.40452194     -0.246999994       203.914658       2.94572020    
  -2.64863706       3.96396494     -0.246999994       203.914658       2.94572020    
  -3.05008101       4.56476784     -0.157000005       203.914658       2.94572020    
  -1.07104599       5.38451099     -0.157000005       125.350410       2.93671656    
 -0.930077016       4.67581606     -0.246999994       125.350410       2.93671656    
  -1.82441294       4.40452194     -0.246999994       125.350410       2.93671656    
  -2.10093188       5.07209921     -0.157000005       125.350410       2.93671656    
   0.00000000       5.48999977     -0.157000005       42.8142967       2.94327092    
   0.00000000       4.76741982     -0.246999994       42.8142967       2.94327092    
 -0.930077016       4.67581606     -0.246999994       42.8142967       2.94327092    
  -1.07104599       5.38451099     -0.157000005       42.8142967       2.94327092    
   1.07104599       5.38451099     -0.157000005       41.8864136     -0.233324945    
  0.930077016       4.67581606     -0.246999994       41.8864136     -0.233324945    
   0.00000000       4.76741982     -0.246999994       41.8864136     -0.233324945    
   0.00000000       5.48999977     -0.157000005       41.8864136     -0.233324945    
   2.10093188       5.07209921     -0.157000005       125.379463     -0.212072447    
   1.82441294       4.40452194     -0.246999994       125.379463     -0.212072447    
  0.930077016       4.67581606     -0.246999994       125.379463     -0.212072447    
   1.07104599       5.38451099     -0.157000005       125.379463     -0.212072447    
   3.05008101       4.56476784     -0.157000005       203.085464     -0.202115700    
   2.64863706       3.96396494     -0.246999994       203.085464     -0.202115700    
   1.82441294       4.40452194     -0.246999994       203.085464     -0.202115700    
   2.10093188       5.07209921     -0.157000005       203.085464     -0.202115700    
   3.88201594       3.88201594     -0.157000005       271.020996     -0.202787295    
   3.37107491       3.37107491     -0.246999994       271.020996     -0.202787295    
   2.64863706       3.96396494     -0.246999994       271.020996     -0.202787295    
   3.05008101       4.56476784     -0.157000005       271.020996     -0.202787295    
   4.56476784       3.05008101     -0.157000005       330.759216     -0.202209845    
   3.96396494       2.64863706     -0.246999994       330.759216     -0.202209845    
   3.37107491       3.37107491     -0.246999994       330.759216     -0.202209845    
   3.88201594       3.88201594     -0.157000005       330.759216     -0.202209845    
   5.07209921       2.10093188     -0.157000005       377.131866     -0.204589367    
   4.40452194       1.82441294     -0.246999994       377.131866     -0.204589367    
   3.96396494       2.64863706     -0.246999994       377.131866     -0.204589367    
   4.56476784       3.05008101     -0.157000005       377.131866     -0.204589367    
   5.38451099       1.07104599     -0.157000005       412.815247     -0.200913548    
   4.67581606      0.930077016     -0.246999994       412.815247     -0.200913548    
   4.40452194       1.82441294     -0.246999994       412.815247     -0.200913548    
   5.07209921       2.10093188     -0.157000005       412.815247     -0.200913548    
   5.48999977       0.00000000     -0.157000005       429.786194     -0.197972432    
   4.76741982       0.00000000     -0.246999994       429.786194     -0.197972432    
   4.67581606      0.930077016     -0.246999994       429.786194     -0.197972432    
   5.38451099       1.07104599     -0.157000005       429.786194     -0.197972432    
   5.38451099      -1.07104599     -0.157000005       429.722321     -0.196141496    
   4.67581606     -0.930077016     -0.246999994       429.722321     -0.196141496    
   4.76741982       0.00000000     -0.246999994       429.722321     -0.196141496    
   5.48999977       0.00000000     -0.157000005       429.722321     -0.196141496    
   5.07209921      -2.10093188     -0.157000005       413.094391     -0.195007607    
   4.40452194      -1.82441294     -0.246999994       413.094391     -0.195007607    
   4.67581606     -0.930077016     -0.246999994       413.094391     -0.195007607    
   5.38451099      -1.07104599     -0.157000005       413.094391     -0.195007607    
   4.56476784      -3.05008101     -0.157000005       380.326904     -0.191748187    
   3.96396494      -2.64863706     -0.246999994       380.326904     -0.191748187    
   4.40452194      -1.82441294     -0.246999994       380.326904     -0.191748187    
   5.07209921      -2.10093188     -0.157000005       380.326904     -0.191748187    
   3.88201594      -3.88201594     -0.157000005       332.859558     -0.189070508    
   3.37107491      -3.37107491     -0.246999994       332.859558     -0.189070508    
   3.96396494      -2.64863706     -0.246999994       332.859558     -0.189070508    
   4.56476784      -3.05008101     -0.157000005       332.859558     -0.189070508    
   3.05008101      -4.56476784     -0.157000005       271.345917     -0.191845208    
   2.64863706      -3.96396494     -0.246999994       271.345917     -0.191845208    
   3.37107491      -3.37107491     -0.246999994       271.345917     -0.191845208    
   3.88201594      -3.88201594     -0.157000005       271.345917     -0.191845208    
   2.10093188      -5.07209921     -0.157000005       203.027893     -0.192339942    
   1.82441294      -4.40452194     -0.246999994       203.027893     -0.192339942    
   2.64863706      -3.96396494     -0.246999994       203.027893     -0.192339942    
   3.05008101      -4.56476784     -0.157000005       203.027893     -0.192339942    
   1.07104599      -5.38451099     -0.157000005       125.592239     -0.199580684    
  0.930077016      -4.67581606     -0.246999994       125.592239     -0.199580684    
   1.82441294      -4.40452194     -0.246999994       125.592239     -0.199580684    
   2.10093188      -5.07209921     -0.157000005       125.592239     -0.199580684    
   0.00000000      -1.87709999     -0.606999993       132.656570      -1.49701023    
   0.00000000      -1.36500001     -0.606999993       132.656570      -1.49701023    
  0.266297996      -1.33877206     -0.606999993       132.656570      -1.49701023    
  0.366203994      -1.84103203     -0.606999993       132.656570      -1.49701023    
   0.00000000      -1.87709999     -0.606999993       78.5535126       1.72900391    
   0.00000000      -2.59967995     -0.517000020       78.5535126       1.72900391    
 -0.507171988      -2.54972792     -0.517000020       78.5535126       1.72900391    
 -0.366203994      -1.84103203     -0.606999993       78.5535126       1.72900391    
 -0.366203994      -1.84103203     -0.606999993       121.507561       1.64298677    
 -0.266297996      -1.33877206     -0.606999993       121.507561       1.64298677    
   0.00000000      -1.36500001     -0.606999993       121.507561       1.64298677    
   0.00000000      -1.87709999     -0.606999993       121.507561       1.64298677    
 -0.366203994      -1.84103203     -0.606999993       233.965485       1.72927785    
 -0.507171988      -2.54972792     -0.517000020       233.965485       1.72927785    
 -0.994853973      -2.40179110     -0.517000020       233.965485       1.72927785    
 -0.718334973      -1.73421395     -0.606999993       233.965485       1.72927785    
 -0.718334973      -1.73421395     -0.606999993       368.404358       1.64362764    
 -0.522363007      -1.26109600     -0.606999993       368.404358       1.64362764    
 -0.266297996      -1.33877206     -0.606999993       368.404358       1.64362764    
 -0.366203994      -1.84103203     -0.606999993       368.404358       1.64362764    
 -0.718334973      -1.73421395     -0.606999993       369.324249       1.73225796    
 -0.994853973      -2.40179110     -0.517000020       369.324249       1.73225796    
  -1.44430494      -2.16155505     -0.517000020       369.324249       1.73225796    
  -1.04286098      -1.56075203     -0.606999993       369.324249       1.73225796    
  -1.04286098      -1.56075203     -0.606999993       595.537476       1.64386916    
 -0.758352995      -1.13495600     -0.606999993       595.537476       1.64386916    
 -0.522363007      -1.26109600     -0.606999993       595.537476       1.64386916    
 -0.718334973      -1.73421395     -0.606999993       595.537476       1.64386916    
  -1.04286098      -1.56075203     -0.606999993       486.121002       1.73467398    
  -1.44430494      -2.16155505     -0.517000020       486.121002       1.73467398    
  -1.83825099      -1.83825099     -0.517000020       486.121002       1.73467398    
  -1.32730997      -1.32730997     -0.606999993       486.121002       1.73467398    
  -1.32730997      -1.32730997     -0.606999993       796.739014       1.64406443    
 -0.965201020     -0.965201020     -0.606999993       796.739014       1.64406443    
 -0.758352995      -1.13495600     -0.606999993       796.739014       1.64406443    
  -1.04286098      -1.56075203     -0.606999993       796.739014       1.64406443    
  -1.32730997      -1.32730997     -0.606999993       588.548584       1.73555982    
  -1.83825099      -1.83825099     -0.517000020       588.548584       1.73555982    
  -2.16155505      -1.44430494     -0.517000020       588.548584       1.73555982    
  -1.56075203      -1.04286098     -0.606999993       588.548584       1.73555982    
  -1.56075203      -1.04286098     -0.606999993       968.825317       1.64418733    
  -1.13495600     -0.758352995     -0.606999993       968.825317       1.64418733    
 -0.965201020     -0.965201020     -0.606999993       968.825317       1.64418733    
  -1.32730997      -1.32730997     -0.606999993       968.825317       1.64418733    
  -1.56075203      -1.04286098     -0.606999993       676.178528       1.73497581    
  -2.16155505      -1.44430494     -0.517000020       676.178528       1.73497581    
  -2.40179110     -0.994853973     -0.517000020       676.178528       1.73497581    
  -1.73421395     -0.718334973     -0.606999993       676.178528       1.73497581    
  -1.73421395     -0.718334973     -0.606999993       1108.14587       1.64419711    
  -1.26109600     -0.522363007     -0.606999993       1108.14587       1.64419711    
  -1.13495600     -0.758352995     -0.606999993       1108.14587       1.64419711    
  -1.56075203      -1.04286098     -0.606999993       1108.14587       1.64419711    
  -1.73421395     -0.718334973     -0.606999993       741.363281       1.73391235    
  -2.40179110     -0.994853973     -0.517000020       741.363281       1.73391235    
  -2.54972792     -0.507171988     -0.517000020       741.363281       1.73391235    
  -1.84103203     -0.366203994     -0.606999993       741.363281       1.73391235    
  -1.84103203     -0.366203994     -0.606999993       1207.72192       1.64414537    
  -1.33877206     -0.266297996     -0.606999993       1207.72192       1.64414537    
  -1.26109600     -0.522363007     -0.606999993       1207.72192       1.64414537    
  -1.73421395     -0.718334973     -0.606999993       1207.72192       1.64414537    
  -1.84103203     -0.366203994     -0.606999993       776.635376       1.73311913    
  -2.54972792     -0.507171988     -0.517000020       776.635376       1.73311913    
  -2.59967995       0.00000000     -0.517000020       776.635376       1.73311913    
  -1.87709999       0.00000000     -0.606999993       776.635376       1.73311913    
  -1.87709999       0.00000000     -0.606999993       1260.55200       1.64409554    
  -1.36500001       0.00000000     -0.606999993       1260.55200       1.64409554    
  -1.33877206     -0.266297996     -0.606999993       1260.55200       1.64409554    
  -1.84103203     -0.366203994     -0.606999993       1260.55200       1.64409554    
  -1.87709999       0.00000000     -0.606999993       777.997070       1.73298502    
  -2.59967995       0.00000000     -0.517000020       777.997070       1.73298502    
  -2.54972792      0.507171988     -0.517000020       777.997070       1.73298502    
  -1.84103203      0.366203994     -0.606999993       777.997070       1.73298502    
  -1.84103203      0.366203994     -0.606999993       1262.18176       1.64409411    
  -1.33877206      0.266297996     -0.606999993       1262.18176       1.64409411    
  -1.36500001       0.00000000     -0.606999993       1262.18176       1.64409411    
  -1.87709999       0.00000000     -0.606999993       1262.18176       1.64409411    
  -1.84103203      0.366203994     -0.606999993       745.064819       1.73356032    
  -2.54972792      0.507171988     -0.517000020       745.064819       1.73356032    
  -2.40179110      0.994853973     -0.517000020       745.064819       1.73356032    
  -1.73421395      0.718334973     -0.606999993       745.064819       1.73356032    
  -1.73421395      0.718334973     -0.606999993       1212.25537       1.64414608    
  -1.26109600      0.522363007     -0.606999993       1212.25537       1.64414608    
  -1.33877206      0.266297996     -0.606999993       1212.25537       1.64414608    
  -1.84103203      0.366203994     -0.606999993       1212.25537       1.64414608    
  -1.73421395      0.718334973     -0.606999993       680.973022       1.73456395    
  -2.40179110      0.994853973     -0.517000020       680.973022       1.73456395    
  -2.16155505       1.44430494     -0.517000020       680.973022       1.73456395    
  -1.56075203       1.04286098     -0.606999993       680.973022       1.73456395    
  -1.56075203       1.04286098     -0.606999993       1114.72559       1.64420927    
  -1.13495600      0.758352995     -0.606999993       1114.72559       1.64420927    
  -1.26109600      0.522363007     -0.606999993       1114.72559       1.64420927    
  -1.73421395      0.718334973     -0.606999993       1114.72559       1.64420927    
  -1.56075203       1.04286098     -0.606999993       592.934387       1.73526394    
  -2.16155505       1.44430494     -0.517000020       592.934387       1.73526394    
  -1.83825099       1.83825099     -0.517000020       592.934387       1.73526394    
  -1.32730997       1.32730997     -0.606999993       592.934387       1.73526394    
  -1.32730997       1.32730997     -0.606999993       976.397400       1.64422500    
 -0.965201020      0.965201020     -0.606999993       976.397400       1.64422500    
  -1.13495600      0.758352995     -0.606999993       976.397400       1.64422500    
  -1.56075203       1.04286098     -0.606999993       976.397400       1.64422500    
  -1.32730997       1.32730997     -0.606999993       489.522675       1.73452318    
  -1.83825099       1.83825099     -0.517000020       489.522675       1.73452318    
  -1.44430494       2.16155505     -0.517000020       489.522675       1.73452318    
  -1.04286098       1.56075203     -0.606999993       489.522675       1.73452318    
  -1.04286098       1.56075203     -0.606999993       804.610352       1.64414644    
 -0.758352995       1.13495600     -0.606999993       804.610352       1.64414644    
 -0.965201020      0.965201020     -0.606999993       804.610352       1.64414644    
  -1.32730997       1.32730997     -0.606999993       804.610352       1.64414644    
  -1.04286098       1.56075203     -0.606999993       372.501526       1.73201811    
  -1.44430494       2.16155505     -0.517000020       372.501526       1.73201811    
 -0.994853973       2.40179110     -0.517000020       372.501526       1.73201811    
 -0.718334973       1.73421395     -0.606999993       372.501526       1.73201811    
 -0.718334973       1.73421395     -0.606999993       603.887878       1.64399970    
 -0.522363007       1.26109600     -0.606999993       603.887878       1.64399970    
 -0.758352995       1.13495600     -0.606999993       603.887878       1.64399970    
  -1.04286098       1.56075203     -0.606999993       603.887878       1.64399970    
 -0.718334973       1.73421395     -0.606999993       238.139023       1.72829413    
 -0.994853973       2.40179110     -0.517000020       238.139023       1.72829413    
 -0.507171988       2.54972792     -0.517000020       238.139023       1.72829413    
 -0.366203994       1.84103203     -0.606999993       238.139023       1.72829413    
 -0.366203994       1.84103203     -0.606999993       377.909088       1.64378047    
 -0.266297996       1.33877206     -0.606999993       377.909088       1.64378047    
 -0.522363007       1.26109600     -0.606999993       377.909088       1.64378047    
 -0.718334973       1.73421395     -0.606999993       377.909088       1.64378047    
 -0.366203994       1.84103203     -0.606999993       84.5417709       1.72357142    
 -0.507171988       2.54972792     -0.517000020       84.5417709       1.72357142    
   0.00000000       2.59967995     -0.517000020       84.5417709       1.72357142    
   0.00000000       1.87709999     -0.606999993       84.5417709       1.72357142    
   0.00000000       1.87709999     -0.606999993       132.537079       1.64333761    
   0.00000000       1.36500001     -0.606999993       132.537079       1.64333761    
 -0.266297996       1.33877206     -0.606999993       132.537079       1.64333761    
 -0.366203994       1.84103203     -0.606999993       132.537079       1.64333761    
   0.00000000       1.87709999     -0.606999993       77.3601990      -1.40929210    
   0.00000000       2.59967995     -0.517000020       77.3601990      -1.40929210    
  0.507171988       2.54972792     -0.517000020       77.3601990      -1.40929210    
  0.366203994       1.84103203     -0.606999993       77.3601990      -1.40929210    
  0.366203994       1.84103203     -0.606999993       120.264557      -1.49696922    
  0.266297996       1.33877206     -0.606999993       120.264557      -1.49696922    
   0.00000000       1.36500001     -0.606999993       120.264557      -1.49696922    
   0.00000000       1.87709999     -0.606999993       120.264557      -1.49696922    
  0.366203994       1.84103203     -0.606999993       231.303650      -1.41040456    
  0.507171988       2.54972792     -0.517000020       231.303650      -1.41040456    
  0.994853973       2.40179110     -0.517000020       231.303650      -1.41040456    
  0.718334973       1.73421395     -0.606999993       231.303650      -1.41040456    
  0.718334973       1.73421395     -0.606999993       366.169250      -1.49735689    
  0.522363007       1.26109600     -0.606999993       366.169250      -1.49735689    
  0.266297996       1.33877206     -0.606999993       366.169250      -1.49735689    
  0.366203994       1.84103203     -0.606999993       366.169250      -1.49735689    
  0.718334973       1.73421395     -0.606999993       366.259308      -1.40785384    
  0.994853973       2.40179110     -0.517000020       366.259308      -1.40785384    
   1.44430494       2.16155505     -0.517000020       366.259308      -1.40785384    
   1.04286098       1.56075203     -0.606999993       366.259308      -1.40785384    
   1.04286098       1.56075203     -0.606999993       593.220581      -1.49732494    
  0.758352995       1.13495600     -0.606999993       593.220581      -1.49732494    
  0.522363007       1.26109600     -0.606999993       593.220581      -1.49732494    
  0.718334973       1.73421395     -0.606999993       593.220581      -1.49732494    
   1.04286098       1.56075203     -0.606999993       484.098969      -1.40589428    
   1.44430494       2.16155505     -0.517000020       484.098969      -1.40589428    
   1.83825099       1.83825099     -0.517000020       484.098969      -1.40589428    
   1.32730997       1.32730997     -0.606999993       484.098969      -1.40589428    
   1.32730997       1.32730997     -0.606999993       795.431702      -1.49724185    
  0.965201020      0.965201020     -0.606999993       795.431702      -1.49724185    
  0.758352995       1.13495600     -0.606999993       795.431702      -1.49724185    
   1.04286098       1.56075203     -0.606999993       795.431702      -1.49724185    
   1.32730997       1.32730997     -0.606999993       588.494141      -1.40547216    
   1.83825099       1.83825099     -0.517000020       588.494141      -1.40547216    
   2.16155505       1.44430494     -0.517000020       588.494141      -1.40547216    
   1.56075203       1.04286098     -0.606999993       588.494141      -1.40547216    
   1.56075203       1.04286098     -0.606999993       969.011047      -1.49718297    
   1.13495600      0.758352995     -0.606999993       969.011047      -1.49718297    
  0.965201020      0.965201020     -0.606999993       969.011047      -1.49718297    
   1.32730997       1.32730997     -0.606999993       969.011047      -1.49718297    
   1.56075203       1.04286098     -0.606999993       677.606140      -1.40634823    
   2.16155505       1.44430494     -0.517000020       677.606140      -1.40634823    
   2.40179110      0.994853973     -0.517000020       677.606140      -1.40634823    
   1.73421395      0.718334973     -0.606999993       677.606140      -1.40634823    
   1.73421395      0.718334973     -0.606999993       1109.03394      -1.49717283    
   1.26109600      0.522363007     -0.606999993       1109.03394      -1.49717283    
   1.13495600      0.758352995     -0.606999993       1109.03394      -1.49717283    
   1.56075203       1.04286098     -0.606999993       1109.03394      -1.49717283    
   1.73421395      0.718334973     -0.606999993       742.830933      -1.40745091    
   2.40179110      0.994853973     -0.517000020       742.830933      -1.40745091    
   2.54972792      0.507171988     -0.517000020       742.830933      -1.40745091    
   1.84103203      0.366203994     -0.606999993       742.830933      -1.40745091    
   1.84103203      0.366203994     -0.606999993       1208.44092      -1.49720907    
   1.33877206      0.266297996     -0.606999993       1208.44092      -1.49720907    
   1.26109600      0.522363007     -0.606999993       1208.44092      -1.49720907    
   1.73421395      0.718334973     -0.606999993       1208.44092      -1.49720907    
   1.84103203      0.366203994     -0.606999993       776.970520      -1.40810883    
   2.54972792      0.507171988     -0.517000020       776.970520      -1.40810883    
   2.59967995       0.00000000     -0.517000020       776.970520      -1.40810883    
   1.87709999       0.00000000     -0.606999993       776.970520      -1.40810883    
   1.87709999       0.00000000     -0.606999993       1260.46594      -1.49724460    
   1.36500001       0.00000000     -0.606999993       1260.46594      -1.49724460    
   1.33877206      0.266297996     -0.606999993       1260.46594      -1.49724460    
   1.84103203      0.366203994     -0.606999993       1260.46594      -1.49724460    
   1.87709999       0.00000000     -0.606999993       776.865784      -1.40806937    
   2.59967995       0.00000000     -0.517000020       776.865784      -1.40806937    
   2.54972792     -0.507171988     -0.517000020       776.865784      -1.40806937    
   1.84103203     -0.366203994     -0.606999993       776.865784      -1.40806937    
   1.84103203     -0.366203994     -0.606999993       1260.99988      -1.49723113    
   1.33877206     -0.266297996     -0.606999993       1260.99988      -1.49723113    
   1.36500001       0.00000000     -0.606999993       1260.99988      -1.49723113    
   1.87709999       0.00000000     -0.606999993       1260.99988      -1.49723113    
   1.84103203     -0.366203994     -0.606999993       742.855652      -1.40740001    
   2.54972792     -0.507171988     -0.517000020       742.855652      -1.40740001    
   2.40179110     -0.994853973     -0.517000020       742.855652      -1.40740001    
   1.73421395     -0.718334973     -0.606999993       742.855652      -1.40740001    
   1.73421395     -0.718334973     -0.606999993       1210.39807      -1.49717784    
   1.26109600     -0.522363007     -0.606999993       1210.39807      -1.49717784    
   1.33877206     -0.266297996     -0.606999993       1210.39807      -1.49717784    
   1.84103203     -0.366203994     -0.606999993       1210.39807      -1.49717784    
   1.73421395     -0.718334973     -0.606999993       678.880188      -1.40650046    
   2.40179110     -0.994853973     -0.517000020       678.880188      -1.40650046    
   2.16155505      -1.44430494     -0.517000020       678.880188      -1.40650046    
   1.56075203      -1.04286098     -0.606999993       678.880188      -1.40650046    
   1.56075203      -1.04286098     -0.606999993       1113.11145      -1.49713445    
   1.13495600     -0.758352995     -0.606999993       1113.11145      -1.49713445    
   1.26109600     -0.522363007     -0.606999993       1113.11145      -1.49713445    