 VARIABLES="X" "Y" "Z" "abs(p) (Pa)" "angle(p) (rad)"
ZONE N=   2709,E =    2358, F=FEPOINT, ET=QUADRILATERAL
   0.00000000      -5.48999977     -0.157000005       9.14564610      0.215619206    
   0.00000000      -4.76741982     -0.246999994       9.14564610      0.215619206    
  0.930077016      -4.67581606     -0.246999994       9.14564610      0.215619206    
   1.07104599      -5.38451099     -0.157000005       9.14564610      0.215619206    
  -1.07104599      -5.38451099     -0.157000005       8.91850185      -3.01204515    
 -0.930077016      -4.67581606     -0.246999994       8.91850185      -3.01204515    
   0.00000000      -4.76741982     -0.246999994       8.91850185      -3.01204515    
   0.00000000      -5.48999977     -0.157000005       8.91850185      -3.01204515    
  -2.10093188      -5.07209921     -0.157000005       24.5105801      -2.93071842    
  -1.82441294      -4.40452194     -0.246999994       24.5105801      -2.93071842    
 -0.930077016      -4.67581606     -0.246999994       24.5105801      -2.93071842    
  -1.07104599      -5.38451099     -0.157000005       24.5105801      -2.93071842    
  -3.05008101      -4.56476784     -0.157000005       44.1491165      -2.94970965    
  -2.64863706      -3.96396494     -0.246999994       44.1491165      -2.94970965    
  -1.82441294      -4.40452194     -0.246999994       44.1491165      -2.94970965    
  -2.10093188      -5.07209921     -0.157000005       44.1491165      -2.94970965    
  -3.88201594      -3.88201594     -0.157000005       60.0224609      -2.95808339    
  -3.37107491      -3.37107491     -0.246999994       60.0224609      -2.95808339    
  -2.64863706      -3.96396494     -0.246999994       60.0224609      -2.95808339    
  -3.05008101      -4.56476784     -0.157000005       60.0224609      -2.95808339    
  -4.56476784      -3.05008101     -0.157000005       68.2584381      -2.92201495    
  -3.96396494      -2.64863706     -0.246999994       68.2584381      -2.92201495    
  -3.37107491      -3.37107491     -0.246999994       68.2584381      -2.92201495    
  -3.88201594      -3.88201594     -0.157000005       68.2584381      -2.92201495    
  -5.07209921      -2.10093188     -0.157000005       83.0458832      -2.96502542    
  -4.40452194      -1.82441294     -0.246999994       83.0458832      -2.96502542    
  -3.96396494      -2.64863706     -0.246999994       83.0458832      -2.96502542    
  -4.56476784      -3.05008101     -0.157000005       83.0458832      -2.96502542    
  -5.38451099      -1.07104599     -0.157000005       90.1146622      -2.94950724    
  -4.67581606     -0.930077016     -0.246999994       90.1146622      -2.94950724    
  -4.40452194      -1.82441294     -0.246999994       90.1146622      -2.94950724    
  -5.07209921      -2.10093188     -0.157000005       90.1146622      -2.94950724    
  -5.48999977       0.00000000     -0.157000005       85.2798080      -2.89449668    
  -4.76741982       0.00000000     -0.246999994       85.2798080      -2.89449668    
  -4.67581606     -0.930077016     -0.246999994       85.2798080      -2.89449668    
  -5.38451099      -1.07104599     -0.157000005       85.2798080      -2.89449668    
  -5.38451099       1.07104599     -0.157000005       84.3223495      -2.88544059    
  -4.67581606      0.930077016     -0.246999994       84.3223495      -2.88544059    
  -4.76741982       0.00000000     -0.246999994       84.3223495      -2.88544059    
  -5.48999977       0.00000000     -0.157000005       84.3223495      -2.88544059    
  -5.07209921       2.10093188     -0.157000005       81.5735550      -2.88211513    
  -4.40452194       1.82441294     -0.246999994       81.5735550      -2.88211513    
  -4.67581606      0.930077016     -0.246999994       81.5735550      -2.88211513    
  -5.38451099       1.07104599     -0.157000005       81.5735550      -2.88211513    
  -4.56476784       3.05008101     -0.157000005       75.5915527      -2.88544536    
  -3.96396494       2.64863706     -0.246999994       75.5915527      -2.88544536    
  -4.40452194       1.82441294     -0.246999994       75.5915527      -2.88544536    
  -5.07209921       2.10093188     -0.157000005       75.5915527      -2.88544536    
  -3.88201594       3.88201594     -0.157000005       71.3466187      -2.93667054    
  -3.37107491       3.37107491     -0.246999994       71.3466187      -2.93667054    
  -3.96396494       2.64863706     -0.246999994       71.3466187      -2.93667054    
  -4.56476784       3.05008101     -0.157000005       71.3466187      -2.93667054    
  -3.05008101       4.56476784     -0.157000005       54.9307480      -2.89206028    
  -2.64863706       3.96396494     -0.246999994       54.9307480      -2.89206028    
  -3.37107491       3.37107491     -0.246999994       54.9307480      -2.89206028    
  -3.88201594       3.88201594     -0.157000005       54.9307480      -2.89206028    
  -2.10093188       5.07209921     -0.157000005       44.1732597      -2.92668295    
  -1.82441294       4.40452194     -0.246999994       44.1732597      -2.92668295    
  -2.64863706       3.96396494     -0.246999994       44.1732597      -2.92668295    
  -3.05008101       4.56476784     -0.157000005       44.1732597      -2.92668295    
  -1.07104599       5.38451099     -0.157000005       25.4884605      -2.88099098    
 -0.930077016       4.67581606     -0.246999994       25.4884605      -2.88099098    
  -1.82441294       4.40452194     -0.246999994       25.4884605      -2.88099098    
  -2.10093188       5.07209921     -0.157000005       25.4884605      -2.88099098    
   0.00000000       5.48999977     -0.157000005       8.72916889      -2.89150000    
   0.00000000       4.76741982     -0.246999994       8.72916889      -2.89150000    
 -0.930077016       4.67581606     -0.246999994       8.72916889      -2.89150000    
  -1.07104599       5.38451099     -0.157000005       8.72916889      -2.89150000    
   1.07104599       5.38451099     -0.157000005       8.17974377      0.120276473    
  0.930077016       4.67581606     -0.246999994       8.17974377      0.120276473    
   0.00000000       4.76741982     -0.246999994       8.17974377      0.120276473    
   0.00000000       5.48999977     -0.157000005       8.17974377      0.120276473    
   2.10093188       5.07209921     -0.157000005       26.5301552      0.174094930    
   1.82441294       4.40452194     -0.246999994       26.5301552      0.174094930    
  0.930077016       4.67581606     -0.246999994       26.5301552      0.174094930    
   1.07104599       5.38451099     -0.157000005       26.5301552      0.174094930    
   3.05008101       4.56476784     -0.157000005       44.2899933      0.195573881    
   2.64863706       3.96396494     -0.246999994       44.2899933      0.195573881    
   1.82441294       4.40452194     -0.246999994       44.2899933      0.195573881    
   2.10093188       5.07209921     -0.157000005       44.2899933      0.195573881    
   3.88201594       3.88201594     -0.157000005       55.1650963      0.225863770    
   3.37107491       3.37107491     -0.246999994       55.1650963      0.225863770    
   2.64863706       3.96396494     -0.246999994       55.1650963      0.225863770    
   3.05008101       4.56476784     -0.157000005       55.1650963      0.225863770    
   4.56476784       3.05008101     -0.157000005       69.8306656      0.194216117    
   3.96396494       2.64863706     -0.246999994       69.8306656      0.194216117    
   3.37107491       3.37107491     -0.246999994       69.8306656      0.194216117    
   3.88201594       3.88201594     -0.157000005       69.8306656      0.194216117    
   5.07209921       2.10093188     -0.157000005       76.3854599      0.220744565    
   4.40452194       1.82441294     -0.246999994       76.3854599      0.220744565    
   3.96396494       2.64863706     -0.246999994       76.3854599      0.220744565    
   4.56476784       3.05008101     -0.157000005       76.3854599      0.220744565    
   5.38451099       1.07104599     -0.157000005       90.2136078      0.193313658    
   4.67581606      0.930077016     -0.246999994       90.2136078      0.193313658    
   4.40452194       1.82441294     -0.246999994       90.2136078      0.193313658    
   5.07209921       2.10093188     -0.157000005       90.2136078      0.193313658    
   5.48999977       0.00000000     -0.157000005       93.4819794      0.191095084    
   4.76741982       0.00000000     -0.246999994       93.4819794      0.191095084    
   4.67581606      0.930077016     -0.246999994       93.4819794      0.191095084    
   5.38451099       1.07104599     -0.157000005       93.4819794      0.191095084    
   5.38451099      -1.07104599     -0.157000005       93.6287918      0.183758944    
   4.67581606     -0.930077016     -0.246999994       93.6287918      0.183758944    
   4.76741982       0.00000000     -0.246999994       93.6287918      0.183758944    
   5.48999977       0.00000000     -0.157000005       93.6287918      0.183758944    
   5.07209921      -2.10093188     -0.157000005       90.8201523      0.184146181    
   4.40452194      -1.82441294     -0.246999994       90.8201523      0.184146181    
   4.67581606     -0.930077016     -0.246999994       90.8201523      0.184146181    
   5.38451099      -1.07104599     -0.157000005       90.8201523      0.184146181    
   4.56476784      -3.05008101     -0.157000005       83.4215546      0.190504134    
   3.96396494      -2.64863706     -0.246999994       83.4215546      0.190504134    
   4.40452194      -1.82441294     -0.246999994       83.4215546      0.190504134    
   5.07209921      -2.10093188     -0.157000005       83.4215546      0.190504134    
   3.88201594      -3.88201594     -0.157000005       72.3680038      0.195497230    
   3.37107491      -3.37107491     -0.246999994       72.3680038      0.195497230    
   3.96396494      -2.64863706     -0.246999994       72.3680038      0.195497230    
   4.56476784      -3.05008101     -0.157000005       72.3680038      0.195497230    
   3.05008101      -4.56476784     -0.157000005       55.2295647      0.245998517    
   2.64863706      -3.96396494     -0.246999994       55.2295647      0.245998517    
   3.37107491      -3.37107491     -0.246999994       55.2295647      0.245998517    
   3.88201594      -3.88201594     -0.157000005       55.2295647      0.245998517    
   2.10093188      -5.07209921     -0.157000005       44.2722435      0.209601343    
   1.82441294      -4.40452194     -0.246999994       44.2722435      0.209601343    
   2.64863706      -3.96396494     -0.246999994       44.2722435      0.209601343    
   3.05008101      -4.56476784     -0.157000005       44.2722435      0.209601343    
   1.07104599      -5.38451099     -0.157000005       27.3709717      0.203414723    
  0.930077016      -4.67581606     -0.246999994       27.3709717      0.203414723    
   1.82441294      -4.40452194     -0.246999994       27.3709717      0.203414723    
   2.10093188      -5.07209921     -0.157000005       27.3709717      0.203414723    
   0.00000000      -1.87709999     -0.606999993       56.1067429       1.56094217    
   0.00000000      -1.36500001     -0.606999993       56.1067429       1.56094217    
  0.266297996      -1.33877206     -0.606999993       56.1067429       1.56094217    
  0.366203994      -1.84103203     -0.606999993       56.1067429       1.56094217    
   0.00000000      -1.87709999     -0.606999993       16.4216251      -1.59471202    
   0.00000000      -2.59967995     -0.517000020       16.4216251      -1.59471202    
 -0.507171988      -2.54972792     -0.517000020       16.4216251      -1.59471202    
 -0.366203994      -1.84103203     -0.606999993       16.4216251      -1.59471202    
 -0.366203994      -1.84103203     -0.606999993       58.3859787      -1.57775486    
 -0.266297996      -1.33877206     -0.606999993       58.3859787      -1.57775486    
   0.00000000      -1.36500001     -0.606999993       58.3859787      -1.57775486    
   0.00000000      -1.87709999     -0.606999993       58.3859787      -1.57775486    
 -0.366203994      -1.84103203     -0.606999993       49.7367783      -1.59443092    
 -0.507171988      -2.54972792     -0.517000020       49.7367783      -1.59443092    
 -0.994853973      -2.40179110     -0.517000020       49.7367783      -1.59443092    
 -0.718334973      -1.73421395     -0.606999993       49.7367783      -1.59443092    
 -0.718334973      -1.73421395     -0.606999993       170.542450      -1.57874167    
 -0.522363007      -1.26109600     -0.606999993       170.542450      -1.57874167    
 -0.266297996      -1.33877206     -0.606999993       170.542450      -1.57874167    
 -0.366203994      -1.84103203     -0.606999993       170.542450      -1.57874167    
 -0.718334973      -1.73421395     -0.606999993       81.1151505      -1.59386849    
 -0.994853973      -2.40179110     -0.517000020       81.1151505      -1.59386849    
  -1.44430494      -2.16155505     -0.517000020       81.1151505      -1.59386849    
  -1.04286098      -1.56075203     -0.606999993       81.1151505      -1.59386849    
  -1.04286098      -1.56075203     -0.606999993       276.060272      -1.57879758    
 -0.758352995      -1.13495600     -0.606999993       276.060272      -1.57879758    
 -0.522363007      -1.26109600     -0.606999993       276.060272      -1.57879758    
 -0.718334973      -1.73421395     -0.606999993       276.060272      -1.57879758    
  -1.04286098      -1.56075203     -0.606999993       109.485703      -1.59349358    
  -1.44430494      -2.16155505     -0.517000020       109.485703      -1.59349358    
  -1.83825099      -1.83825099     -0.517000020       109.485703      -1.59349358    
  -1.32730997      -1.32730997     -0.606999993       109.485703      -1.59349358    
  -1.32730997      -1.32730997     -0.606999993       370.904785      -1.57882893    
 -0.965201020     -0.965201020     -0.606999993       370.904785      -1.57882893    
 -0.758352995      -1.13495600     -0.606999993       370.904785      -1.57882893    
  -1.04286098      -1.56075203     -0.606999993       370.904785      -1.57882893    
  -1.32730997      -1.32730997     -0.606999993       133.770782      -1.59334612    
  -1.83825099      -1.83825099     -0.517000020       133.770782      -1.59334612    
  -2.16155505      -1.44430494     -0.517000020       133.770782      -1.59334612    
  -1.56075203      -1.04286098     -0.606999993       133.770782      -1.59334612    
  -1.56075203      -1.04286098     -0.606999993       451.482452      -1.57885587    
  -1.13495600     -0.758352995     -0.606999993       451.482452      -1.57885587    
 -0.965201020     -0.965201020     -0.606999993       451.482452      -1.57885587    
  -1.32730997      -1.32730997     -0.606999993       451.482452      -1.57885587    
  -1.56075203      -1.04286098     -0.606999993       152.816254      -1.59336424    
  -2.16155505      -1.44430494     -0.517000020       152.816254      -1.59336424    
  -2.40179110     -0.994853973     -0.517000020       152.816254      -1.59336424    
  -1.73421395     -0.718334973     -0.606999993       152.816254      -1.59336424    
  -1.73421395     -0.718334973     -0.606999993       514.717590      -1.57889795    
  -1.26109600     -0.522363007     -0.606999993       514.717590      -1.57889795    
  -1.13495600     -0.758352995     -0.606999993       514.717590      -1.57889795    
  -1.56075203      -1.04286098     -0.606999993       514.717590      -1.57889795    
  -1.73421395     -0.718334973     -0.606999993       165.673615      -1.59339201    
  -2.40179110     -0.994853973     -0.517000020       165.673615      -1.59339201    
  -2.54972792     -0.507171988     -0.517000020       165.673615      -1.59339201    
  -1.84103203     -0.366203994     -0.606999993       165.673615      -1.59339201    
  -1.84103203     -0.366203994     -0.606999993       558.002625      -1.57894039    
  -1.33877206     -0.266297996     -0.606999993       558.002625      -1.57894039    
  -1.26109600     -0.522363007     -0.606999993       558.002625      -1.57894039    
  -1.73421395     -0.718334973     -0.606999993       558.002625      -1.57894039    
  -1.84103203     -0.366203994     -0.606999993       171.985962      -1.59334934    
  -2.54972792     -0.507171988     -0.517000020       171.985962      -1.59334934    
  -2.59967995       0.00000000     -0.517000020       171.985962      -1.59334934    
  -1.87709999       0.00000000     -0.606999993       171.985962      -1.59334934    
  -1.87709999       0.00000000     -0.606999993       579.643738      -1.57897055    
  -1.36500001       0.00000000     -0.606999993       579.643738      -1.57897055    
  -1.33877206     -0.266297996     -0.606999993       579.643738      -1.57897055    
  -1.84103203     -0.366203994     -0.606999993       579.643738      -1.57897055    
  -1.87709999       0.00000000     -0.606999993       171.829834      -1.59326804    
  -2.59967995       0.00000000     -0.517000020       171.829834      -1.59326804    
  -2.54972792      0.507171988     -0.517000020       171.829834      -1.59326804    
  -1.84103203      0.366203994     -0.606999993       171.829834      -1.59326804    
  -1.84103203      0.366203994     -0.606999993       578.932922      -1.57897937    
  -1.33877206      0.266297996     -0.606999993       578.932922      -1.57897937    
  -1.36500001       0.00000000     -0.606999993       578.932922      -1.57897937    
  -1.87709999       0.00000000     -0.606999993       578.932922      -1.57897937    
  -1.84103203      0.366203994     -0.606999993       165.280167      -1.59317362    
  -2.54972792      0.507171988     -0.517000020       165.280167      -1.59317362    
  -2.40179110      0.994853973     -0.517000020       165.280167      -1.59317362    
  -1.73421395      0.718334973     -0.606999993       165.280167      -1.59317362    
  -1.73421395      0.718334973     -0.606999993       555.970642      -1.57896531    
  -1.26109600      0.522363007     -0.606999993       555.970642      -1.57896531    
  -1.33877206      0.266297996     -0.606999993       555.970642      -1.57896531    
  -1.84103203      0.366203994     -0.606999993       555.970642      -1.57896531    
  -1.73421395      0.718334973     -0.606999993       152.334747      -1.59303784    
  -2.40179110      0.994853973     -0.517000020       152.334747      -1.59303784    
  -2.16155505       1.44430494     -0.517000020       152.334747      -1.59303784    
  -1.56075203       1.04286098     -0.606999993       152.334747      -1.59303784    
  -1.56075203       1.04286098     -0.606999993       511.576477      -1.57893455    
  -1.13495600      0.758352995     -0.606999993       511.576477      -1.57893455    
  -1.26109600      0.522363007     -0.606999993       511.576477      -1.57893455    
  -1.73421395      0.718334973     -0.606999993       511.576477      -1.57893455    
  -1.56075203       1.04286098     -0.606999993       133.300232      -1.59289348    
  -2.16155505       1.44430494     -0.517000020       133.300232      -1.59289348    
  -1.83825099       1.83825099     -0.517000020       133.300232      -1.59289348    
  -1.32730997       1.32730997     -0.606999993       133.300232      -1.59289348    
  -1.32730997       1.32730997     -0.606999993       447.459808      -1.57889926    
 -0.965201020      0.965201020     -0.606999993       447.459808      -1.57889926    
  -1.13495600      0.758352995     -0.606999993       447.459808      -1.57889926    
  -1.56075203       1.04286098     -0.606999993       447.459808      -1.57889926    
  -1.32730997       1.32730997     -0.606999993       109.082932      -1.59285188    
  -1.83825099       1.83825099     -0.517000020       109.082932      -1.59285188    
  -1.44430494       2.16155505     -0.517000020       109.082932      -1.59285188    
  -1.04286098       1.56075203     -0.606999993       109.082932      -1.59285188    
  -1.04286098       1.56075203     -0.606999993       366.270538      -1.57886100    
 -0.758352995       1.13495600     -0.606999993       366.270538      -1.57886100    
 -0.965201020      0.965201020     -0.606999993       366.270538      -1.57886100    
  -1.32730997       1.32730997     -0.606999993       366.270538      -1.57886100    
  -1.04286098       1.56075203     -0.606999993       80.8968048      -1.59295869    
  -1.44430494       2.16155505     -0.517000020       80.8968048      -1.59295869    
 -0.994853973       2.40179110     -0.517000020       80.8968048      -1.59295869    
 -0.718334973       1.73421395     -0.606999993       80.8968048      -1.59295869    
 -0.718334973       1.73421395     -0.606999993       271.277039      -1.57881117    
 -0.522363007       1.26109600     -0.606999993       271.277039      -1.57881117    
 -0.758352995       1.13495600     -0.606999993       271.277039      -1.57881117    
  -1.04286098       1.56075203     -0.606999993       271.277039      -1.57881117    
 -0.718334973       1.73421395     -0.606999993       49.8856544      -1.59284997    
 -0.994853973       2.40179110     -0.517000020       49.8856544      -1.59284997    
 -0.507171988       2.54972792     -0.517000020       49.8856544      -1.59284997    
 -0.366203994       1.84103203     -0.606999993       49.8856544      -1.59284997    
 -0.366203994       1.84103203     -0.606999993       166.249985      -1.57858360    
 -0.266297996       1.33877206     -0.606999993       166.249985      -1.57858360    
 -0.522363007       1.26109600     -0.606999993       166.249985      -1.57858360    
 -0.718334973       1.73421395     -0.606999993       166.249985      -1.57858360    
 -0.366203994       1.84103203     -0.606999993       17.1214371      -1.58964324    
 -0.507171988       2.54972792     -0.517000020       17.1214371      -1.58964324    
   0.00000000       2.59967995     -0.517000020       17.1214371      -1.58964324    
   0.00000000       1.87709999     -0.606999993       17.1214371      -1.58964324    
   0.00000000       1.87709999     -0.606999993       55.1397171      -1.57712269    
   0.00000000       1.36500001     -0.606999993       55.1397171      -1.57712269    
 -0.266297996       1.33877206     -0.606999993       55.1397171      -1.57712269    
 -0.366203994       1.84103203     -0.606999993       55.1397171      -1.57712269    
   0.00000000       1.87709999     -0.606999993       16.2188168       1.54063118    
   0.00000000       2.59967995     -0.517000020       16.2188168       1.54063118    
  0.507171988       2.54972792     -0.517000020       16.2188168       1.54063118    
  0.366203994       1.84103203     -0.606999993       16.2188168       1.54063118    
  0.366203994       1.84103203     -0.606999993       57.8444099       1.55978739    
  0.266297996       1.33877206     -0.606999993       57.8444099       1.55978739    
   0.00000000       1.36500001     -0.606999993       57.8444099       1.55978739    
   0.00000000       1.87709999     -0.606999993       57.8444099       1.55978739    
  0.366203994       1.84103203     -0.606999993       48.8883018       1.54491460    
  0.507171988       2.54972792     -0.517000020       48.8883018       1.54491460    
  0.994853973       2.40179110     -0.517000020       48.8883018       1.54491460    
  0.718334973       1.73421395     -0.606999993       48.8883018       1.54491460    
  0.718334973       1.73421395     -0.606999993       168.534103       1.56133687    
  0.522363007       1.26109600     -0.606999993       168.534103       1.56133687    
  0.266297996       1.33877206     -0.606999993       168.534103       1.56133687    
  0.366203994       1.84103203     -0.606999993       168.534103       1.56133687    
  0.718334973       1.73421395     -0.606999993       79.7394180       1.54628885    
  0.994853973       2.40179110     -0.517000020       79.7394180       1.54628885    
   1.44430494       2.16155505     -0.517000020       79.7394180       1.54628885    
   1.04286098       1.56075203     -0.606999993       79.7394180       1.54628885    
   1.04286098       1.56075203     -0.606999993       272.842377       1.56183243    
  0.758352995       1.13495600     -0.606999993       272.842377       1.56183243    
  0.522363007       1.26109600     -0.606999993       272.842377       1.56183243    
  0.718334973       1.73421395     -0.606999993       272.842377       1.56183243    
   1.04286098       1.56075203     -0.606999993       107.759659       1.54700506    
   1.44430494       2.16155505     -0.517000020       107.759659       1.54700506    
   1.83825099       1.83825099     -0.517000020       107.759659       1.54700506    
   1.32730997       1.32730997     -0.606999993       107.759659       1.54700506    
   1.32730997       1.32730997     -0.606999993       366.928467       1.56206107    
  0.965201020      0.965201020     -0.606999993       366.928467       1.56206107    
  0.758352995       1.13495600     -0.606999993       366.928467       1.56206107    
   1.04286098       1.56075203     -0.606999993       366.928467       1.56206107    
   1.32730997       1.32730997     -0.606999993       131.859299       1.54727149    
   1.83825099       1.83825099     -0.517000020       131.859299       1.54727149    
   2.16155505       1.44430494     -0.517000020       131.859299       1.54727149    
   1.56075203       1.04286098     -0.606999993       131.859299       1.54727149    
   1.56075203       1.04286098     -0.606999993       447.176300       1.56218684    
   1.13495600      0.758352995     -0.606999993       447.176300       1.56218684    
  0.965201020      0.965201020     -0.606999993       447.176300       1.56218684    
   1.32730997       1.32730997     -0.606999993       447.176300       1.56218684    
   1.56075203       1.04286098     -0.606999993       150.853928       1.54729140    
   2.16155505       1.44430494     -0.517000020       150.853928       1.54729140    
   2.40179110      0.994853973     -0.517000020       150.853928       1.54729140    
   1.73421395      0.718334973     -0.606999993       150.853928       1.54729140    
   1.73421395      0.718334973     -0.606999993       510.356812       1.56225669    
   1.26109600      0.522363007     -0.606999993       510.356812       1.56225669    
   1.13495600      0.758352995     -0.606999993       510.356812       1.56225669    
   1.56075203       1.04286098     -0.606999993       510.356812       1.56225669    
   1.73421395      0.718334973     -0.606999993       163.888275       1.54728460    
   2.40179110      0.994853973     -0.517000020       163.888275       1.54728460    
   2.54972792      0.507171988     -0.517000020       163.888275       1.54728460    
   1.84103203      0.366203994     -0.606999993       163.888275       1.54728460    
   1.84103203      0.366203994     -0.606999993       554.102722       1.56231236    
   1.33877206      0.266297996     -0.606999993       554.102722       1.56231236    
   1.26109600      0.522363007     -0.606999993       554.102722       1.56231236    
   1.73421395      0.718334973     -0.606999993       554.102722       1.56231236    
   1.84103203      0.366203994     -0.606999993       170.704620       1.54737329    
   2.54972792      0.507171988     -0.517000020       170.704620       1.54737329    
   2.59967995       0.00000000     -0.517000020       170.704620       1.54737329    
   1.87709999       0.00000000     -0.606999993       170.704620       1.54737329    
   1.87709999       0.00000000     -0.606999993       576.818542       1.56236327    
   1.36500001       0.00000000     -0.606999993       576.818542       1.56236327    
   1.33877206      0.266297996     -0.606999993       576.818542       1.56236327    
   1.84103203      0.366203994     -0.606999993       576.818542       1.56236327    
   1.87709999       0.00000000     -0.606999993       171.282913       1.54752231    
   2.59967995       0.00000000     -0.517000020       171.282913       1.54752231    
   2.54972792     -0.507171988     -0.517000020       171.282913       1.54752231    
   1.84103203     -0.366203994     -0.606999993       171.282913       1.54752231    
   1.84103203     -0.366203994     -0.606999993       577.602661       1.56242418    
   1.33877206     -0.266297996     -0.606999993       577.602661       1.56242418    
   1.36500001       0.00000000     -0.606999993       577.602661       1.56242418    
   1.87709999       0.00000000     -0.606999993       577.602661       1.56242418    
   1.84103203     -0.366203994     -0.606999993       165.469666       1.54777193    
   2.54972792     -0.507171988     -0.517000020       165.469666       1.54777193    
   2.40179110     -0.994853973     -0.517000020       165.469666       1.54777193    
   1.73421395     -0.718334973     -0.606999993       165.469666       1.54777193    
   1.73421395     -0.718334973     -0.606999993       556.241760       1.56249499    
   1.26109600     -0.522363007     -0.606999993       556.241760       1.56249499    
   1.33877206     -0.266297996     -0.606999993       556.241760       1.56249499    
   1.84103203     -0.366203994     -0.606999993       556.241760       1.56249499    
   1.73421395     -0.718334973     -0.606999993       153.084869       1.54806924    
   2.40179110     -0.994853973     -0.517000020       153.084869       1.54806924    
   2.16155505      -1.44430494     -0.517000020       153.084869       1.54806924    
   1.56075203      -1.04286098     -0.606999993       153.084869       1.54806924    
   1.56075203      -1.04286098     -0.606999993       513.271790       1.56255114    
   1.13495600     -0.758352995     -0.606999993       513.271790       1.56255114    
   1.26109600     -0.522363007     -0.606999993       513.271790       1.56255114    