 VARIABLES="X" "Y" "Z" "abs(p) (Pa)" "angle(p) (rad)"
ZONE N=   2709,E =    2358, F=FEPOINT, ET=QUADRILATERAL
   0.00000000      -5.48999977     -0.157000005       34.9153481      -1.58198833    
   0.00000000      -4.76741982     -0.246999994       34.9153481      -1.58198833    
  0.930077016      -4.67581606     -0.246999994       34.9153481      -1.58198833    
   1.07104599      -5.38451099     -0.157000005       34.9153481      -1.58198833    
  -1.07104599      -5.38451099     -0.157000005       34.9832458      -1.58240700    
 -0.930077016      -4.67581606     -0.246999994       34.9832458      -1.58240700    
   0.00000000      -4.76741982     -0.246999994       34.9832458      -1.58240700    
   0.00000000      -5.48999977     -0.157000005       34.9832458      -1.58240700    
  -2.10093188      -5.07209921     -0.157000005       36.0810165      -1.58009291    
  -1.82441294      -4.40452194     -0.246999994       36.0810165      -1.58009291    
 -0.930077016      -4.67581606     -0.246999994       36.0810165      -1.58009291    
  -1.07104599      -5.38451099     -0.157000005       36.0810165      -1.58009291    
  -3.05008101      -4.56476784     -0.157000005       35.0657120      -1.58219779    
  -2.64863706      -3.96396494     -0.246999994       35.0657120      -1.58219779    
  -1.82441294      -4.40452194     -0.246999994       35.0657120      -1.58219779    
  -2.10093188      -5.07209921     -0.157000005       35.0657120      -1.58219779    
  -3.88201594      -3.88201594     -0.157000005       35.0286560      -1.58244908    
  -3.37107491      -3.37107491     -0.246999994       35.0286560      -1.58244908    
  -2.64863706      -3.96396494     -0.246999994       35.0286560      -1.58244908    
  -3.05008101      -4.56476784     -0.157000005       35.0286560      -1.58244908    
  -4.56476784      -3.05008101     -0.157000005       35.6878090      -1.58013058    
  -3.96396494      -2.64863706     -0.246999994       35.6878090      -1.58013058    
  -3.37107491      -3.37107491     -0.246999994       35.6878090      -1.58013058    
  -3.88201594      -3.88201594     -0.157000005       35.6878090      -1.58013058    
  -5.07209921      -2.10093188     -0.157000005       34.6275635      -1.58137429    
  -4.40452194      -1.82441294     -0.246999994       34.6275635      -1.58137429    
  -3.96396494      -2.64863706     -0.246999994       34.6275635      -1.58137429    
  -4.56476784      -3.05008101     -0.157000005       34.6275635      -1.58137429    
  -5.38451099      -1.07104599     -0.157000005       34.6564140      -1.58233178    
  -4.67581606     -0.930077016     -0.246999994       34.6564140      -1.58233178    
  -4.40452194      -1.82441294     -0.246999994       34.6564140      -1.58233178    
  -5.07209921      -2.10093188     -0.157000005       34.6564140      -1.58233178    
  -5.48999977       0.00000000     -0.157000005       35.6982498      -1.58045840    
  -4.76741982       0.00000000     -0.246999994       35.6982498      -1.58045840    
  -4.67581606     -0.930077016     -0.246999994       35.6982498      -1.58045840    
  -5.38451099      -1.07104599     -0.157000005       35.6982498      -1.58045840    
  -5.38451099       1.07104599     -0.157000005       35.7998085      -1.58015704    
  -4.67581606      0.930077016     -0.246999994       35.7998085      -1.58015704    
  -4.76741982       0.00000000     -0.246999994       35.7998085      -1.58015704    
  -5.48999977       0.00000000     -0.157000005       35.7998085      -1.58015704    
  -5.07209921       2.10093188     -0.157000005       35.6887665      -1.58026314    
  -4.40452194       1.82441294     -0.246999994       35.6887665      -1.58026314    
  -4.67581606      0.930077016     -0.246999994       35.6887665      -1.58026314    
  -5.38451099       1.07104599     -0.157000005       35.6887665      -1.58026314    
  -4.56476784       3.05008101     -0.157000005       35.5079422      -1.58030593    
  -3.96396494       2.64863706     -0.246999994       35.5079422      -1.58030593    
  -4.40452194       1.82441294     -0.246999994       35.5079422      -1.58030593    
  -5.07209921       2.10093188     -0.157000005       35.5079422      -1.58030593    
  -3.88201594       3.88201594     -0.157000005       34.7404900      -1.58185840    
  -3.37107491       3.37107491     -0.246999994       34.7404900      -1.58185840    
  -3.96396494       2.64863706     -0.246999994       34.7404900      -1.58185840    
  -4.56476784       3.05008101     -0.157000005       34.7404900      -1.58185840    
  -3.05008101       4.56476784     -0.157000005       35.7112617      -1.58008277    
  -2.64863706       3.96396494     -0.246999994       35.7112617      -1.58008277    
  -3.37107491       3.37107491     -0.246999994       35.7112617      -1.58008277    
  -3.88201594       3.88201594     -0.157000005       35.7112617      -1.58008277    
  -2.10093188       5.07209921     -0.157000005       34.7306290      -1.58251166    
  -1.82441294       4.40452194     -0.246999994       34.7306290      -1.58251166    
  -2.64863706       3.96396494     -0.246999994       34.7306290      -1.58251166    
  -3.05008101       4.56476784     -0.157000005       34.7306290      -1.58251166    
  -1.07104599       5.38451099     -0.157000005       35.6719742      -1.57984042    
 -0.930077016       4.67581606     -0.246999994       35.6719742      -1.57984042    
  -1.82441294       4.40452194     -0.246999994       35.6719742      -1.57984042    
  -2.10093188       5.07209921     -0.157000005       35.6719742      -1.57984042    
   0.00000000       5.48999977     -0.157000005       34.7444801      -1.58222604    
   0.00000000       4.76741982     -0.246999994       34.7444801      -1.58222604    
 -0.930077016       4.67581606     -0.246999994       34.7444801      -1.58222604    
  -1.07104599       5.38451099     -0.157000005       34.7444801      -1.58222604    
   1.07104599       5.38451099     -0.157000005       35.5569687      -1.58032572    
  0.930077016       4.67581606     -0.246999994       35.5569687      -1.58032572    
   0.00000000       4.76741982     -0.246999994       35.5569687      -1.58032572    
   0.00000000       5.48999977     -0.157000005       35.5569687      -1.58032572    
   2.10093188       5.07209921     -0.157000005       34.7990494      -1.58145165    
   1.82441294       4.40452194     -0.246999994       34.7990494      -1.58145165    
  0.930077016       4.67581606     -0.246999994       34.7990494      -1.58145165    
   1.07104599       5.38451099     -0.157000005       34.7990494      -1.58145165    
   3.05008101       4.56476784     -0.157000005       34.6471596      -1.58203769    
   2.64863706       3.96396494     -0.246999994       34.6471596      -1.58203769    
   1.82441294       4.40452194     -0.246999994       34.6471596      -1.58203769    
   2.10093188       5.07209921     -0.157000005       34.6471596      -1.58203769    
   3.88201594       3.88201594     -0.157000005       35.7205238      -1.58027434    
   3.37107491       3.37107491     -0.246999994       35.7205238      -1.58027434    
   2.64863706       3.96396494     -0.246999994       35.7205238      -1.58027434    
   3.05008101       4.56476784     -0.157000005       35.7205238      -1.58027434    
   4.56476784       3.05008101     -0.157000005       35.1184196      -1.58100927    
   3.96396494       2.64863706     -0.246999994       35.1184196      -1.58100927    
   3.37107491       3.37107491     -0.246999994       35.1184196      -1.58100927    
   3.88201594       3.88201594     -0.157000005       35.1184196      -1.58100927    
   5.07209921       2.10093188     -0.157000005       35.3635902      -1.57970595    
   4.40452194       1.82441294     -0.246999994       35.3635902      -1.57970595    
   3.96396494       2.64863706     -0.246999994       35.3635902      -1.57970595    
   4.56476784       3.05008101     -0.157000005       35.3635902      -1.57970595    
   5.38451099       1.07104599     -0.157000005       34.6234436      -1.58272588    
   4.67581606      0.930077016     -0.246999994       34.6234436      -1.58272588    
   4.40452194       1.82441294     -0.246999994       34.6234436      -1.58272588    
   5.07209921       2.10093188     -0.157000005       34.6234436      -1.58272588    
   5.48999977       0.00000000     -0.157000005       34.6622772      -1.58191049    
   4.76741982       0.00000000     -0.246999994       34.6622772      -1.58191049    
   4.67581606      0.930077016     -0.246999994       34.6622772      -1.58191049    
   5.38451099       1.07104599     -0.157000005       34.6622772      -1.58191049    
   5.38451099      -1.07104599     -0.157000005       34.6341553      -1.58177650    
   4.67581606     -0.930077016     -0.246999994       34.6341553      -1.58177650    
   4.76741982       0.00000000     -0.246999994       34.6341553      -1.58177650    
   5.48999977       0.00000000     -0.157000005       34.6341553      -1.58177650    
   5.07209921      -2.10093188     -0.157000005       34.5718536      -1.58258629    
   4.40452194      -1.82441294     -0.246999994       34.5718536      -1.58258629    
   4.67581606     -0.930077016     -0.246999994       34.5718536      -1.58258629    
   5.38451099      -1.07104599     -0.157000005       34.5718536      -1.58258629    
   4.56476784      -3.05008101     -0.157000005       34.5764771      -1.58210313    
   3.96396494      -2.64863706     -0.246999994       34.5764771      -1.58210313    
   4.40452194      -1.82441294     -0.246999994       34.5764771      -1.58210313    
   5.07209921      -2.10093188     -0.157000005       34.5764771      -1.58210313    
   3.88201594      -3.88201594     -0.157000005       34.8759422      -1.58205414    
   3.37107491      -3.37107491     -0.246999994       34.8759422      -1.58205414    
   3.96396494      -2.64863706     -0.246999994       34.8759422      -1.58205414    
   4.56476784      -3.05008101     -0.157000005       34.8759422      -1.58205414    
   3.05008101      -4.56476784     -0.157000005       35.9563828      -1.58043063    
   2.64863706      -3.96396494     -0.246999994       35.9563828      -1.58043063    
   3.37107491      -3.37107491     -0.246999994       35.9563828      -1.58043063    
   3.88201594      -3.88201594     -0.157000005       35.9563828      -1.58043063    
   2.10093188      -5.07209921     -0.157000005       35.0609818      -1.58237064    
   1.82441294      -4.40452194     -0.246999994       35.0609818      -1.58237064    
   2.64863706      -3.96396494     -0.246999994       35.0609818      -1.58237064    
   3.05008101      -4.56476784     -0.157000005       35.0609818      -1.58237064    
   1.07104599      -5.38451099     -0.157000005       35.0823517      -1.58175504    
  0.930077016      -4.67581606     -0.246999994       35.0823517      -1.58175504    
   1.82441294      -4.40452194     -0.246999994       35.0823517      -1.58175504    
   2.10093188      -5.07209921     -0.157000005       35.0823517      -1.58175504    
   0.00000000      -1.87709999     -0.606999993       859.111511      -1.57028401    
   0.00000000      -1.36500001     -0.606999993       859.111511      -1.57028401    
  0.266297996      -1.33877206     -0.606999993       859.111511      -1.57028401    
  0.366203994      -1.84103203     -0.606999993       859.111511      -1.57028401    
   0.00000000      -1.87709999     -0.606999993       287.259430      -1.57068467    
   0.00000000      -2.59967995     -0.517000020       287.259430      -1.57068467    
 -0.507171988      -2.54972792     -0.517000020       287.259430      -1.57068467    
 -0.366203994      -1.84103203     -0.606999993       287.259430      -1.57068467    
 -0.366203994      -1.84103203     -0.606999993       859.207214      -1.57028520    
 -0.266297996      -1.33877206     -0.606999993       859.207214      -1.57028520    
   0.00000000      -1.36500001     -0.606999993       859.207214      -1.57028520    
   0.00000000      -1.87709999     -0.606999993       859.207214      -1.57028520    
 -0.366203994      -1.84103203     -0.606999993       274.108185      -1.57063794    
 -0.507171988      -2.54972792     -0.517000020       274.108185      -1.57063794    
 -0.994853973      -2.40179110     -0.517000020       274.108185      -1.57063794    
 -0.718334973      -1.73421395     -0.606999993       274.108185      -1.57063794    
 -0.718334973      -1.73421395     -0.606999993       852.330383      -1.57027256    
 -0.522363007      -1.26109600     -0.606999993       852.330383      -1.57027256    
 -0.266297996      -1.33877206     -0.606999993       852.330383      -1.57027256    
 -0.366203994      -1.84103203     -0.606999993       852.330383      -1.57027256    
 -0.718334973      -1.73421395     -0.606999993       262.766602      -1.57058597    
 -0.994853973      -2.40179110     -0.517000020       262.766602      -1.57058597    
  -1.44430494      -2.16155505     -0.517000020       262.766602      -1.57058597    
  -1.04286098      -1.56075203     -0.606999993       262.766602      -1.57058597    
  -1.04286098      -1.56075203     -0.606999993       846.397339      -1.57025635    
 -0.758352995      -1.13495600     -0.606999993       846.397339      -1.57025635    
 -0.522363007      -1.26109600     -0.606999993       846.397339      -1.57025635    
 -0.718334973      -1.73421395     -0.606999993       846.397339      -1.57025635    
  -1.04286098      -1.56075203     -0.606999993       264.346252      -1.57057655    
  -1.44430494      -2.16155505     -0.517000020       264.346252      -1.57057655    
  -1.83825099      -1.83825099     -0.517000020       264.346252      -1.57057655    
  -1.32730997      -1.32730997     -0.606999993       264.346252      -1.57057655    
  -1.32730997      -1.32730997     -0.606999993       848.209961      -1.57024825    
 -0.965201020     -0.965201020     -0.606999993       848.209961      -1.57024825    
 -0.758352995      -1.13495600     -0.606999993       848.209961      -1.57024825    
  -1.04286098      -1.56075203     -0.606999993       848.209961      -1.57024825    
  -1.32730997      -1.32730997     -0.606999993       276.499939      -1.57060242    
  -1.83825099      -1.83825099     -0.517000020       276.499939      -1.57060242    
  -2.16155505      -1.44430494     -0.517000020       276.499939      -1.57060242    
  -1.56075203      -1.04286098     -0.606999993       276.499939      -1.57060242    
  -1.56075203      -1.04286098     -0.606999993       856.658081      -1.57024848    
  -1.13495600     -0.758352995     -0.606999993       856.658081      -1.57024848    
 -0.965201020     -0.965201020     -0.606999993       856.658081      -1.57024848    
  -1.32730997      -1.32730997     -0.606999993       856.658081      -1.57024848    
  -1.56075203      -1.04286098     -0.606999993       285.942291      -1.57061708    
  -2.16155505      -1.44430494     -0.517000020       285.942291      -1.57061708    
  -2.40179110     -0.994853973     -0.517000020       285.942291      -1.57061708    
  -1.73421395     -0.718334973     -0.606999993       285.942291      -1.57061708    
  -1.73421395     -0.718334973     -0.606999993       864.312317      -1.57024741    
  -1.26109600     -0.522363007     -0.606999993       864.312317      -1.57024741    
  -1.13495600     -0.758352995     -0.606999993       864.312317      -1.57024741    
  -1.56075203      -1.04286098     -0.606999993       864.312317      -1.57024741    
  -1.73421395     -0.718334973     -0.606999993       282.732330      -1.57058907    
  -2.40179110     -0.994853973     -0.517000020       282.732330      -1.57058907    
  -2.54972792     -0.507171988     -0.517000020       282.732330      -1.57058907    
  -1.84103203     -0.366203994     -0.606999993       282.732330      -1.57058907    
  -1.84103203     -0.366203994     -0.606999993       865.582947      -1.57023787    
  -1.33877206     -0.266297996     -0.606999993       865.582947      -1.57023787    
  -1.26109600     -0.522363007     -0.606999993       865.582947      -1.57023787    
  -1.73421395     -0.718334973     -0.606999993       865.582947      -1.57023787    
  -1.84103203     -0.366203994     -0.606999993       274.029572      -1.57053971    
  -2.54972792     -0.507171988     -0.517000020       274.029572      -1.57053971    
  -2.59967995       0.00000000     -0.517000020       274.029572      -1.57053971    
  -1.87709999       0.00000000     -0.606999993       274.029572      -1.57053971    
  -1.87709999       0.00000000     -0.606999993       863.189575      -1.57022369    
  -1.36500001       0.00000000     -0.606999993       863.189575      -1.57022369    
  -1.33877206     -0.266297996     -0.606999993       863.189575      -1.57022369    
  -1.84103203     -0.366203994     -0.606999993       863.189575      -1.57022369    
  -1.87709999       0.00000000     -0.606999993       273.544128      -1.57051754    
  -2.59967995       0.00000000     -0.517000020       273.544128      -1.57051754    
  -2.54972792      0.507171988     -0.517000020       273.544128      -1.57051754    
  -1.84103203      0.366203994     -0.606999993       273.544128      -1.57051754    
  -1.84103203      0.366203994     -0.606999993       863.630737      -1.57021523    
  -1.33877206      0.266297996     -0.606999993       863.630737      -1.57021523    
  -1.36500001       0.00000000     -0.606999993       863.630737      -1.57021523    
  -1.87709999       0.00000000     -0.606999993       863.630737      -1.57021523    
  -1.84103203      0.366203994     -0.606999993       283.472809      -1.57053673    
  -2.54972792      0.507171988     -0.517000020       283.472809      -1.57053673    
  -2.40179110      0.994853973     -0.517000020       283.472809      -1.57053673    
  -1.73421395      0.718334973     -0.606999993       283.472809      -1.57053673    
  -1.73421395      0.718334973     -0.606999993       868.051392      -1.57021666    
  -1.26109600      0.522363007     -0.606999993       868.051392      -1.57021666    
  -1.33877206      0.266297996     -0.606999993       868.051392      -1.57021666    
  -1.84103203      0.366203994     -0.606999993       868.051392      -1.57021666    
  -1.73421395      0.718334973     -0.606999993       291.363983      -1.57056177    
  -2.40179110      0.994853973     -0.517000020       291.363983      -1.57056177    
  -2.16155505       1.44430494     -0.517000020       291.363983      -1.57056177    
  -1.56075203       1.04286098     -0.606999993       291.363983      -1.57056177    
  -1.56075203       1.04286098     -0.606999993       870.612122      -1.57022214    
  -1.13495600      0.758352995     -0.606999993       870.612122      -1.57022214    
  -1.26109600      0.522363007     -0.606999993       870.612122      -1.57022214    
  -1.73421395      0.718334973     -0.606999993       870.612122      -1.57022214    
  -1.56075203       1.04286098     -0.606999993       285.640594      -1.57056236    
  -2.16155505       1.44430494     -0.517000020       285.640594      -1.57056236    
  -1.83825099       1.83825099     -0.517000020       285.640594      -1.57056236    
  -1.32730997       1.32730997     -0.606999993       285.640594      -1.57056236    
  -1.32730997       1.32730997     -0.606999993       866.443604      -1.57022774    
 -0.965201020      0.965201020     -0.606999993       866.443604      -1.57022774    
  -1.13495600      0.758352995     -0.606999993       866.443604      -1.57022774    
  -1.56075203       1.04286098     -0.606999993       866.443604      -1.57022774    
  -1.32730997       1.32730997     -0.606999993       272.693604      -1.57055306    
  -1.83825099       1.83825099     -0.517000020       272.693604      -1.57055306    
  -1.44430494       2.16155505     -0.517000020       272.693604      -1.57055306    
  -1.04286098       1.56075203     -0.606999993       272.693604      -1.57055306    
  -1.04286098       1.56075203     -0.606999993       858.809631      -1.57023668    
 -0.758352995       1.13495600     -0.606999993       858.809631      -1.57023668    
 -0.965201020      0.965201020     -0.606999993       858.809631      -1.57023668    
  -1.32730997       1.32730997     -0.606999993       858.809631      -1.57023668    
  -1.04286098       1.56075203     -0.606999993       267.817047      -1.57058096    
  -1.44430494       2.16155505     -0.517000020       267.817047      -1.57058096    
 -0.994853973       2.40179110     -0.517000020       267.817047      -1.57058096    
 -0.718334973       1.73421395     -0.606999993       267.817047      -1.57058096    
 -0.718334973       1.73421395     -0.606999993       855.398193      -1.57025456    
 -0.522363007       1.26109600     -0.606999993       855.398193      -1.57025456    
 -0.758352995       1.13495600     -0.606999993       855.398193      -1.57025456    
  -1.04286098       1.56075203     -0.606999993       855.398193      -1.57025456    
 -0.718334973       1.73421395     -0.606999993       276.247742      -1.57064974    
 -0.994853973       2.40179110     -0.517000020       276.247742      -1.57064974    
 -0.507171988       2.54972792     -0.517000020       276.247742      -1.57064974    
 -0.366203994       1.84103203     -0.606999993       276.247742      -1.57064974    
 -0.366203994       1.84103203     -0.606999993       859.075562      -1.57028067    
 -0.266297996       1.33877206     -0.606999993       859.075562      -1.57028067    
 -0.522363007       1.26109600     -0.606999993       859.075562      -1.57028067    
 -0.718334973       1.73421395     -0.606999993       859.075562      -1.57028067    
 -0.366203994       1.84103203     -0.606999993       287.899719      -1.57070911    
 -0.507171988       2.54972792     -0.517000020       287.899719      -1.57070911    
   0.00000000       2.59967995     -0.517000020       287.899719      -1.57070911    
   0.00000000       1.87709999     -0.606999993       287.899719      -1.57070911    
   0.00000000       1.87709999     -0.606999993       864.498474      -1.57030165    
   0.00000000       1.36500001     -0.606999993       864.498474      -1.57030165    
 -0.266297996       1.33877206     -0.606999993       864.498474      -1.57030165    
 -0.366203994       1.84103203     -0.606999993       864.498474      -1.57030165    
   0.00000000       1.87709999     -0.606999993       287.943298      -1.57071292    
   0.00000000       2.59967995     -0.517000020       287.943298      -1.57071292    
  0.507171988       2.54972792     -0.517000020       287.943298      -1.57071292    
  0.366203994       1.84103203     -0.606999993       287.943298      -1.57071292    
  0.366203994       1.84103203     -0.606999993       864.579529      -1.57030463    
  0.266297996       1.33877206     -0.606999993       864.579529      -1.57030463    
   0.00000000       1.36500001     -0.606999993       864.579529      -1.57030463    
   0.00000000       1.87709999     -0.606999993       864.579529      -1.57030463    
  0.366203994       1.84103203     -0.606999993       276.351807      -1.57065797    
  0.507171988       2.54972792     -0.517000020       276.351807      -1.57065797    
  0.994853973       2.40179110     -0.517000020       276.351807      -1.57065797    
  0.718334973       1.73421395     -0.606999993       276.351807      -1.57065797    
  0.718334973       1.73421395     -0.606999993       859.307312      -1.57028937    
  0.522363007       1.26109600     -0.606999993       859.307312      -1.57028937    
  0.266297996       1.33877206     -0.606999993       859.307312      -1.57028937    
  0.366203994       1.84103203     -0.606999993       859.307312      -1.57028937    
  0.718334973       1.73421395     -0.606999993       268.005341      -1.57059467    
  0.994853973       2.40179110     -0.517000020       268.005341      -1.57059467    
   1.44430494       2.16155505     -0.517000020       268.005341      -1.57059467    
   1.04286098       1.56075203     -0.606999993       268.005341      -1.57059467    
   1.04286098       1.56075203     -0.606999993       855.769104      -1.57026744    
  0.758352995       1.13495600     -0.606999993       855.769104      -1.57026744    
  0.522363007       1.26109600     -0.606999993       855.769104      -1.57026744    
  0.718334973       1.73421395     -0.606999993       855.769104      -1.57026744    
   1.04286098       1.56075203     -0.606999993       272.949951      -1.57056844    
   1.44430494       2.16155505     -0.517000020       272.949951      -1.57056844    
   1.83825099       1.83825099     -0.517000020       272.949951      -1.57056844    
   1.32730997       1.32730997     -0.606999993       272.949951      -1.57056844    
   1.32730997       1.32730997     -0.606999993       859.200989      -1.57025087    
  0.965201020      0.965201020     -0.606999993       859.200989      -1.57025087    
  0.758352995       1.13495600     -0.606999993       859.200989      -1.57025087    
   1.04286098       1.56075203     -0.606999993       859.200989      -1.57025087    
   1.32730997       1.32730997     -0.606999993       285.908966      -1.57057655    
   1.83825099       1.83825099     -0.517000020       285.908966      -1.57057655    
   2.16155505       1.44430494     -0.517000020       285.908966      -1.57057655    
   1.56075203       1.04286098     -0.606999993       285.908966      -1.57057655    
   1.56075203       1.04286098     -0.606999993       866.663452      -1.57024157    
   1.13495600      0.758352995     -0.606999993       866.663452      -1.57024157    
  0.965201020      0.965201020     -0.606999993       866.663452      -1.57024157    
   1.32730997       1.32730997     -0.606999993       866.663452      -1.57024157    
   1.56075203       1.04286098     -0.606999993       291.522583      -1.57057631    
   2.16155505       1.44430494     -0.517000020       291.522583      -1.57057631    
   2.40179110      0.994853973     -0.517000020       291.522583      -1.57057631    
   1.73421395      0.718334973     -0.606999993       291.522583      -1.57057631    
   1.73421395      0.718334973     -0.606999993       870.273315      -1.57023418    
   1.26109600      0.522363007     -0.606999993       870.273315      -1.57023418    
   1.13495600      0.758352995     -0.606999993       870.273315      -1.57023418    
   1.56075203       1.04286098     -0.606999993       870.273315      -1.57023418    
   1.73421395      0.718334973     -0.606999993       283.373749      -1.57054996    
   2.40179110      0.994853973     -0.517000020       283.373749      -1.57054996    
   2.54972792      0.507171988     -0.517000020       283.373749      -1.57054996    
   1.84103203      0.366203994     -0.606999993       283.373749      -1.57054996    
   1.84103203      0.366203994     -0.606999993       867.063843      -1.57022667    
   1.33877206      0.266297996     -0.606999993       867.063843      -1.57022667    
   1.26109600      0.522363007     -0.606999993       867.063843      -1.57022667    
   1.73421395      0.718334973     -0.606999993       867.063843      -1.57022667    
   1.84103203      0.366203994     -0.606999993       273.178833      -1.57052791    
   2.54972792      0.507171988     -0.517000020       273.178833      -1.57052791    
   2.59967995       0.00000000     -0.517000020       273.178833      -1.57052791    
   1.87709999       0.00000000     -0.606999993       273.178833      -1.57052791    
   1.87709999       0.00000000     -0.606999993       862.169922      -1.57022238    
   1.36500001       0.00000000     -0.606999993       862.169922      -1.57022238    
   1.33877206      0.266297996     -0.606999993       862.169922      -1.57022238    
   1.84103203      0.366203994     -0.606999993       862.169922      -1.57022238    
   1.87709999       0.00000000     -0.606999993       273.519409      -1.57054794    
   2.59967995       0.00000000     -0.517000020       273.519409      -1.57054794    
   2.54972792     -0.507171988     -0.517000020       273.519409      -1.57054794    
   1.84103203     -0.366203994     -0.606999993       273.519409      -1.57054794    
   1.84103203     -0.366203994     -0.606999993       861.488953      -1.57022715    
   1.33877206     -0.266297996     -0.606999993       861.488953      -1.57022715    
   1.36500001       0.00000000     -0.606999993       861.488953      -1.57022715    
   1.87709999       0.00000000     -0.606999993       861.488953      -1.57022715    
   1.84103203     -0.366203994     -0.606999993       282.196503      -1.57059228    
   2.54972792     -0.507171988     -0.517000020       282.196503      -1.57059228    
   2.40179110     -0.994853973     -0.517000020       282.196503      -1.57059228    
   1.73421395     -0.718334973     -0.606999993       282.196503      -1.57059228    
   1.73421395     -0.718334973     -0.606999993       863.876770      -1.57023764    
   1.26109600     -0.522363007     -0.606999993       863.876770      -1.57023764    
   1.33877206     -0.266297996     -0.606999993       863.876770      -1.57023764    
   1.84103203     -0.366203994     -0.606999993       863.876770      -1.57023764    
   1.73421395     -0.718334973     -0.606999993       285.423004      -1.57061529    
   2.40179110     -0.994853973     -0.517000020       285.423004      -1.57061529    
   2.16155505      -1.44430494     -0.517000020       285.423004      -1.57061529    
   1.56075203      -1.04286098     -0.606999993       285.423004      -1.57061529    
   1.56075203      -1.04286098     -0.606999993       862.854858      -1.57024384    
   1.13495600     -0.758352995     -0.606999993       862.854858      -1.57024384    
   1.26109600     -0.522363007     -0.606999993       862.854858      -1.57024384    