 VARIABLES="X" "Y" "Z" "abs(p) (Pa)" "angle(p) (rad)"
ZONE N=   2709,E =    2358, F=FEPOINT, ET=QUADRILATERAL
   0.00000000      -5.48999977     -0.157000005       338.007874      -1.53956616    
   0.00000000      -4.76741982     -0.246999994       338.007874      -1.53956616    
  0.930077016      -4.67581606     -0.246999994       338.007874      -1.53956616    
   1.07104599      -5.38451099     -0.157000005       338.007874      -1.53956616    
  -1.07104599      -5.38451099     -0.157000005       342.680450       1.60494792    
 -0.930077016      -4.67581606     -0.246999994       342.680450       1.60494792    
   0.00000000      -4.76741982     -0.246999994       342.680450       1.60494792    
   0.00000000      -5.48999977     -0.157000005       342.680450       1.60494792    
  -2.10093188      -5.07209921     -0.157000005       1011.47296       1.61197448    
  -1.82441294      -4.40452194     -0.246999994       1011.47296       1.61197448    
 -0.930077016      -4.67581606     -0.246999994       1011.47296       1.61197448    
  -1.07104599      -5.38451099     -0.157000005       1011.47296       1.61197448    
  -3.05008101      -4.56476784     -0.157000005       1633.02893       1.60605931    
  -2.64863706      -3.96396494     -0.246999994       1633.02893       1.60605931    
  -1.82441294      -4.40452194     -0.246999994       1633.02893       1.60605931    
  -2.10093188      -5.07209921     -0.157000005       1633.02893       1.60605931    
  -3.88201594      -3.88201594     -0.157000005       2187.94385       1.60619116    
  -3.37107491      -3.37107491     -0.246999994       2187.94385       1.60619116    
  -2.64863706      -3.96396494     -0.246999994       2187.94385       1.60619116    
  -3.05008101      -4.56476784     -0.157000005       2187.94385       1.60619116    
  -4.56476784      -3.05008101     -0.157000005       2696.55493       1.60869932    
  -3.96396494      -2.64863706     -0.246999994       2696.55493       1.60869932    
  -3.37107491      -3.37107491     -0.246999994       2696.55493       1.60869932    
  -3.88201594      -3.88201594     -0.157000005       2696.55493       1.60869932    
  -5.07209921      -2.10093188     -0.157000005       3046.08496       1.60592425    
  -4.40452194      -1.82441294     -0.246999994       3046.08496       1.60592425    
  -3.96396494      -2.64863706     -0.246999994       3046.08496       1.60592425    
  -4.56476784      -3.05008101     -0.157000005       3046.08496       1.60592425    
  -5.38451099      -1.07104599     -0.157000005       3304.15186       1.60566199    
  -4.67581606     -0.930077016     -0.246999994       3304.15186       1.60566199    
  -4.40452194      -1.82441294     -0.246999994       3304.15186       1.60566199    
  -5.07209921      -2.10093188     -0.157000005       3304.15186       1.60566199    
  -5.48999977       0.00000000     -0.157000005       3467.05322       1.61039782    
  -4.76741982       0.00000000     -0.246999994       3467.05322       1.61039782    
  -4.67581606     -0.930077016     -0.246999994       3467.05322       1.61039782    
  -5.38451099      -1.07104599     -0.157000005       3467.05322       1.61039782    
  -5.38451099       1.07104599     -0.157000005       3466.06738       1.61045551    
  -4.67581606      0.930077016     -0.246999994       3466.06738       1.61045551    
  -4.76741982       0.00000000     -0.246999994       3466.06738       1.61045551    
  -5.48999977       0.00000000     -0.157000005       3466.06738       1.61045551    
  -5.07209921       2.10093188     -0.157000005       3334.19482       1.61001337    
  -4.40452194       1.82441294     -0.246999994       3334.19482       1.61001337    
  -4.67581606      0.930077016     -0.246999994       3334.19482       1.61001337    
  -5.38451099       1.07104599     -0.157000005       3334.19482       1.61001337    
  -4.56476784       3.05008101     -0.157000005       3069.65063       1.61104739    
  -3.96396494       2.64863706     -0.246999994       3069.65063       1.61104739    
  -4.40452194       1.82441294     -0.246999994       3069.65063       1.61104739    
  -5.07209921       2.10093188     -0.157000005       3069.65063       1.61104739    
  -3.88201594       3.88201594     -0.157000005       2670.67798       1.60501122    
  -3.37107491       3.37107491     -0.246999994       2670.67798       1.60501122    
  -3.96396494       2.64863706     -0.246999994       2670.67798       1.60501122    
  -4.56476784       3.05008101     -0.157000005       2670.67798       1.60501122    
  -3.05008101       4.56476784     -0.157000005       2204.10229       1.61123157    
  -2.64863706       3.96396494     -0.246999994       2204.10229       1.61123157    
  -3.37107491       3.37107491     -0.246999994       2204.10229       1.61123157    
  -3.88201594       3.88201594     -0.157000005       2204.10229       1.61123157    
  -2.10093188       5.07209921     -0.157000005       1629.09924       1.60452473    
  -1.82441294       4.40452194     -0.246999994       1629.09924       1.60452473    
  -2.64863706       3.96396494     -0.246999994       1629.09924       1.60452473    
  -3.05008101       4.56476784     -0.157000005       1629.09924       1.60452473    
  -1.07104599       5.38451099     -0.157000005       1004.21448       1.61118221    
 -0.930077016       4.67581606     -0.246999994       1004.21448       1.61118221    
  -1.82441294       4.40452194     -0.246999994       1004.21448       1.61118221    
  -2.10093188       5.07209921     -0.157000005       1004.21448       1.61118221    
   0.00000000       5.48999977     -0.157000005       339.673889       1.60189307    
   0.00000000       4.76741982     -0.246999994       339.673889       1.60189307    
 -0.930077016       4.67581606     -0.246999994       339.673889       1.60189307    
  -1.07104599       5.38451099     -0.157000005       339.673889       1.60189307    
   1.07104599       5.38451099     -0.157000005       348.464630      -1.53115296    
  0.930077016       4.67581606     -0.246999994       348.464630      -1.53115296    
   0.00000000       4.76741982     -0.246999994       348.464630      -1.53115296    
   0.00000000       5.48999977     -0.157000005       348.464630      -1.53115296    
   2.10093188       5.07209921     -0.157000005       1001.16125      -1.53408849    
   1.82441294       4.40452194     -0.246999994       1001.16125      -1.53408849    
  0.930077016       4.67581606     -0.246999994       1001.16125      -1.53408849    
   1.07104599       5.38451099     -0.157000005       1001.16125      -1.53408849    
   3.05008101       4.56476784     -0.157000005       1633.31519      -1.53640759    
   2.64863706       3.96396494     -0.246999994       1633.31519      -1.53640759    
   1.82441294       4.40452194     -0.246999994       1633.31519      -1.53640759    
   2.10093188       5.07209921     -0.157000005       1633.31519      -1.53640759    
   3.88201594       3.88201594     -0.157000005       2207.18945      -1.52999485    
   3.37107491       3.37107491     -0.246999994       2207.18945      -1.52999485    
   2.64863706       3.96396494     -0.246999994       2207.18945      -1.52999485    
   3.05008101       4.56476784     -0.157000005       2207.18945      -1.52999485    
   4.56476784       3.05008101     -0.157000005       2692.29077      -1.53527343    
   3.96396494       2.64863706     -0.246999994       2692.29077      -1.53527343    
   3.37107491       3.37107491     -0.246999994       2692.29077      -1.53527343    
   3.88201594       3.88201594     -0.157000005       2692.29077      -1.53527343    
   5.07209921       2.10093188     -0.157000005       3068.95142      -1.53071594    
   4.40452194       1.82441294     -0.246999994       3068.95142      -1.53071594    
   3.96396494       2.64863706     -0.246999994       3068.95142      -1.53071594    
   4.56476784       3.05008101     -0.157000005       3068.95142      -1.53071594    
   5.38451099       1.07104599     -0.157000005       3308.23022      -1.53599250    
   4.67581606      0.930077016     -0.246999994       3308.23022      -1.53599250    
   4.40452194       1.82441294     -0.246999994       3308.23022      -1.53599250    
   5.07209921       2.10093188     -0.157000005       3308.23022      -1.53599250    
   5.48999977       0.00000000     -0.157000005       3433.93091      -1.53539908    
   4.76741982       0.00000000     -0.246999994       3433.93091      -1.53539908    
   4.67581606      0.930077016     -0.246999994       3433.93091      -1.53539908    
   5.38451099       1.07104599     -0.157000005       3433.93091      -1.53539908    
   5.38451099      -1.07104599     -0.157000005       3437.24609      -1.53584838    
   4.67581606     -0.930077016     -0.246999994       3437.24609      -1.53584838    
   4.76741982       0.00000000     -0.246999994       3437.24609      -1.53584838    
   5.48999977       0.00000000     -0.157000005       3437.24609      -1.53584838    
   5.07209921      -2.10093188     -0.157000005       3302.12061      -1.53577125    
   4.40452194      -1.82441294     -0.246999994       3302.12061      -1.53577125    
   4.67581606     -0.930077016     -0.246999994       3302.12061      -1.53577125    
   5.38451099      -1.07104599     -0.157000005       3302.12061      -1.53577125    
   4.56476784      -3.05008101     -0.157000005       3044.24438      -1.53562164    
   3.96396494      -2.64863706     -0.246999994       3044.24438      -1.53562164    
   4.40452194      -1.82441294     -0.246999994       3044.24438      -1.53562164    
   5.07209921      -2.10093188     -0.157000005       3044.24438      -1.53562164    
   3.88201594      -3.88201594     -0.157000005       2667.42993      -1.53637278    
   3.37107491      -3.37107491     -0.246999994       2667.42993      -1.53637278    
   3.96396494      -2.64863706     -0.246999994       2667.42993      -1.53637278    
   4.56476784      -3.05008101     -0.157000005       2667.42993      -1.53637278    
   3.05008101      -4.56476784     -0.157000005       2205.81299      -1.53089380    
   2.64863706      -3.96396494     -0.246999994       2205.81299      -1.53089380    
   3.37107491      -3.37107491     -0.246999994       2205.81299      -1.53089380    
   3.88201594      -3.88201594     -0.157000005       2205.81299      -1.53089380    
   2.10093188      -5.07209921     -0.157000005       1627.43140      -1.53652394    
   1.82441294      -4.40452194     -0.246999994       1627.43140      -1.53652394    
   2.64863706      -3.96396494     -0.246999994       1627.43140      -1.53652394    
   3.05008101      -4.56476784     -0.157000005       1627.43140      -1.53652394    
   1.07104599      -5.38451099     -0.157000005       998.555908      -1.53541899    
  0.930077016      -4.67581606     -0.246999994       998.555908      -1.53541899    
   1.82441294      -4.40452194     -0.246999994       998.555908      -1.53541899    
   2.10093188      -5.07209921     -0.157000005       998.555908      -1.53541899    
   0.00000000      -1.87709999     -0.606999993       86.0008392       1.57650042    
   0.00000000      -1.36500001     -0.606999993       86.0008392       1.57650042    
  0.266297996      -1.33877206     -0.606999993       86.0008392       1.57650042    
  0.366203994      -1.84103203     -0.606999993       86.0008392       1.57650042    
   0.00000000      -1.87709999     -0.606999993       228.967697      -1.56901467    
   0.00000000      -2.59967995     -0.517000020       228.967697      -1.56901467    
 -0.507171988      -2.54972792     -0.517000020       228.967697      -1.56901467    
 -0.366203994      -1.84103203     -0.606999993       228.967697      -1.56901467    
 -0.366203994      -1.84103203     -0.606999993       50.1683922      -1.56358767    
 -0.266297996      -1.33877206     -0.606999993       50.1683922      -1.56358767    
   0.00000000      -1.36500001     -0.606999993       50.1683922      -1.56358767    
   0.00000000      -1.87709999     -0.606999993       50.1683922      -1.56358767    
 -0.366203994      -1.84103203     -0.606999993       695.546082      -1.56908333    
 -0.507171988      -2.54972792     -0.517000020       695.546082      -1.56908333    
 -0.994853973      -2.40179110     -0.517000020       695.546082      -1.56908333    
 -0.718334973      -1.73421395     -0.606999993       695.546082      -1.56908333    
 -0.718334973      -1.73421395     -0.606999993       188.465271      -1.56442308    
 -0.522363007      -1.26109600     -0.606999993       188.465271      -1.56442308    
 -0.266297996      -1.33877206     -0.606999993       188.465271      -1.56442308    
 -0.366203994      -1.84103203     -0.606999993       188.465271      -1.56442308    
 -0.718334973      -1.73421395     -0.606999993       1135.91797      -1.56912994    
 -0.994853973      -2.40179110     -0.517000020       1135.91797      -1.56912994    
  -1.44430494      -2.16155505     -0.517000020       1135.91797      -1.56912994    
  -1.04286098      -1.56075203     -0.606999993       1135.91797      -1.56912994    
  -1.04286098      -1.56075203     -0.606999993       321.127106      -1.56496751    
 -0.758352995      -1.13495600     -0.606999993       321.127106      -1.56496751    
 -0.522363007      -1.26109600     -0.606999993       321.127106      -1.56496751    
 -0.718334973      -1.73421395     -0.606999993       321.127106      -1.56496751    
  -1.04286098      -1.56075203     -0.606999993       1532.68591      -1.56917250    
  -1.44430494      -2.16155505     -0.517000020       1532.68591      -1.56917250    
  -1.83825099      -1.83825099     -0.517000020       1532.68591      -1.56917250    
  -1.32730997      -1.32730997     -0.606999993       1532.68591      -1.56917250    
  -1.32730997      -1.32730997     -0.606999993       440.499329      -1.56531549    
 -0.965201020     -0.965201020     -0.606999993       440.499329      -1.56531549    
 -0.758352995      -1.13495600     -0.606999993       440.499329      -1.56531549    
  -1.04286098      -1.56075203     -0.606999993       440.499329      -1.56531549    
  -1.32730997      -1.32730997     -0.606999993       1869.81653      -1.56920099    
  -1.83825099      -1.83825099     -0.517000020       1869.81653      -1.56920099    
  -2.16155505      -1.44430494     -0.517000020       1869.81653      -1.56920099    
  -1.56075203      -1.04286098     -0.606999993       1869.81653      -1.56920099    
  -1.56075203      -1.04286098     -0.606999993       539.458313      -1.56554282    
  -1.13495600     -0.758352995     -0.606999993       539.458313      -1.56554282    
 -0.965201020     -0.965201020     -0.606999993       539.458313      -1.56554282    
  -1.32730997      -1.32730997     -0.606999993       539.458313      -1.56554282    
  -1.56075203      -1.04286098     -0.606999993       2131.60815      -1.56920421    
  -2.16155505      -1.44430494     -0.517000020       2131.60815      -1.56920421    
  -2.40179110     -0.994853973     -0.517000020       2131.60815      -1.56920421    
  -1.73421395     -0.718334973     -0.606999993       2131.60815      -1.56920421    
  -1.73421395     -0.718334973     -0.606999993       611.882202      -1.56565452    
  -1.26109600     -0.522363007     -0.606999993       611.882202      -1.56565452    
  -1.13495600     -0.758352995     -0.606999993       611.882202      -1.56565452    
  -1.56075203      -1.04286098     -0.606999993       611.882202      -1.56565452    
  -1.73421395     -0.718334973     -0.606999993       2306.07031      -1.56920207    
  -2.40179110     -0.994853973     -0.517000020       2306.07031      -1.56920207    
  -2.54972792     -0.507171988     -0.517000020       2306.07031      -1.56920207    
  -1.84103203     -0.366203994     -0.606999993       2306.07031      -1.56920207    
  -1.84103203     -0.366203994     -0.606999993       654.202454      -1.56564665    
  -1.33877206     -0.266297996     -0.606999993       654.202454      -1.56564665    
  -1.26109600     -0.522363007     -0.606999993       654.202454      -1.56564665    
  -1.73421395     -0.718334973     -0.606999993       654.202454      -1.56564665    
  -1.84103203     -0.366203994     -0.606999993       2389.51147      -1.56919658    
  -2.54972792     -0.507171988     -0.517000020       2389.51147      -1.56919658    
  -2.59967995       0.00000000     -0.517000020       2389.51147      -1.56919658    
  -1.87709999       0.00000000     -0.606999993       2389.51147      -1.56919658    
  -1.87709999       0.00000000     -0.606999993       668.200012      -1.56558836    
  -1.36500001       0.00000000     -0.606999993       668.200012      -1.56558836    
  -1.33877206     -0.266297996     -0.606999993       668.200012      -1.56558836    
  -1.84103203     -0.366203994     -0.606999993       668.200012      -1.56558836    
  -1.87709999       0.00000000     -0.606999993       2384.01685      -1.56917965    
  -2.59967995       0.00000000     -0.517000020       2384.01685      -1.56917965    
  -2.54972792      0.507171988     -0.517000020       2384.01685      -1.56917965    
  -1.84103203      0.366203994     -0.606999993       2384.01685      -1.56917965    
  -1.84103203      0.366203994     -0.606999993       658.764343      -1.56550157    
  -1.33877206      0.266297996     -0.606999993       658.764343      -1.56550157    
  -1.36500001       0.00000000     -0.606999993       658.764343      -1.56550157    
  -1.87709999       0.00000000     -0.606999993       658.764343      -1.56550157    
  -1.84103203      0.366203994     -0.606999993       2292.00513      -1.56915915    
  -2.54972792      0.507171988     -0.517000020       2292.00513      -1.56915915    
  -2.40179110      0.994853973     -0.517000020       2292.00513      -1.56915915    
  -1.73421395      0.718334973     -0.606999993       2292.00513      -1.56915915    
  -1.73421395      0.718334973     -0.606999993       629.729980      -1.56543553    
  -1.26109600      0.522363007     -0.606999993       629.729980      -1.56543553    
  -1.33877206      0.266297996     -0.606999993       629.729980      -1.56543553    
  -1.84103203      0.366203994     -0.606999993       629.729980      -1.56543553    
  -1.73421395      0.718334973     -0.606999993       2114.72998      -1.56913447    
  -2.40179110      0.994853973     -0.517000020       2114.72998      -1.56913447    
  -2.16155505       1.44430494     -0.517000020       2114.72998      -1.56913447    
  -1.56075203       1.04286098     -0.606999993       2114.72998      -1.56913447    
  -1.56075203       1.04286098     -0.606999993       582.145569      -1.56537545    
  -1.13495600      0.758352995     -0.606999993       582.145569      -1.56537545    
  -1.26109600      0.522363007     -0.606999993       582.145569      -1.56537545    
  -1.73421395      0.718334973     -0.606999993       582.145569      -1.56537545    
  -1.56075203       1.04286098     -0.606999993       1855.90869      -1.56911778    
  -2.16155505       1.44430494     -0.517000020       1855.90869      -1.56911778    
  -1.83825099       1.83825099     -0.517000020       1855.90869      -1.56911778    
  -1.32730997       1.32730997     -0.606999993       1855.90869      -1.56911778    
  -1.32730997       1.32730997     -0.606999993       515.848816      -1.56528497    
 -0.965201020      0.965201020     -0.606999993       515.848816      -1.56528497    
  -1.13495600      0.758352995     -0.606999993       515.848816      -1.56528497    
  -1.56075203       1.04286098     -0.606999993       515.848816      -1.56528497    
  -1.32730997       1.32730997     -0.606999993       1525.75061      -1.56909692    
  -1.83825099       1.83825099     -0.517000020       1525.75061      -1.56909692    
  -1.44430494       2.16155505     -0.517000020       1525.75061      -1.56909692    
  -1.04286098       1.56075203     -0.606999993       1525.75061      -1.56909692    
  -1.04286098       1.56075203     -0.606999993       431.596100      -1.56514978    
 -0.758352995       1.13495600     -0.606999993       431.596100      -1.56514978    
 -0.965201020      0.965201020     -0.606999993       431.596100      -1.56514978    
  -1.32730997       1.32730997     -0.606999993       431.596100      -1.56514978    
  -1.04286098       1.56075203     -0.606999993       1138.01270      -1.56906021    
  -1.44430494       2.16155505     -0.517000020       1138.01270      -1.56906021    
 -0.994853973       2.40179110     -0.517000020       1138.01270      -1.56906021    
 -0.718334973       1.73421395     -0.606999993       1138.01270      -1.56906021    
 -0.718334973       1.73421395     -0.606999993       330.858948      -1.56498873    
 -0.522363007       1.26109600     -0.606999993       330.858948      -1.56498873    
 -0.758352995       1.13495600     -0.606999993       330.858948      -1.56498873    
  -1.04286098       1.56075203     -0.606999993       330.858948      -1.56498873    
 -0.718334973       1.73421395     -0.606999993       706.220398      -1.56901968    
 -0.994853973       2.40179110     -0.517000020       706.220398      -1.56901968    
 -0.507171988       2.54972792     -0.517000020       706.220398      -1.56901968    
 -0.366203994       1.84103203     -0.606999993       706.220398      -1.56901968    
 -0.366203994       1.84103203     -0.606999993       215.176514      -1.56493890    
 -0.266297996       1.33877206     -0.606999993       215.176514      -1.56493890    
 -0.522363007       1.26109600     -0.606999993       215.176514      -1.56493890    
 -0.718334973       1.73421395     -0.606999993       215.176514      -1.56493890    
 -0.366203994       1.84103203     -0.606999993       244.844376      -1.56893504    
 -0.507171988       2.54972792     -0.517000020       244.844376      -1.56893504    
   0.00000000       2.59967995     -0.517000020       244.844376      -1.56893504    
   0.00000000       1.87709999     -0.606999993       244.844376      -1.56893504    
   0.00000000       1.87709999     -0.606999993       86.7375031      -1.56527436    
   0.00000000       1.36500001     -0.606999993       86.7375031      -1.56527436    
 -0.266297996       1.33877206     -0.606999993       86.7375031      -1.56527436    
 -0.366203994       1.84103203     -0.606999993       86.7375031      -1.56527436    
   0.00000000       1.87709999     -0.606999993       228.907486       1.57245457    
   0.00000000       2.59967995     -0.517000020       228.907486       1.57245457    
  0.507171988       2.54972792     -0.517000020       228.907486       1.57245457    
  0.366203994       1.84103203     -0.606999993       228.907486       1.57245457    
  0.366203994       1.84103203     -0.606999993       50.2651405       1.57854915    
  0.266297996       1.33877206     -0.606999993       50.2651405       1.57854915    
   0.00000000       1.36500001     -0.606999993       50.2651405       1.57854915    
   0.00000000       1.87709999     -0.606999993       50.2651405       1.57854915    
  0.366203994       1.84103203     -0.606999993       695.542908       1.57250428    
  0.507171988       2.54972792     -0.517000020       695.542908       1.57250428    
  0.994853973       2.40179110     -0.517000020       695.542908       1.57250428    
  0.718334973       1.73421395     -0.606999993       695.542908       1.57250428    
  0.718334973       1.73421395     -0.606999993       189.172821       1.57731545    
  0.522363007       1.26109600     -0.606999993       189.172821       1.57731545    
  0.266297996       1.33877206     -0.606999993       189.172821       1.57731545    
  0.366203994       1.84103203     -0.606999993       189.172821       1.57731545    
  0.718334973       1.73421395     -0.606999993       1135.95850       1.57246125    
  0.994853973       2.40179110     -0.517000020       1135.95850       1.57246125    
   1.44430494       2.16155505     -0.517000020       1135.95850       1.57246125    
   1.04286098       1.56075203     -0.606999993       1135.95850       1.57246125    
   1.04286098       1.56075203     -0.606999993       321.925354       1.57670152    
  0.758352995       1.13495600     -0.606999993       321.925354       1.57670152    
  0.522363007       1.26109600     -0.606999993       321.925354       1.57670152    
  0.718334973       1.73421395     -0.606999993       321.925354       1.57670152    
   1.04286098       1.56075203     -0.606999993       1532.63049       1.57241797    
   1.44430494       2.16155505     -0.517000020       1532.63049       1.57241797    
   1.83825099       1.83825099     -0.517000020       1532.63049       1.57241797    
   1.32730997       1.32730997     -0.606999993       1532.63049       1.57241797    
   1.32730997       1.32730997     -0.606999993       440.468933       1.57635224    
  0.965201020      0.965201020     -0.606999993       440.468933       1.57635224    
  0.758352995       1.13495600     -0.606999993       440.468933       1.57635224    
   1.04286098       1.56075203     -0.606999993       440.468933       1.57635224    
   1.32730997       1.32730997     -0.606999993       1869.16260       1.57237685    
   1.83825099       1.83825099     -0.517000020       1869.16260       1.57237685    
   2.16155505       1.44430494     -0.517000020       1869.16260       1.57237685    
   1.56075203       1.04286098     -0.606999993       1869.16260       1.57237685    
   1.56075203       1.04286098     -0.606999993       537.344543       1.57611763    
   1.13495600      0.758352995     -0.606999993       537.344543       1.57611763    
  0.965201020      0.965201020     -0.606999993       537.344543       1.57611763    
   1.32730997       1.32730997     -0.606999993       537.344543       1.57611763    
   1.56075203       1.04286098     -0.606999993       2129.89062       1.57235014    
   2.16155505       1.44430494     -0.517000020       2129.89062       1.57235014    
   2.40179110      0.994853973     -0.517000020       2129.89062       1.57235014    
   1.73421395      0.718334973     -0.606999993       2129.89062       1.57235014    
   1.73421395      0.718334973     -0.606999993       608.128296       1.57599020    
   1.26109600      0.522363007     -0.606999993       608.128296       1.57599020    
   1.13495600      0.758352995     -0.606999993       608.128296       1.57599020    
   1.56075203       1.04286098     -0.606999993       608.128296       1.57599020    
   1.73421395      0.718334973     -0.606999993       2303.98145       1.57232296    
   2.40179110      0.994853973     -0.517000020       2303.98145       1.57232296    
   2.54972792      0.507171988     -0.517000020       2303.98145       1.57232296    
   1.84103203      0.366203994     -0.606999993       2303.98145       1.57232296    
   1.84103203      0.366203994     -0.606999993       651.193420       1.57591915    
   1.33877206      0.266297996     -0.606999993       651.193420       1.57591915    
   1.26109600      0.522363007     -0.606999993       651.193420       1.57591915    
   1.73421395      0.718334973     -0.606999993       651.193420       1.57591915    
   1.84103203      0.366203994     -0.606999993       2388.55322       1.57229483    
   2.54972792      0.507171988     -0.517000020       2388.55322       1.57229483    
   2.59967995       0.00000000     -0.517000020       2388.55322       1.57229483    
   1.87709999       0.00000000     -0.606999993       2388.55322       1.57229483    
   1.87709999       0.00000000     -0.606999993       667.314880       1.57588279    
   1.36500001       0.00000000     -0.606999993       667.314880       1.57588279    
   1.33877206      0.266297996     -0.606999993       667.314880       1.57588279    
   1.84103203      0.366203994     -0.606999993       667.314880       1.57588279    
   1.87709999       0.00000000     -0.606999993       2384.80493       1.57228136    
   2.59967995       0.00000000     -0.517000020       2384.80493       1.57228136    
   2.54972792     -0.507171988     -0.517000020       2384.80493       1.57228136    
   1.84103203     -0.366203994     -0.606999993       2384.80493       1.57228136    
   1.84103203     -0.366203994     -0.606999993       660.024231       1.57585597    
   1.33877206     -0.266297996     -0.606999993       660.024231       1.57585597    
   1.36500001       0.00000000     -0.606999993       660.024231       1.57585597    
   1.87709999       0.00000000     -0.606999993       660.024231       1.57585597    
   1.84103203     -0.366203994     -0.606999993       2293.54224       1.57228363    
   2.54972792     -0.507171988     -0.517000020       2293.54224       1.57228363    
   2.40179110     -0.994853973     -0.517000020       2293.54224       1.57228363    
   1.73421395     -0.718334973     -0.606999993       2293.54224       1.57228363    
   1.73421395     -0.718334973     -0.606999993       631.965820       1.57585549    
   1.26109600     -0.522363007     -0.606999993       631.965820       1.57585549    
   1.33877206     -0.266297996     -0.606999993       631.965820       1.57585549    
   1.84103203     -0.366203994     -0.606999993       631.965820       1.57585549    
   1.73421395     -0.718334973     -0.606999993       2115.50171       1.57230186    
   2.40179110     -0.994853973     -0.517000020       2115.50171       1.57230186    
   2.16155505      -1.44430494     -0.517000020       2115.50171       1.57230186    
   1.56075203      -1.04286098     -0.606999993       2115.50171       1.57230186    
   1.56075203      -1.04286098     -0.606999993       583.802246       1.57589698    
   1.13495600     -0.758352995     -0.606999993       583.802246       1.57589698    
   1.26109600     -0.522363007     -0.606999993       583.802246       1.57589698    