 VARIABLES="X" "Y" "Z" "abs(p) (Pa)" "angle(p) (rad)"
ZONE N=   2709,E =    2358, F=FEPOINT, ET=QUADRILATERAL
   0.00000000      -5.48999977     -0.157000005       4661.25537      -1.59874618    
   0.00000000      -4.76741982     -0.246999994       4661.25537      -1.59874618    
  0.930077016      -4.67581606     -0.246999994       4661.25537      -1.59874618    
   1.07104599      -5.38451099     -0.157000005       4661.25537      -1.59874618    
  -1.07104599      -5.38451099     -0.157000005       4664.92578      -1.59875619    
 -0.930077016      -4.67581606     -0.246999994       4664.92578      -1.59875619    
   0.00000000      -4.76741982     -0.246999994       4664.92578      -1.59875619    
   0.00000000      -5.48999977     -0.157000005       4664.92578      -1.59875619    
  -2.10093188      -5.07209921     -0.157000005       4541.04834      -1.59447408    
  -1.82441294      -4.40452194     -0.246999994       4541.04834      -1.59447408    
 -0.930077016      -4.67581606     -0.246999994       4541.04834      -1.59447408    
  -1.07104599      -5.38451099     -0.157000005       4541.04834      -1.59447408    
  -3.05008101      -4.56476784     -0.157000005       4138.50977      -1.59855640    
  -2.64863706      -3.96396494     -0.246999994       4138.50977      -1.59855640    
  -1.82441294      -4.40452194     -0.246999994       4138.50977      -1.59855640    
  -2.10093188      -5.07209921     -0.157000005       4138.50977      -1.59855640    
  -3.88201594      -3.88201594     -0.157000005       3621.76978      -1.59889376    
  -3.37107491      -3.37107491     -0.246999994       3621.76978      -1.59889376    
  -2.64863706      -3.96396494     -0.246999994       3621.76978      -1.59889376    
  -3.05008101      -4.56476784     -0.157000005       3621.76978      -1.59889376    
  -4.56476784      -3.05008101     -0.157000005       3005.28882      -1.59492695    
  -3.96396494      -2.64863706     -0.246999994       3005.28882      -1.59492695    
  -3.37107491      -3.37107491     -0.246999994       3005.28882      -1.59492695    
  -3.88201594      -3.88201594     -0.157000005       3005.28882      -1.59492695    
  -5.07209921      -2.10093188     -0.157000005       2206.83594      -1.59812117    
  -4.40452194      -1.82441294     -0.246999994       2206.83594      -1.59812117    
  -3.96396494      -2.64863706     -0.246999994       2206.83594      -1.59812117    
  -4.56476784      -3.05008101     -0.157000005       2206.83594      -1.59812117    
  -5.38451099      -1.07104599     -0.157000005       1357.33069      -1.59878433    
  -4.67581606     -0.930077016     -0.246999994       1357.33069      -1.59878433    
  -4.40452194      -1.82441294     -0.246999994       1357.33069      -1.59878433    
  -5.07209921      -2.10093188     -0.157000005       1357.33069      -1.59878433    
  -5.48999977       0.00000000     -0.157000005       460.891876      -1.59691870    
  -4.76741982       0.00000000     -0.246999994       460.891876      -1.59691870    
  -4.67581606     -0.930077016     -0.246999994       460.891876      -1.59691870    
  -5.38451099      -1.07104599     -0.157000005       460.891876      -1.59691870    
  -5.38451099       1.07104599     -0.157000005       470.733978       1.54930627    
  -4.67581606      0.930077016     -0.246999994       470.733978       1.54930627    
  -4.76741982       0.00000000     -0.246999994       470.733978       1.54930627    
  -5.48999977       0.00000000     -0.157000005       470.733978       1.54930627    
  -5.07209921       2.10093188     -0.157000005       1385.56006       1.54773629    
  -4.40452194       1.82441294     -0.246999994       1385.56006       1.54773629    
  -4.67581606      0.930077016     -0.246999994       1385.56006       1.54773629    
  -5.38451099       1.07104599     -0.157000005       1385.56006       1.54773629    
  -4.56476784       3.05008101     -0.157000005       2244.39062       1.54781532    
  -3.96396494       2.64863706     -0.246999994       2244.39062       1.54781532    
  -4.40452194       1.82441294     -0.246999994       2244.39062       1.54781532    
  -5.07209921       2.10093188     -0.157000005       2244.39062       1.54781532    
  -3.88201594       3.88201594     -0.157000005       2981.21313       1.54350364    
  -3.37107491       3.37107491     -0.246999994       2981.21313       1.54350364    
  -3.96396494       2.64863706     -0.246999994       2981.21313       1.54350364    
  -4.56476784       3.05008101     -0.157000005       2981.21313       1.54350364    
  -3.05008101       4.56476784     -0.157000005       3673.98950       1.54723823    
  -2.64863706       3.96396494     -0.246999994       3673.98950       1.54723823    
  -3.37107491       3.37107491     -0.246999994       3673.98950       1.54723823    
  -3.88201594       3.88201594     -0.157000005       3673.98950       1.54723823    
  -2.10093188       5.07209921     -0.157000005       4141.68604       1.54309261    
  -1.82441294       4.40452194     -0.246999994       4141.68604       1.54309261    
  -2.64863706       3.96396494     -0.246999994       4141.68604       1.54309261    
  -3.05008101       4.56476784     -0.157000005       4141.68604       1.54309261    
  -1.07104599       5.38451099     -0.157000005       4544.86328       1.54754543    
 -0.930077016       4.67581606     -0.246999994       4544.86328       1.54754543    
  -1.82441294       4.40452194     -0.246999994       4544.86328       1.54754543    
  -2.10093188       5.07209921     -0.157000005       4544.86328       1.54754543    
   0.00000000       5.48999977     -0.157000005       4674.68945       1.54316270    
   0.00000000       4.76741982     -0.246999994       4674.68945       1.54316270    
 -0.930077016       4.67581606     -0.246999994       4674.68945       1.54316270    
  -1.07104599       5.38451099     -0.157000005       4674.68945       1.54316270    
   1.07104599       5.38451099     -0.157000005       4724.50830       1.54703641    
  0.930077016       4.67581606     -0.246999994       4724.50830       1.54703641    
   0.00000000       4.76741982     -0.246999994       4724.50830       1.54703641    
   0.00000000       5.48999977     -0.157000005       4724.50830       1.54703641    
   2.10093188       5.07209921     -0.157000005       4490.04492       1.54346192    
   1.82441294       4.40452194     -0.246999994       4490.04492       1.54346192    
  0.930077016       4.67581606     -0.246999994       4490.04492       1.54346192    
   1.07104599       5.38451099     -0.157000005       4490.04492       1.54346192    
   3.05008101       4.56476784     -0.157000005       4135.38818       1.54298389    
   2.64863706       3.96396494     -0.246999994       4135.38818       1.54298389    
   1.82441294       4.40452194     -0.246999994       4135.38818       1.54298389    
   2.10093188       5.07209921     -0.157000005       4135.38818       1.54298389    
   3.88201594       3.88201594     -0.157000005       3668.04102       1.54683578    
   3.37107491       3.37107491     -0.246999994       3668.04102       1.54683578    
   2.64863706       3.96396494     -0.246999994       3668.04102       1.54683578    
   3.05008101       4.56476784     -0.157000005       3668.04102       1.54683578    
   4.56476784       3.05008101     -0.157000005       2990.40161       1.54494333    
   3.96396494       2.64863706     -0.246999994       2990.40161       1.54494333    
   3.37107491       3.37107491     -0.246999994       2990.40161       1.54494333    
   3.88201594       3.88201594     -0.157000005       2990.40161       1.54494333    
   5.07209921       2.10093188     -0.157000005       2231.61304       1.54768491    
   4.40452194       1.82441294     -0.246999994       2231.61304       1.54768491    
   3.96396494       2.64863706     -0.246999994       2231.61304       1.54768491    
   4.56476784       3.05008101     -0.157000005       2231.61304       1.54768491    
   5.38451099       1.07104599     -0.157000005       1359.80017       1.54215729    
   4.67581606      0.930077016     -0.246999994       1359.80017       1.54215729    
   4.40452194       1.82441294     -0.246999994       1359.80017       1.54215729    
   5.07209921       2.10093188     -0.157000005       1359.80017       1.54215729    
   5.48999977       0.00000000     -0.157000005       458.880920       1.54224479    
   4.76741982       0.00000000     -0.246999994       458.880920       1.54224479    
   4.67581606      0.930077016     -0.246999994       458.880920       1.54224479    
   5.38451099       1.07104599     -0.157000005       458.880920       1.54224479    
   5.38451099      -1.07104599     -0.157000005       461.818390      -1.60091507    
   4.67581606     -0.930077016     -0.246999994       461.818390      -1.60091507    
   4.76741982       0.00000000     -0.246999994       461.818390      -1.60091507    
   5.48999977       0.00000000     -0.157000005       461.818390      -1.60091507    
   5.07209921      -2.10093188     -0.157000005       1362.38855      -1.59831715    
   4.40452194      -1.82441294     -0.246999994       1362.38855      -1.59831715    
   4.67581606     -0.930077016     -0.246999994       1362.38855      -1.59831715    
   5.38451099      -1.07104599     -0.157000005       1362.38855      -1.59831715    
   4.56476784      -3.05008101     -0.157000005       2209.03174      -1.59853601    
   3.96396494      -2.64863706     -0.246999994       2209.03174      -1.59853601    
   4.40452194      -1.82441294     -0.246999994       2209.03174      -1.59853601    
   5.07209921      -2.10093188     -0.157000005       2209.03174      -1.59853601    
   3.88201594      -3.88201594     -0.157000005       2976.37280      -1.59894526    
   3.37107491      -3.37107491     -0.246999994       2976.37280      -1.59894526    
   3.96396494      -2.64863706     -0.246999994       2976.37280      -1.59894526    
   4.56476784      -3.05008101     -0.157000005       2976.37280      -1.59894526    
   3.05008101      -4.56476784     -0.157000005       3673.21118      -1.59436297    
   2.64863706      -3.96396494     -0.246999994       3673.21118      -1.59436297    
   3.37107491      -3.37107491     -0.246999994       3673.21118      -1.59436297    
   3.88201594      -3.88201594     -0.157000005       3673.21118      -1.59436297    
   2.10093188      -5.07209921     -0.157000005       4138.49609      -1.59846354    
   1.82441294      -4.40452194     -0.246999994       4138.49609      -1.59846354    
   2.64863706      -3.96396494     -0.246999994       4138.49609      -1.59846354    
   3.05008101      -4.56476784     -0.157000005       4138.49609      -1.59846354    
   1.07104599      -5.38451099     -0.157000005       4482.03467      -1.59877837    
  0.930077016      -4.67581606     -0.246999994       4482.03467      -1.59877837    
   1.82441294      -4.40452194     -0.246999994       4482.03467      -1.59877837    
   2.10093188      -5.07209921     -0.157000005       4482.03467      -1.59877837    
   0.00000000      -1.87709999     -0.606999993       2784.83862      -1.57267082    
   0.00000000      -1.36500001     -0.606999993       2784.83862      -1.57267082    
  0.266297996      -1.33877206     -0.606999993       2784.83862      -1.57267082    
  0.366203994      -1.84103203     -0.606999993       2784.83862      -1.57267082    
   0.00000000      -1.87709999     -0.606999993       1660.80298      -1.57270229    
   0.00000000      -2.59967995     -0.517000020       1660.80298      -1.57270229    
 -0.507171988      -2.54972792     -0.517000020       1660.80298      -1.57270229    
 -0.366203994      -1.84103203     -0.606999993       1660.80298      -1.57270229    
 -0.366203994      -1.84103203     -0.606999993       2784.60156      -1.57266867    
 -0.266297996      -1.33877206     -0.606999993       2784.60156      -1.57266867    
   0.00000000      -1.36500001     -0.606999993       2784.60156      -1.57266867    
   0.00000000      -1.87709999     -0.606999993       2784.60156      -1.57266867    
 -0.366203994      -1.84103203     -0.606999993       1593.42334      -1.57269919    
 -0.507171988      -2.54972792     -0.517000020       1593.42334      -1.57269919    
 -0.994853973      -2.40179110     -0.517000020       1593.42334      -1.57269919    
 -0.718334973      -1.73421395     -0.606999993       1593.42334      -1.57269919    
 -0.718334973      -1.73421395     -0.606999993       2676.14355      -1.57267880    
 -0.522363007      -1.26109600     -0.606999993       2676.14355      -1.57267880    
 -0.266297996      -1.33877206     -0.606999993       2676.14355      -1.57267880    
 -0.366203994      -1.84103203     -0.606999993       2676.14355      -1.57267880    
 -0.718334973      -1.73421395     -0.606999993       1466.29956      -1.57272053    
 -0.994853973      -2.40179110     -0.517000020       1466.29956      -1.57272053    
  -1.44430494      -2.16155505     -0.517000020       1466.29956      -1.57272053    
  -1.04286098      -1.56075203     -0.606999993       1466.29956      -1.57272053    
  -1.04286098      -1.56075203     -0.606999993       2465.36353      -1.57267940    
 -0.758352995      -1.13495600     -0.606999993       2465.36353      -1.57267940    
 -0.522363007      -1.26109600     -0.606999993       2465.36353      -1.57267940    
 -0.718334973      -1.73421395     -0.606999993       2465.36353      -1.57267940    
  -1.04286098      -1.56075203     -0.606999993       1286.76196      -1.57271826    
  -1.44430494      -2.16155505     -0.517000020       1286.76196      -1.57271826    
  -1.83825099      -1.83825099     -0.517000020       1286.76196      -1.57271826    
  -1.32730997      -1.32730997     -0.606999993       1286.76196      -1.57271826    
  -1.32730997      -1.32730997     -0.606999993       2161.13525      -1.57268214    
 -0.965201020     -0.965201020     -0.606999993       2161.13525      -1.57268214    
 -0.758352995      -1.13495600     -0.606999993       2161.13525      -1.57268214    
  -1.04286098      -1.56075203     -0.606999993       2161.13525      -1.57268214    
  -1.32730997      -1.32730997     -0.606999993       1059.05200      -1.57265472    
  -1.83825099      -1.83825099     -0.517000020       1059.05200      -1.57265472    
  -2.16155505      -1.44430494     -0.517000020       1059.05200      -1.57265472    
  -1.56075203      -1.04286098     -0.606999993       1059.05200      -1.57265472    
  -1.56075203      -1.04286098     -0.606999993       1774.18335      -1.57266319    
  -1.13495600     -0.758352995     -0.606999993       1774.18335      -1.57266319    
 -0.965201020     -0.965201020     -0.606999993       1774.18335      -1.57266319    
  -1.32730997      -1.32730997     -0.606999993       1774.18335      -1.57266319    
  -1.56075203      -1.04286098     -0.606999993       787.879028      -1.57257414    
  -2.16155505      -1.44430494     -0.517000020       787.879028      -1.57257414    
  -2.40179110     -0.994853973     -0.517000020       787.879028      -1.57257414    
  -1.73421395     -0.718334973     -0.606999993       787.879028      -1.57257414    
  -1.73421395     -0.718334973     -0.606999993       1317.72803      -1.57264018    
  -1.26109600     -0.522363007     -0.606999993       1317.72803      -1.57264018    
  -1.13495600     -0.758352995     -0.606999993       1317.72803      -1.57264018    
  -1.56075203      -1.04286098     -0.606999993       1317.72803      -1.57264018    
  -1.73421395     -0.718334973     -0.606999993       483.886749      -1.57240844    
  -2.40179110     -0.994853973     -0.517000020       483.886749      -1.57240844    
  -2.54972792     -0.507171988     -0.517000020       483.886749      -1.57240844    
  -1.84103203     -0.366203994     -0.606999993       483.886749      -1.57240844    
  -1.84103203     -0.366203994     -0.606999993       809.322510      -1.57260692    
  -1.33877206     -0.266297996     -0.606999993       809.322510      -1.57260692    
  -1.26109600     -0.522363007     -0.606999993       809.322510      -1.57260692    
  -1.73421395     -0.718334973     -0.606999993       809.322510      -1.57260692    
  -1.84103203     -0.366203994     -0.606999993       162.010086      -1.57203984    
  -2.54972792     -0.507171988     -0.517000020       162.010086      -1.57203984    
  -2.59967995       0.00000000     -0.517000020       162.010086      -1.57203984    
  -1.87709999       0.00000000     -0.606999993       162.010086      -1.57203984    
  -1.87709999       0.00000000     -0.606999993       269.570740      -1.57259214    
  -1.36500001       0.00000000     -0.606999993       269.570740      -1.57259214    
  -1.33877206     -0.266297996     -0.606999993       269.570740      -1.57259214    
  -1.84103203     -0.366203994     -0.606999993       269.570740      -1.57259214    
  -1.87709999       0.00000000     -0.606999993       164.478012       1.56868219    
  -2.59967995       0.00000000     -0.517000020       164.478012       1.56868219    
  -2.54972792      0.507171988     -0.517000020       164.478012       1.56868219    
  -1.84103203      0.366203994     -0.606999993       164.478012       1.56868219    
  -1.84103203      0.366203994     -0.606999993       280.139282       1.56902707    
  -1.33877206      0.266297996     -0.606999993       280.139282       1.56902707    
  -1.36500001       0.00000000     -0.606999993       280.139282       1.56902707    
  -1.87709999       0.00000000     -0.606999993       280.139282       1.56902707    
  -1.84103203      0.366203994     -0.606999993       485.651093       1.56887352    
  -2.54972792      0.507171988     -0.517000020       485.651093       1.56887352    
  -2.40179110      0.994853973     -0.517000020       485.651093       1.56887352    
  -1.73421395      0.718334973     -0.606999993       485.651093       1.56887352    
  -1.73421395      0.718334973     -0.606999993       819.096802       1.56903827    
  -1.26109600      0.522363007     -0.606999993       819.096802       1.56903827    
  -1.33877206      0.266297996     -0.606999993       819.096802       1.56903827    
  -1.84103203      0.366203994     -0.606999993       819.096802       1.56903827    
  -1.73421395      0.718334973     -0.606999993       789.407471       1.56882083    
  -2.40179110      0.994853973     -0.517000020       789.407471       1.56882083    
  -2.16155505       1.44430494     -0.517000020       789.407471       1.56882083    
  -1.56075203       1.04286098     -0.606999993       789.407471       1.56882083    
  -1.56075203       1.04286098     -0.606999993       1326.52087       1.56901860    
  -1.13495600      0.758352995     -0.606999993       1326.52087       1.56901860    
  -1.26109600      0.522363007     -0.606999993       1326.52087       1.56901860    
  -1.73421395      0.718334973     -0.606999993       1326.52087       1.56901860    
  -1.56075203       1.04286098     -0.606999993       1060.93018       1.56878924    
  -2.16155505       1.44430494     -0.517000020       1060.93018       1.56878924    
  -1.83825099       1.83825099     -0.517000020       1060.93018       1.56878924    
  -1.32730997       1.32730997     -0.606999993       1060.93018       1.56878924    
  -1.32730997       1.32730997     -0.606999993       1781.95569       1.56900573    
 -0.965201020      0.965201020     -0.606999993       1781.95569       1.56900573    
  -1.13495600      0.758352995     -0.606999993       1781.95569       1.56900573    
  -1.56075203       1.04286098     -0.606999993       1781.95569       1.56900573    
  -1.32730997       1.32730997     -0.606999993       1289.00317       1.56883061    
  -1.83825099       1.83825099     -0.517000020       1289.00317       1.56883061    
  -1.44430494       2.16155505     -0.517000020       1289.00317       1.56883061    
  -1.04286098       1.56075203     -0.606999993       1289.00317       1.56883061    
  -1.04286098       1.56075203     -0.606999993       2167.81299       1.56902063    
 -0.758352995       1.13495600     -0.606999993       2167.81299       1.56902063    
 -0.965201020      0.965201020     -0.606999993       2167.81299       1.56902063    
  -1.32730997       1.32730997     -0.606999993       2167.81299       1.56902063    
  -1.04286098       1.56075203     -0.606999993       1468.31750       1.56890762    
  -1.44430494       2.16155505     -0.517000020       1468.31750       1.56890762    
 -0.994853973       2.40179110     -0.517000020       1468.31750       1.56890762    
 -0.718334973       1.73421395     -0.606999993       1468.31750       1.56890762    
 -0.718334973       1.73421395     -0.606999993       2470.83374       1.56903982    
 -0.522363007       1.26109600     -0.606999993       2470.83374       1.56903982    
 -0.758352995       1.13495600     -0.606999993       2470.83374       1.56903982    
  -1.04286098       1.56075203     -0.606999993       2470.83374       1.56903982    
 -0.718334973       1.73421395     -0.606999993       1595.08398       1.56897008    
 -0.994853973       2.40179110     -0.517000020       1595.08398       1.56897008    
 -0.507171988       2.54972792     -0.517000020       1595.08398       1.56897008    
 -0.366203994       1.84103203     -0.606999993       1595.08398       1.56897008    
 -0.366203994       1.84103203     -0.606999993       2680.52271       1.56906712    
 -0.266297996       1.33877206     -0.606999993       2680.52271       1.56906712    
 -0.522363007       1.26109600     -0.606999993       2680.52271       1.56906712    
 -0.718334973       1.73421395     -0.606999993       2680.52271       1.56906712    
 -0.366203994       1.84103203     -0.606999993       1662.21179       1.56900537    
 -0.507171988       2.54972792     -0.517000020       1662.21179       1.56900537    
   0.00000000       2.59967995     -0.517000020       1662.21179       1.56900537    
   0.00000000       1.87709999     -0.606999993       1662.21179       1.56900537    
   0.00000000       1.87709999     -0.606999993       2787.81226       1.56910253    
   0.00000000       1.36500001     -0.606999993       2787.81226       1.56910253    
 -0.266297996       1.33877206     -0.606999993       2787.81226       1.56910253    
 -0.366203994       1.84103203     -0.606999993       2787.81226       1.56910253    
   0.00000000       1.87709999     -0.606999993       1662.00781       1.56900644    
   0.00000000       2.59967995     -0.517000020       1662.00781       1.56900644    
  0.507171988       2.54972792     -0.517000020       1662.00781       1.56900644    
  0.366203994       1.84103203     -0.606999993       1662.00781       1.56900644    
  0.366203994       1.84103203     -0.606999993       2786.87915       1.56911385    
  0.266297996       1.33877206     -0.606999993       2786.87915       1.56911385    
   0.00000000       1.36500001     -0.606999993       2786.87915       1.56911385    
   0.00000000       1.87709999     -0.606999993       2786.87915       1.56911385    
  0.366203994       1.84103203     -0.606999993       1594.55005       1.56901181    
  0.507171988       2.54972792     -0.517000020       1594.55005       1.56901181    
  0.994853973       2.40179110     -0.517000020       1594.55005       1.56901181    
  0.718334973       1.73421395     -0.606999993       1594.55005       1.56901181    
  0.718334973       1.73421395     -0.606999993       2677.68433       1.56912160    
  0.522363007       1.26109600     -0.606999993       2677.68433       1.56912160    
  0.266297996       1.33877206     -0.606999993       2677.68433       1.56912160    
  0.366203994       1.84103203     -0.606999993       2677.68433       1.56912160    
  0.718334973       1.73421395     -0.606999993       1467.56140       1.56900966    
  0.994853973       2.40179110     -0.517000020       1467.56140       1.56900966    
   1.44430494       2.16155505     -0.517000020       1467.56140       1.56900966    
   1.04286098       1.56075203     -0.606999993       1467.56140       1.56900966    
   1.04286098       1.56075203     -0.606999993       2466.50317       1.56913376    
  0.758352995       1.13495600     -0.606999993       2466.50317       1.56913376    
  0.522363007       1.26109600     -0.606999993       2466.50317       1.56913376    
  0.718334973       1.73421395     -0.606999993       2466.50317       1.56913376    
   1.04286098       1.56075203     -0.606999993       1288.19714       1.56903934    
   1.44430494       2.16155505     -0.517000020       1288.19714       1.56903934    
   1.83825099       1.83825099     -0.517000020       1288.19714       1.56903934    
   1.32730997       1.32730997     -0.606999993       1288.19714       1.56903934    
   1.32730997       1.32730997     -0.606999993       2162.27979       1.56915772    
  0.965201020      0.965201020     -0.606999993       2162.27979       1.56915772    
  0.758352995       1.13495600     -0.606999993       2162.27979       1.56915772    
   1.04286098       1.56075203     -0.606999993       2162.27979       1.56915772    
   1.32730997       1.32730997     -0.606999993       1060.05566       1.56910443    
   1.83825099       1.83825099     -0.517000020       1060.05566       1.56910443    
   2.16155505       1.44430494     -0.517000020       1060.05566       1.56910443    
   1.56075203       1.04286098     -0.606999993       1060.05566       1.56910443    
   1.56075203       1.04286098     -0.606999993       1775.43188       1.56919551    
   1.13495600      0.758352995     -0.606999993       1775.43188       1.56919551    
  0.965201020      0.965201020     -0.606999993       1775.43188       1.56919551    
   1.32730997       1.32730997     -0.606999993       1775.43188       1.56919551    
   1.56075203       1.04286098     -0.606999993       788.302917       1.56920874    
   2.16155505       1.44430494     -0.517000020       788.302917       1.56920874    
   2.40179110      0.994853973     -0.517000020       788.302917       1.56920874    
   1.73421395      0.718334973     -0.606999993       788.302917       1.56920874    
   1.73421395      0.718334973     -0.606999993       1318.64124       1.56926870    
   1.26109600      0.522363007     -0.606999993       1318.64124       1.56926870    
   1.13495600      0.758352995     -0.606999993       1318.64124       1.56926870    
   1.56075203       1.04286098     -0.606999993       1318.64124       1.56926870    
   1.73421395      0.718334973     -0.606999993       484.098389       1.56921959    
   2.40179110      0.994853973     -0.517000020       484.098389       1.56921959    
   2.54972792      0.507171988     -0.517000020       484.098389       1.56921959    
   1.84103203      0.366203994     -0.606999993       484.098389       1.56921959    
   1.84103203      0.366203994     -0.606999993       809.767700       1.56935155    
   1.33877206      0.266297996     -0.606999993       809.767700       1.56935155    
   1.26109600      0.522363007     -0.606999993       809.767700       1.56935155    
   1.73421395      0.718334973     -0.606999993       809.767700       1.56935155    
   1.84103203      0.366203994     -0.606999993       162.763718       1.56899309    
   2.54972792      0.507171988     -0.517000020       162.763718       1.56899309    
   2.59967995       0.00000000     -0.517000020       162.763718       1.56899309    
   1.87709999       0.00000000     -0.606999993       162.763718       1.56899309    
   1.87709999       0.00000000     -0.606999993       270.072327       1.56965184    
   1.36500001       0.00000000     -0.606999993       270.072327       1.56965184    
   1.33877206      0.266297996     -0.606999993       270.072327       1.56965184    
   1.84103203      0.366203994     -0.606999993       270.072327       1.56965184    
   1.87709999       0.00000000     -0.606999993       163.792847      -1.57179379    
   2.59967995       0.00000000     -0.517000020       163.792847      -1.57179379    
   2.54972792     -0.507171988     -0.517000020       163.792847      -1.57179379    
   1.84103203     -0.366203994     -0.606999993       163.792847      -1.57179379    
   1.84103203     -0.366203994     -0.606999993       279.524506      -1.57284558    
   1.33877206     -0.266297996     -0.606999993       279.524506      -1.57284558    
   1.36500001       0.00000000     -0.606999993       279.524506      -1.57284558    
   1.87709999       0.00000000     -0.606999993       279.524506      -1.57284558    
   1.84103203     -0.366203994     -0.606999993       485.297699      -1.57223523    
   2.54972792     -0.507171988     -0.517000020       485.297699      -1.57223523    
   2.40179110     -0.994853973     -0.517000020       485.297699      -1.57223523    
   1.73421395     -0.718334973     -0.606999993       485.297699      -1.57223523    
   1.73421395     -0.718334973     -0.606999993       818.261536      -1.57261860    
   1.26109600     -0.522363007     -0.606999993       818.261536      -1.57261860    
   1.33877206     -0.266297996     -0.606999993       818.261536      -1.57261860    
   1.84103203     -0.366203994     -0.606999993       818.261536      -1.57261860    
   1.73421395     -0.718334973     -0.606999993       788.567505      -1.57248795    
   2.40179110     -0.994853973     -0.517000020       788.567505      -1.57248795    
   2.16155505      -1.44430494     -0.517000020       788.567505      -1.57248795    
   1.56075203      -1.04286098     -0.606999993       788.567505      -1.57248795    
   1.56075203      -1.04286098     -0.606999993       1325.03857      -1.57261658    
   1.13495600     -0.758352995     -0.606999993       1325.03857      -1.57261658    
   1.26109600     -0.522363007     -0.606999993       1325.03857      -1.57261658    