 VARIABLES="X" "Y" "Z" "abs(p) (Pa)" "angle(p) (rad)"
ZONE N=   2709,E =    2358, F=FEPOINT, ET=QUADRILATERAL
   0.00000000      -5.48999977     -0.157000005       326.155121      -1.51251042    
   0.00000000      -4.76741982     -0.246999994       326.155121      -1.51251042    
  0.930077016      -4.67581606     -0.246999994       326.155121      -1.51251042    
   1.07104599      -5.38451099     -0.157000005       326.155121      -1.51251042    
  -1.07104599      -5.38451099     -0.157000005       340.549438       1.63486123    
 -0.930077016      -4.67581606     -0.246999994       340.549438       1.63486123    
   0.00000000      -4.76741982     -0.246999994       340.549438       1.63486123    
   0.00000000      -5.48999977     -0.157000005       340.549438       1.63486123    
  -2.10093188      -5.07209921     -0.157000005       1000.22736       1.63243008    
  -1.82441294      -4.40452194     -0.246999994       1000.22736       1.63243008    
 -0.930077016      -4.67581606     -0.246999994       1000.22736       1.63243008    
  -1.07104599      -5.38451099     -0.157000005       1000.22736       1.63243008    
  -3.05008101      -4.56476784     -0.157000005       1607.52185       1.63258338    
  -2.64863706      -3.96396494     -0.246999994       1607.52185       1.63258338    
  -1.82441294      -4.40452194     -0.246999994       1607.52185       1.63258338    
  -2.10093188      -5.07209921     -0.157000005       1607.52185       1.63258338    
  -3.88201594      -3.88201594     -0.157000005       2162.26343       1.63231397    
  -3.37107491      -3.37107491     -0.246999994       2162.26343       1.63231397    
  -2.64863706      -3.96396494     -0.246999994       2162.26343       1.63231397    
  -3.05008101      -4.56476784     -0.157000005       2162.26343       1.63231397    
  -4.56476784      -3.05008101     -0.157000005       2653.32520       1.63156998    
  -3.96396494      -2.64863706     -0.246999994       2653.32520       1.63156998    
  -3.37107491      -3.37107491     -0.246999994       2653.32520       1.63156998    
  -3.88201594      -3.88201594     -0.157000005       2653.32520       1.63156998    
  -5.07209921      -2.10093188     -0.157000005       3003.02466       1.63215446    
  -4.40452194      -1.82441294     -0.246999994       3003.02466       1.63215446    
  -3.96396494      -2.64863706     -0.246999994       3003.02466       1.63215446    
  -4.56476784      -3.05008101     -0.157000005       3003.02466       1.63215446    
  -5.38451099      -1.07104599     -0.157000005       3255.22876       1.63218641    
  -4.67581606     -0.930077016     -0.246999994       3255.22876       1.63218641    
  -4.40452194      -1.82441294     -0.246999994       3255.22876       1.63218641    
  -5.07209921      -2.10093188     -0.157000005       3255.22876       1.63218641    
  -5.48999977       0.00000000     -0.157000005       3408.91919       1.63155735    
  -4.76741982       0.00000000     -0.246999994       3408.91919       1.63155735    
  -4.67581606     -0.930077016     -0.246999994       3408.91919       1.63155735    
  -5.38451099      -1.07104599     -0.157000005       3408.91919       1.63155735    
  -5.38451099       1.07104599     -0.157000005       3411.92822       1.63144922    
  -4.67581606      0.930077016     -0.246999994       3411.92822       1.63144922    
  -4.76741982       0.00000000     -0.246999994       3411.92822       1.63144922    
  -5.48999977       0.00000000     -0.157000005       3411.92822       1.63144922    
  -5.07209921       2.10093188     -0.157000005       3280.03271       1.63144648    
  -4.40452194       1.82441294     -0.246999994       3280.03271       1.63144648    
  -4.67581606      0.930077016     -0.246999994       3280.03271       1.63144648    
  -5.38451099       1.07104599     -0.157000005       3280.03271       1.63144648    
  -4.56476784       3.05008101     -0.157000005       3018.93384       1.63151169    
  -3.96396494       2.64863706     -0.246999994       3018.93384       1.63151169    
  -4.40452194       1.82441294     -0.246999994       3018.93384       1.63151169    
  -5.07209921       2.10093188     -0.157000005       3018.93384       1.63151169    
  -3.88201594       3.88201594     -0.157000005       2626.73682       1.63207495    
  -3.37107491       3.37107491     -0.246999994       2626.73682       1.63207495    
  -3.96396494       2.64863706     -0.246999994       2626.73682       1.63207495    
  -4.56476784       3.05008101     -0.157000005       2626.73682       1.63207495    
  -3.05008101       4.56476784     -0.157000005       2165.22217       1.63166881    
  -2.64863706       3.96396494     -0.246999994       2165.22217       1.63166881    
  -3.37107491       3.37107491     -0.246999994       2165.22217       1.63166881    
  -3.88201594       3.88201594     -0.157000005       2165.22217       1.63166881    
  -2.10093188       5.07209921     -0.157000005       1599.15662       1.63216913    
  -1.82441294       4.40452194     -0.246999994       1599.15662       1.63216913    
  -2.64863706       3.96396494     -0.246999994       1599.15662       1.63216913    
  -3.05008101       4.56476784     -0.157000005       1599.15662       1.63216913    
  -1.07104599       5.38451099     -0.157000005       987.931030       1.63192439    
 -0.930077016       4.67581606     -0.246999994       987.931030       1.63192439    
  -1.82441294       4.40452194     -0.246999994       987.931030       1.63192439    
  -2.10093188       5.07209921     -0.157000005       987.931030       1.63192439    
   0.00000000       5.48999977     -0.157000005       328.653717       1.63313031    
   0.00000000       4.76741982     -0.246999994       328.653717       1.63313031    
 -0.930077016       4.67581606     -0.246999994       328.653717       1.63313031    
  -1.07104599       5.38451099     -0.157000005       328.653717       1.63313031    
   1.07104599       5.38451099     -0.157000005       341.814789      -1.51146269    
  0.930077016       4.67581606     -0.246999994       341.814789      -1.51146269    
   0.00000000       4.76741982     -0.246999994       341.814789      -1.51146269    
   0.00000000       5.48999977     -0.157000005       341.814789      -1.51146269    
   2.10093188       5.07209921     -0.157000005       992.504028      -1.51002932    
   1.82441294       4.40452194     -0.246999994       992.504028      -1.51002932    
  0.930077016       4.67581606     -0.246999994       992.504028      -1.51002932    
   1.07104599       5.38451099     -0.157000005       992.504028      -1.51002932    
   3.05008101       4.56476784     -0.157000005       1608.91089      -1.50999284    
   2.64863706       3.96396494     -0.246999994       1608.91089      -1.50999284    
   1.82441294       4.40452194     -0.246999994       1608.91089      -1.50999284    
   2.10093188       5.07209921     -0.157000005       1608.91089      -1.50999284    
   3.88201594       3.88201594     -0.157000005       2179.74976      -1.51059318    
   3.37107491       3.37107491     -0.246999994       2179.74976      -1.51059318    
   2.64863706       3.96396494     -0.246999994       2179.74976      -1.51059318    
   3.05008101       4.56476784     -0.157000005       2179.74976      -1.51059318    
   4.56476784       3.05008101     -0.157000005       2651.45801      -1.51047385    
   3.96396494       2.64863706     -0.246999994       2651.45801      -1.51047385    
   3.37107491       3.37107491     -0.246999994       2651.45801      -1.51047385    
   3.88201594       3.88201594     -0.157000005       2651.45801      -1.51047385    
   5.07209921       2.10093188     -0.157000005       3027.07007      -1.51054645    
   4.40452194       1.82441294     -0.246999994       3027.07007      -1.51054645    
   3.96396494       2.64863706     -0.246999994       3027.07007      -1.51054645    
   4.56476784       3.05008101     -0.157000005       3027.07007      -1.51054645    
   5.38451099       1.07104599     -0.157000005       3254.79321      -1.50982821    
   4.67581606      0.930077016     -0.246999994       3254.79321      -1.50982821    
   4.40452194       1.82441294     -0.246999994       3254.79321      -1.50982821    
   5.07209921       2.10093188     -0.157000005       3254.79321      -1.50982821    
   5.48999977       0.00000000     -0.157000005       3376.86011      -1.50968874    
   4.76741982       0.00000000     -0.246999994       3376.86011      -1.50968874    
   4.67581606      0.930077016     -0.246999994       3376.86011      -1.50968874    
   5.38451099       1.07104599     -0.157000005       3376.86011      -1.50968874    
   5.38451099      -1.07104599     -0.157000005       3373.75586      -1.50967216    
   4.67581606     -0.930077016     -0.246999994       3373.75586      -1.50967216    
   4.76741982       0.00000000     -0.246999994       3373.75586      -1.50967216    
   5.48999977       0.00000000     -0.157000005       3373.75586      -1.50967216    
   5.07209921      -2.10093188     -0.157000005       3242.11938      -1.50968587    
   4.40452194      -1.82441294     -0.246999994       3242.11938      -1.50968587    
   4.67581606     -0.930077016     -0.246999994       3242.11938      -1.50968587    
   5.38451099      -1.07104599     -0.157000005       3242.11938      -1.50968587    
   4.56476784      -3.05008101     -0.157000005       2985.93652      -1.50972962    
   3.96396494      -2.64863706     -0.246999994       2985.93652      -1.50972962    
   4.40452194      -1.82441294     -0.246999994       2985.93652      -1.50972962    
   5.07209921      -2.10093188     -0.157000005       2985.93652      -1.50972962    
   3.88201594      -3.88201594     -0.157000005       2616.98950      -1.50985003    
   3.37107491      -3.37107491     -0.246999994       2616.98950      -1.50985003    
   3.96396494      -2.64863706     -0.246999994       2616.98950      -1.50985003    
   4.56476784      -3.05008101     -0.157000005       2616.98950      -1.50985003    
   3.05008101      -4.56476784     -0.157000005       2160.18164      -1.51048970    
   2.64863706      -3.96396494     -0.246999994       2160.18164      -1.51048970    
   3.37107491      -3.37107491     -0.246999994       2160.18164      -1.51048970    
   3.88201594      -3.88201594     -0.157000005       2160.18164      -1.51048970    
   2.10093188      -5.07209921     -0.157000005       1594.85339      -1.51019299    
   1.82441294      -4.40452194     -0.246999994       1594.85339      -1.51019299    
   2.64863706      -3.96396494     -0.246999994       1594.85339      -1.51019299    
   3.05008101      -4.56476784     -0.157000005       1594.85339      -1.51019299    
   1.07104599      -5.38451099     -0.157000005       978.845642      -1.51047277    
  0.930077016      -4.67581606     -0.246999994       978.845642      -1.51047277    
   1.82441294      -4.40452194     -0.246999994       978.845642      -1.51047277    
   2.10093188      -5.07209921     -0.157000005       978.845642      -1.51047277    
   0.00000000      -1.87709999     -0.606999993       188.810623      -1.54667675    
   0.00000000      -1.36500001     -0.606999993       188.810623      -1.54667675    
  0.266297996      -1.33877206     -0.606999993       188.810623      -1.54667675    
  0.366203994      -1.84103203     -0.606999993       188.810623      -1.54667675    
   0.00000000      -1.87709999     -0.606999993       264.250122       1.60650444    
   0.00000000      -2.59967995     -0.517000020       264.250122       1.60650444    
 -0.507171988      -2.54972792     -0.517000020       264.250122       1.60650444    
 -0.366203994      -1.84103203     -0.606999993       264.250122       1.60650444    
 -0.366203994      -1.84103203     -0.606999993       178.593353       1.60251808    
 -0.266297996      -1.33877206     -0.606999993       178.593353       1.60251808    
   0.00000000      -1.36500001     -0.606999993       178.593353       1.60251808    
   0.00000000      -1.87709999     -0.606999993       178.593353       1.60251808    
 -0.366203994      -1.84103203     -0.606999993       780.421753       1.60420465    
 -0.507171988      -2.54972792     -0.517000020       780.421753       1.60420465    
 -0.994853973      -2.40179110     -0.517000020       780.421753       1.60420465    
 -0.718334973      -1.73421395     -0.606999993       780.421753       1.60420465    
 -0.718334973      -1.73421395     -0.606999993       538.770752       1.59968555    
 -0.522363007      -1.26109600     -0.606999993       538.770752       1.59968555    
 -0.266297996      -1.33877206     -0.606999993       538.770752       1.59968555    
 -0.366203994      -1.84103203     -0.606999993       538.770752       1.59968555    
 -0.718334973      -1.73421395     -0.606999993       1263.47937       1.60338962    
 -0.994853973      -2.40179110     -0.517000020       1263.47937       1.60338962    
  -1.44430494      -2.16155505     -0.517000020       1263.47937       1.60338962    
  -1.04286098      -1.56075203     -0.606999993       1263.47937       1.60338962    
  -1.04286098      -1.56075203     -0.606999993       878.178040       1.59882462    
 -0.758352995      -1.13495600     -0.606999993       878.178040       1.59882462    
 -0.522363007      -1.26109600     -0.606999993       878.178040       1.59882462    
 -0.718334973      -1.73421395     -0.606999993       878.178040       1.59882462    
  -1.04286098      -1.56075203     -0.606999993       1700.34155       1.60285044    
  -1.44430494      -2.16155505     -0.517000020       1700.34155       1.60285044    
  -1.83825099      -1.83825099     -0.517000020       1700.34155       1.60285044    
  -1.32730997      -1.32730997     -0.606999993       1700.34155       1.60285044    
  -1.32730997      -1.32730997     -0.606999993       1185.77893       1.59828293    
 -0.965201020     -0.965201020     -0.606999993       1185.77893       1.59828293    
 -0.758352995      -1.13495600     -0.606999993       1185.77893       1.59828293    
  -1.04286098      -1.56075203     -0.606999993       1185.77893       1.59828293    
  -1.32730997      -1.32730997     -0.606999993       2078.24048       1.60253763    
  -1.83825099      -1.83825099     -0.517000020       2078.24048       1.60253763    
  -2.16155505      -1.44430494     -0.517000020       2078.24048       1.60253763    
  -1.56075203      -1.04286098     -0.606999993       2078.24048       1.60253763    
  -1.56075203      -1.04286098     -0.606999993       1450.76099       1.59795988    
  -1.13495600     -0.758352995     -0.606999993       1450.76099       1.59795988    
 -0.965201020     -0.965201020     -0.606999993       1450.76099       1.59795988    
  -1.32730997      -1.32730997     -0.606999993       1450.76099       1.59795988    
  -1.56075203      -1.04286098     -0.606999993       2378.38086       1.60245514    
  -2.16155505      -1.44430494     -0.517000020       2378.38086       1.60245514    
  -2.40179110     -0.994853973     -0.517000020       2378.38086       1.60245514    
  -1.73421395     -0.718334973     -0.606999993       2378.38086       1.60245514    
  -1.73421395     -0.718334973     -0.606999993       1660.73303       1.59784222    
  -1.26109600     -0.522363007     -0.606999993       1660.73303       1.59784222    
  -1.13495600     -0.758352995     -0.606999993       1660.73303       1.59784222    
  -1.56075203      -1.04286098     -0.606999993       1660.73303       1.59784222    
  -1.73421395     -0.718334973     -0.606999993       2582.26880       1.60252595    
  -2.40179110     -0.994853973     -0.517000020       2582.26880       1.60252595    
  -2.54972792     -0.507171988     -0.517000020       2582.26880       1.60252595    
  -1.84103203     -0.366203994     -0.606999993       2582.26880       1.60252595    
  -1.84103203     -0.366203994     -0.606999993       1804.96851       1.59786189    
  -1.33877206     -0.266297996     -0.606999993       1804.96851       1.59786189    
  -1.26109600     -0.522363007     -0.606999993       1804.96851       1.59786189    
  -1.73421395     -0.718334973     -0.606999993       1804.96851       1.59786189    
  -1.84103203     -0.366203994     -0.606999993       2683.39624       1.60261285    
  -2.54972792     -0.507171988     -0.517000020       2683.39624       1.60261285    
  -2.59967995       0.00000000     -0.517000020       2683.39624       1.60261285    
  -1.87709999       0.00000000     -0.606999993       2683.39624       1.60261285    
  -1.87709999       0.00000000     -0.606999993       1878.21851       1.59790862    
  -1.36500001       0.00000000     -0.606999993       1878.21851       1.59790862    
  -1.33877206     -0.266297996     -0.606999993       1878.21851       1.59790862    
  -1.84103203     -0.366203994     -0.606999993       1878.21851       1.59790862    
  -1.87709999       0.00000000     -0.606999993       2684.23071       1.60259724    
  -2.59967995       0.00000000     -0.517000020       2684.23071       1.60259724    
  -2.54972792      0.507171988     -0.517000020       2684.23071       1.60259724    
  -1.84103203      0.366203994     -0.606999993       2684.23071       1.60259724    
  -1.84103203      0.366203994     -0.606999993       1879.84863       1.59788752    
  -1.33877206      0.266297996     -0.606999993       1879.84863       1.59788752    
  -1.36500001       0.00000000     -0.606999993       1879.84863       1.59788752    
  -1.87709999       0.00000000     -0.606999993       1879.84863       1.59788752    
  -1.84103203      0.366203994     -0.606999993       2585.79321       1.60245931    
  -2.54972792      0.507171988     -0.517000020       2585.79321       1.60245931    
  -2.40179110      0.994853973     -0.517000020       2585.79321       1.60245931    
  -1.73421395      0.718334973     -0.606999993       2585.79321       1.60245931    
  -1.73421395      0.718334973     -0.606999993       1810.20093       1.59778237    
  -1.26109600      0.522363007     -0.606999993       1810.20093       1.59778237    
  -1.33877206      0.266297996     -0.606999993       1810.20093       1.59778237    
  -1.84103203      0.366203994     -0.606999993       1810.20093       1.59778237    
  -1.73421395      0.718334973     -0.606999993       2385.76343       1.60229063    
  -2.40179110      0.994853973     -0.517000020       2385.76343       1.60229063    
  -2.16155505       1.44430494     -0.517000020       2385.76343       1.60229063    
  -1.56075203       1.04286098     -0.606999993       2385.76343       1.60229063    
  -1.56075203       1.04286098     -0.606999993       1669.94922       1.59766829    
  -1.13495600      0.758352995     -0.606999993       1669.94922       1.59766829    
  -1.26109600      0.522363007     -0.606999993       1669.94922       1.59766829    
  -1.73421395      0.718334973     -0.606999993       1669.94922       1.59766829    
  -1.56075203       1.04286098     -0.606999993       2087.93799       1.60223782    
  -2.16155505       1.44430494     -0.517000020       2087.93799       1.60223782    
  -1.83825099       1.83825099     -0.517000020       2087.93799       1.60223782    
  -1.32730997       1.32730997     -0.606999993       2087.93799       1.60223782    
  -1.32730997       1.32730997     -0.606999993       1463.31470       1.59765494    
 -0.965201020      0.965201020     -0.606999993       1463.31470       1.59765494    
  -1.13495600      0.758352995     -0.606999993       1463.31470       1.59765494    
  -1.56075203       1.04286098     -0.606999993       1463.31470       1.59765494    
  -1.32730997       1.32730997     -0.606999993       1709.13928       1.60240448    
  -1.83825099       1.83825099     -0.517000020       1709.13928       1.60240448    
  -1.44430494       2.16155505     -0.517000020       1709.13928       1.60240448    
  -1.04286098       1.56075203     -0.606999993       1709.13928       1.60240448    
  -1.04286098       1.56075203     -0.606999993       1199.99951       1.59783208    
 -0.758352995       1.13495600     -0.606999993       1199.99951       1.59783208    
 -0.965201020      0.965201020     -0.606999993       1199.99951       1.59783208    
  -1.32730997       1.32730997     -0.606999993       1199.99951       1.59783208    
  -1.04286098       1.56075203     -0.606999993       1269.69800       1.60277879    
  -1.44430494       2.16155505     -0.517000020       1269.69800       1.60277879    
 -0.994853973       2.40179110     -0.517000020       1269.69800       1.60277879    
 -0.718334973       1.73421395     -0.606999993       1269.69800       1.60277879    
 -0.718334973       1.73421395     -0.606999993       892.336914       1.59821546    
 -0.522363007       1.26109600     -0.606999993       892.336914       1.59821546    
 -0.758352995       1.13495600     -0.606999993       892.336914       1.59821546    
  -1.04286098       1.56075203     -0.606999993       892.336914       1.59821546    
 -0.718334973       1.73421395     -0.606999993       784.160400       1.60332346    
 -0.994853973       2.40179110     -0.517000020       784.160400       1.60332346    
 -0.507171988       2.54972792     -0.517000020       784.160400       1.60332346    
 -0.366203994       1.84103203     -0.606999993       784.160400       1.60332346    
 -0.366203994       1.84103203     -0.606999993       551.684631       1.59884548    
 -0.266297996       1.33877206     -0.606999993       551.684631       1.59884548    
 -0.522363007       1.26109600     -0.606999993       551.684631       1.59884548    
 -0.718334973       1.73421395     -0.606999993       551.684631       1.59884548    
 -0.366203994       1.84103203     -0.606999993       265.970917       1.60445440    
 -0.507171988       2.54972792     -0.517000020       265.970917       1.60445440    
   0.00000000       2.59967995     -0.517000020       265.970917       1.60445440    
   0.00000000       1.87709999     -0.606999993       265.970917       1.60445440    
   0.00000000       1.87709999     -0.606999993       189.510300       1.60078382    
   0.00000000       1.36500001     -0.606999993       189.510300       1.60078382    
 -0.266297996       1.33877206     -0.606999993       189.510300       1.60078382    
 -0.366203994       1.84103203     -0.606999993       189.510300       1.60078382    
   0.00000000       1.87709999     -0.606999993       264.508118      -1.53990614    
   0.00000000       2.59967995     -0.517000020       264.508118      -1.53990614    
  0.507171988       2.54972792     -0.517000020       264.508118      -1.53990614    
  0.366203994       1.84103203     -0.606999993       264.508118      -1.53990614    
  0.366203994       1.84103203     -0.606999993       180.381470      -1.54629278    
  0.266297996       1.33877206     -0.606999993       180.381470      -1.54629278    
   0.00000000       1.36500001     -0.606999993       180.381470      -1.54629278    
   0.00000000       1.87709999     -0.606999993       180.381470      -1.54629278    
  0.366203994       1.84103203     -0.606999993       782.650146      -1.53923035    
  0.507171988       2.54972792     -0.517000020       782.650146      -1.53923035    
  0.994853973       2.40179110     -0.517000020       782.650146      -1.53923035    
  0.718334973       1.73421395     -0.606999993       782.650146      -1.53923035    
  0.718334973       1.73421395     -0.606999993       542.654358      -1.54460478    
  0.522363007       1.26109600     -0.606999993       542.654358      -1.54460478    
  0.266297996       1.33877206     -0.606999993       542.654358      -1.54460478    
  0.366203994       1.84103203     -0.606999993       542.654358      -1.54460478    
  0.718334973       1.73421395     -0.606999993       1268.04187      -1.53943110    
  0.994853973       2.40179110     -0.517000020       1268.04187      -1.53943110    
   1.44430494       2.16155505     -0.517000020       1268.04187      -1.53943110    
   1.04286098       1.56075203     -0.606999993       1268.04187      -1.53943110    
   1.04286098       1.56075203     -0.606999993       883.602417      -1.54453862    
  0.758352995       1.13495600     -0.606999993       883.602417      -1.54453862    
  0.522363007       1.26109600     -0.606999993       883.602417      -1.54453862    
  0.718334973       1.73421395     -0.606999993       883.602417      -1.54453862    
   1.04286098       1.56075203     -0.606999993       1707.19751      -1.53967309    
   1.44430494       2.16155505     -0.517000020       1707.19751      -1.53967309    
   1.83825099       1.83825099     -0.517000020       1707.19751      -1.53967309    
   1.32730997       1.32730997     -0.606999993       1707.19751      -1.53967309    
   1.32730997       1.32730997     -0.606999993       1191.64917      -1.54463816    
  0.965201020      0.965201020     -0.606999993       1191.64917      -1.54463816    
  0.758352995       1.13495600     -0.606999993       1191.64917      -1.54463816    
   1.04286098       1.56075203     -0.606999993       1191.64917      -1.54463816    
   1.32730997       1.32730997     -0.606999993       2085.54614      -1.53977478    
   1.83825099       1.83825099     -0.517000020       2085.54614      -1.53977478    
   2.16155505       1.44430494     -0.517000020       2085.54614      -1.53977478    
   1.56075203       1.04286098     -0.606999993       2085.54614      -1.53977478    
   1.56075203       1.04286098     -0.606999993       1455.51172      -1.54466820    
   1.13495600      0.758352995     -0.606999993       1455.51172      -1.54466820    
  0.965201020      0.965201020     -0.606999993       1455.51172      -1.54466820    
   1.32730997       1.32730997     -0.606999993       1455.51172      -1.54466820    
   1.56075203       1.04286098     -0.606999993       2382.85156      -1.53969145    
   2.16155505       1.44430494     -0.517000020       2382.85156      -1.53969145    
   2.40179110      0.994853973     -0.517000020       2382.85156      -1.53969145    
   1.73421395      0.718334973     -0.606999993       2382.85156      -1.53969145    
   1.73421395      0.718334973     -0.606999993       1663.17114      -1.54457045    
   1.26109600      0.522363007     -0.606999993       1663.17114      -1.54457045    
   1.13495600      0.758352995     -0.606999993       1663.17114      -1.54457045    
   1.56075203       1.04286098     -0.606999993       1663.17114      -1.54457045    
   1.73421395      0.718334973     -0.606999993       2582.39185      -1.53951323    
   2.40179110      0.994853973     -0.517000020       2582.39185      -1.53951323    
   2.54972792      0.507171988     -0.517000020       2582.39185      -1.53951323    
   1.84103203      0.366203994     -0.606999993       2582.39185      -1.53951323    
   1.84103203      0.366203994     -0.606999993       1804.62561      -1.54441273    
   1.33877206      0.266297996     -0.606999993       1804.62561      -1.54441273    
   1.26109600      0.522363007     -0.606999993       1804.62561      -1.54441273    
   1.73421395      0.718334973     -0.606999993       1804.62561      -1.54441273    
   1.84103203      0.366203994     -0.606999993       2680.49854      -1.53938508    
   2.54972792      0.507171988     -0.517000020       2680.49854      -1.53938508    
   2.59967995       0.00000000     -0.517000020       2680.49854      -1.53938508    
   1.87709999       0.00000000     -0.606999993       2680.49854      -1.53938508    
   1.87709999       0.00000000     -0.606999993       1875.59973      -1.54429829    
   1.36500001       0.00000000     -0.606999993       1875.59973      -1.54429829    
   1.33877206      0.266297996     -0.606999993       1875.59973      -1.54429829    
   1.84103203      0.366203994     -0.606999993       1875.59973      -1.54429829    
   1.87709999       0.00000000     -0.606999993       2679.61328      -1.53939784    
   2.59967995       0.00000000     -0.517000020       2679.61328      -1.53939784    
   2.54972792     -0.507171988     -0.517000020       2679.61328      -1.53939784    
   1.84103203     -0.366203994     -0.606999993       2679.61328      -1.53939784    
   1.84103203     -0.366203994     -0.606999993       1875.57605      -1.54429483    
   1.33877206     -0.266297996     -0.606999993       1875.57605      -1.54429483    
   1.36500001       0.00000000     -0.606999993       1875.57605      -1.54429483    
   1.87709999       0.00000000     -0.606999993       1875.57605      -1.54429483    
   1.84103203     -0.366203994     -0.606999993       2578.74438      -1.53953695    
   2.54972792     -0.507171988     -0.517000020       2578.74438      -1.53953695    
   2.40179110     -0.994853973     -0.517000020       2578.74438      -1.53953695    
   1.73421395     -0.718334973     -0.606999993       2578.74438      -1.53953695    
   1.73421395     -0.718334973     -0.606999993       1804.11719      -1.54438961    
   1.26109600     -0.522363007     -0.606999993       1804.11719      -1.54438961    
   1.33877206     -0.266297996     -0.606999993       1804.11719      -1.54438961    
   1.84103203     -0.366203994     -0.606999993       1804.11719      -1.54438961    
   1.73421395     -0.718334973     -0.606999993       2375.37939      -1.53968978    
   2.40179110     -0.994853973     -0.517000020       2375.37939      -1.53968978    
   2.16155505      -1.44430494     -0.517000020       2375.37939      -1.53968978    
   1.56075203      -1.04286098     -0.606999993       2375.37939      -1.53968978    
   1.56075203      -1.04286098     -0.606999993       1661.85999      -1.54449344    
   1.13495600     -0.758352995     -0.606999993       1661.85999      -1.54449344    
   1.26109600     -0.522363007     -0.606999993       1661.85999      -1.54449344    