 VARIABLES="X" "Y" "Z" "abs(p) (Pa)" "angle(p) (rad)"
ZONE N=   2709,E =    2358, F=FEPOINT, ET=QUADRILATERAL
   0.00000000      -5.48999977     -0.157000005       25.1331692      -1.49807739    
   0.00000000      -4.76741982     -0.246999994       25.1331692      -1.49807739    
  0.930077016      -4.67581606     -0.246999994       25.1331692      -1.49807739    
   1.07104599      -5.38451099     -0.157000005       25.1331692      -1.49807739    
  -1.07104599      -5.38451099     -0.157000005       25.2004528       1.65458918    
 -0.930077016      -4.67581606     -0.246999994       25.2004528       1.65458918    
   0.00000000      -4.76741982     -0.246999994       25.2004528       1.65458918    
   0.00000000      -5.48999977     -0.157000005       25.2004528       1.65458918    
  -2.10093188      -5.07209921     -0.157000005       71.6976624       1.65146077    
  -1.82441294      -4.40452194     -0.246999994       71.6976624       1.65146077    
 -0.930077016      -4.67581606     -0.246999994       71.6976624       1.65146077    
  -1.07104599      -5.38451099     -0.157000005       71.6976624       1.65146077    
  -3.05008101      -4.56476784     -0.157000005       101.888329       1.64571261    
  -2.64863706      -3.96396494     -0.246999994       101.888329       1.64571261    
  -1.82441294      -4.40452194     -0.246999994       101.888329       1.64571261    
  -2.10093188      -5.07209921     -0.157000005       101.888329       1.64571261    
  -3.88201594      -3.88201594     -0.157000005       136.399841       1.62799025    
  -3.37107491      -3.37107491     -0.246999994       136.399841       1.62799025    
  -2.64863706      -3.96396494     -0.246999994       136.399841       1.62799025    
  -3.05008101      -4.56476784     -0.157000005       136.399841       1.62799025    
  -4.56476784      -3.05008101     -0.157000005       174.171417       1.61818981    
  -3.96396494      -2.64863706     -0.246999994       174.171417       1.61818981    
  -3.37107491      -3.37107491     -0.246999994       174.171417       1.61818981    
  -3.88201594      -3.88201594     -0.157000005       174.171417       1.61818981    
  -5.07209921      -2.10093188     -0.157000005       202.425537       1.60959589    
  -4.40452194      -1.82441294     -0.246999994       202.425537       1.60959589    
  -3.96396494      -2.64863706     -0.246999994       202.425537       1.60959589    
  -4.56476784      -3.05008101     -0.157000005       202.425537       1.60959589    
  -5.38451099      -1.07104599     -0.157000005       218.949615       1.62349248    
  -4.67581606     -0.930077016     -0.246999994       218.949615       1.62349248    
  -4.40452194      -1.82441294     -0.246999994       218.949615       1.62349248    
  -5.07209921      -2.10093188     -0.157000005       218.949615       1.62349248    
  -5.48999977       0.00000000     -0.157000005       217.368820       1.64581585    
  -4.76741982       0.00000000     -0.246999994       217.368820       1.64581585    
  -4.67581606     -0.930077016     -0.246999994       217.368820       1.64581585    
  -5.38451099      -1.07104599     -0.157000005       217.368820       1.64581585    
  -5.38451099       1.07104599     -0.157000005       218.195236       1.64427817    
  -4.67581606      0.930077016     -0.246999994       218.195236       1.64427817    
  -4.76741982       0.00000000     -0.246999994       218.195236       1.64427817    
  -5.48999977       0.00000000     -0.157000005       218.195236       1.64427817    
  -5.07209921       2.10093188     -0.157000005       223.256927       1.62619126    
  -4.40452194       1.82441294     -0.246999994       223.256927       1.62619126    
  -4.67581606      0.930077016     -0.246999994       223.256927       1.62619126    
  -5.38451099       1.07104599     -0.157000005       223.256927       1.62619126    
  -4.56476784       3.05008101     -0.157000005       207.631638       1.61091971    
  -3.96396494       2.64863706     -0.246999994       207.631638       1.61091971    
  -4.40452194       1.82441294     -0.246999994       207.631638       1.61091971    
  -5.07209921       2.10093188     -0.157000005       207.631638       1.61091971    
  -3.88201594       3.88201594     -0.157000005       176.583420       1.60879230    
  -3.37107491       3.37107491     -0.246999994       176.583420       1.60879230    
  -3.96396494       2.64863706     -0.246999994       176.583420       1.60879230    
  -4.56476784       3.05008101     -0.157000005       176.583420       1.60879230    
  -3.05008101       4.56476784     -0.157000005       139.898315       1.63456595    
  -2.64863706       3.96396494     -0.246999994       139.898315       1.63456595    
  -3.37107491       3.37107491     -0.246999994       139.898315       1.63456595    
  -3.88201594       3.88201594     -0.157000005       139.898315       1.63456595    
  -2.10093188       5.07209921     -0.157000005       102.903809       1.64213014    
  -1.82441294       4.40452194     -0.246999994       102.903809       1.64213014    
  -2.64863706       3.96396494     -0.246999994       102.903809       1.64213014    
  -3.05008101       4.56476784     -0.157000005       102.903809       1.64213014    
  -1.07104599       5.38451099     -0.157000005       71.1548920       1.64106393    
 -0.930077016       4.67581606     -0.246999994       71.1548920       1.64106393    
  -1.82441294       4.40452194     -0.246999994       71.1548920       1.64106393    
  -2.10093188       5.07209921     -0.157000005       71.1548920       1.64106393    
   0.00000000       5.48999977     -0.157000005       25.4123249       1.63306773    
   0.00000000       4.76741982     -0.246999994       25.4123249       1.63306773    
 -0.930077016       4.67581606     -0.246999994       25.4123249       1.63306773    
  -1.07104599       5.38451099     -0.157000005       25.4123249       1.63306773    
   1.07104599       5.38451099     -0.157000005       26.0436687      -1.49434209    
  0.930077016       4.67581606     -0.246999994       26.0436687      -1.49434209    
   0.00000000       4.76741982     -0.246999994       26.0436687      -1.49434209    
   0.00000000       5.48999977     -0.157000005       26.0436687      -1.49434209    
   2.10093188       5.07209921     -0.157000005       71.0086670      -1.49799371    
   1.82441294       4.40452194     -0.246999994       71.0086670      -1.49799371    
  0.930077016       4.67581606     -0.246999994       71.0086670      -1.49799371    
   1.07104599       5.38451099     -0.157000005       71.0086670      -1.49799371    
   3.05008101       4.56476784     -0.157000005       102.781525      -1.49647832    
   2.64863706       3.96396494     -0.246999994       102.781525      -1.49647832    
   1.82441294       4.40452194     -0.246999994       102.781525      -1.49647832    
   2.10093188       5.07209921     -0.157000005       102.781525      -1.49647832    
   3.88201594       3.88201594     -0.157000005       140.265610      -1.50804567    
   3.37107491       3.37107491     -0.246999994       140.265610      -1.50804567    
   2.64863706       3.96396494     -0.246999994       140.265610      -1.50804567    
   3.05008101       4.56476784     -0.157000005       140.265610      -1.50804567    
   4.56476784       3.05008101     -0.157000005       178.249207      -1.52559197    
   3.96396494       2.64863706     -0.246999994       178.249207      -1.52559197    
   3.37107491       3.37107491     -0.246999994       178.249207      -1.52559197    
   3.88201594       3.88201594     -0.157000005       178.249207      -1.52559197    
   5.07209921       2.10093188     -0.157000005       208.262894      -1.53122270    
   4.40452194       1.82441294     -0.246999994       208.262894      -1.53122270    
   3.96396494       2.64863706     -0.246999994       208.262894      -1.53122270    
   4.56476784       3.05008101     -0.157000005       208.262894      -1.53122270    
   5.38451099       1.07104599     -0.157000005       221.985718      -1.51616526    
   4.67581606      0.930077016     -0.246999994       221.985718      -1.51616526    
   4.40452194       1.82441294     -0.246999994       221.985718      -1.51616526    
   5.07209921       2.10093188     -0.157000005       221.985718      -1.51616526    
   5.48999977       0.00000000     -0.157000005       217.009613      -1.49945688    
   4.76741982       0.00000000     -0.246999994       217.009613      -1.49945688    
   4.67581606      0.930077016     -0.246999994       217.009613      -1.49945688    
   5.38451099       1.07104599     -0.157000005       217.009613      -1.49945688    
   5.38451099      -1.07104599     -0.157000005       215.785294      -1.50076294    
   4.67581606     -0.930077016     -0.246999994       215.785294      -1.50076294    
   4.76741982       0.00000000     -0.246999994       215.785294      -1.50076294    
   5.48999977       0.00000000     -0.157000005       215.785294      -1.50076294    
   5.07209921      -2.10093188     -0.157000005       219.105896      -1.51858521    
   4.40452194      -1.82441294     -0.246999994       219.105896      -1.51858521    
   4.67581606     -0.930077016     -0.246999994       219.105896      -1.51858521    
   5.38451099      -1.07104599     -0.157000005       219.105896      -1.51858521    
   4.56476784      -3.05008101     -0.157000005       202.172043      -1.53205895    
   3.96396494      -2.64863706     -0.246999994       202.172043      -1.53205895    
   4.40452194      -1.82441294     -0.246999994       202.172043      -1.53205895    
   5.07209921      -2.10093188     -0.157000005       202.172043      -1.53205895    
   3.88201594      -3.88201594     -0.157000005       172.646179      -1.52937841    
   3.37107491      -3.37107491     -0.246999994       172.646179      -1.52937841    
   3.96396494      -2.64863706     -0.246999994       172.646179      -1.52937841    
   4.56476784      -3.05008101     -0.157000005       172.646179      -1.52937841    
   3.05008101      -4.56476784     -0.157000005       137.335434      -1.50845706    
   2.64863706      -3.96396494     -0.246999994       137.335434      -1.50845706    
   3.37107491      -3.37107491     -0.246999994       137.335434      -1.50845706    
   3.88201594      -3.88201594     -0.157000005       137.335434      -1.50845706    
   2.10093188      -5.07209921     -0.157000005       101.962563      -1.50058508    
   1.82441294      -4.40452194     -0.246999994       101.962563      -1.50058508    
   2.64863706      -3.96396494     -0.246999994       101.962563      -1.50058508    
   3.05008101      -4.56476784     -0.157000005       101.962563      -1.50058508    
   1.07104599      -5.38451099     -0.157000005       70.9113846      -1.49763441    
  0.930077016      -4.67581606     -0.246999994       70.9113846      -1.49763441    
   1.82441294      -4.40452194     -0.246999994       70.9113846      -1.49763441    
   2.10093188      -5.07209921     -0.157000005       70.9113846      -1.49763441    
   0.00000000      -1.87709999     -0.606999993       1088.63806      -1.56416261    
   0.00000000      -1.36500001     -0.606999993       1088.63806      -1.56416261    
  0.266297996      -1.33877206     -0.606999993       1088.63806      -1.56416261    
  0.366203994      -1.84103203     -0.606999993       1088.63806      -1.56416261    
   0.00000000      -1.87709999     -0.606999993       271.956085      -1.55311871    
   0.00000000      -2.59967995     -0.517000020       271.956085      -1.55311871    
 -0.507171988      -2.54972792     -0.517000020       271.956085      -1.55311871    
 -0.366203994      -1.84103203     -0.606999993       271.956085      -1.55311871    
 -0.366203994      -1.84103203     -0.606999993       1525.97900       1.57599902    
 -0.266297996      -1.33877206     -0.606999993       1525.97900       1.57599902    
   0.00000000      -1.36500001     -0.606999993       1525.97900       1.57599902    
   0.00000000      -1.87709999     -0.606999993       1525.97900       1.57599902    
 -0.366203994      -1.84103203     -0.606999993       904.679871      -1.55465066    
 -0.507171988      -2.54972792     -0.517000020       904.679871      -1.55465066    
 -0.994853973      -2.40179110     -0.517000020       904.679871      -1.55465066    
 -0.718334973      -1.73421395     -0.606999993       904.679871      -1.55465066    
 -0.718334973      -1.73421395     -0.606999993       4058.17188       1.57551742    
 -0.522363007      -1.26109600     -0.606999993       4058.17188       1.57551742    
 -0.266297996      -1.33877206     -0.606999993       4058.17188       1.57551742    
 -0.366203994      -1.84103203     -0.606999993       4058.17188       1.57551742    
 -0.718334973      -1.73421395     -0.606999993       1382.80859      -1.55492318    
 -0.994853973      -2.40179110     -0.517000020       1382.80859      -1.55492318    
  -1.44430494      -2.16155505     -0.517000020       1382.80859      -1.55492318    
  -1.04286098      -1.56075203     -0.606999993       1382.80859      -1.55492318    
  -1.04286098      -1.56075203     -0.606999993       6401.66699       1.57448685    
 -0.758352995      -1.13495600     -0.606999993       6401.66699       1.57448685    
 -0.522363007      -1.26109600     -0.606999993       6401.66699       1.57448685    
 -0.718334973      -1.73421395     -0.606999993       6401.66699       1.57448685    
  -1.04286098      -1.56075203     -0.606999993       1700.07288      -1.55685675    
  -1.44430494      -2.16155505     -0.517000020       1700.07288      -1.55685675    
  -1.83825099      -1.83825099     -0.517000020       1700.07288      -1.55685675    
  -1.32730997      -1.32730997     -0.606999993       1700.07288      -1.55685675    
  -1.32730997      -1.32730997     -0.606999993       8493.91992       1.57385683    
 -0.965201020     -0.965201020     -0.606999993       8493.91992       1.57385683    
 -0.758352995      -1.13495600     -0.606999993       8493.91992       1.57385683    
  -1.04286098      -1.56075203     -0.606999993       8493.91992       1.57385683    
  -1.32730997      -1.32730997     -0.606999993       1955.97864      -1.55974114    
  -1.83825099      -1.83825099     -0.517000020       1955.97864      -1.55974114    
  -2.16155505      -1.44430494     -0.517000020       1955.97864      -1.55974114    
  -1.56075203      -1.04286098     -0.606999993       1955.97864      -1.55974114    
  -1.56075203      -1.04286098     -0.606999993       10288.5928       1.57386684    
  -1.13495600     -0.758352995     -0.606999993       10288.5928       1.57386684    
 -0.965201020     -0.965201020     -0.606999993       10288.5928       1.57386684    
  -1.32730997      -1.32730997     -0.606999993       10288.5928       1.57386684    
  -1.56075203      -1.04286098     -0.606999993       2209.37646      -1.56043899    
  -2.16155505      -1.44430494     -0.517000020       2209.37646      -1.56043899    
  -2.40179110     -0.994853973     -0.517000020       2209.37646      -1.56043899    
  -1.73421395     -0.718334973     -0.606999993       2209.37646      -1.56043899    
  -1.73421395     -0.718334973     -0.606999993       11746.3115       1.57419205    
  -1.26109600     -0.522363007     -0.606999993       11746.3115       1.57419205    
  -1.13495600     -0.758352995     -0.606999993       11746.3115       1.57419205    
  -1.56075203      -1.04286098     -0.606999993       11746.3115       1.57419205    
  -1.73421395     -0.718334973     -0.606999993       2442.64868      -1.55794287    
  -2.40179110     -0.994853973     -0.517000020       2442.64868      -1.55794287    
  -2.54972792     -0.507171988     -0.517000020       2442.64868      -1.55794287    
  -1.84103203     -0.366203994     -0.606999993       2442.64868      -1.55794287    
  -1.84103203     -0.366203994     -0.606999993       12796.9746       1.57442808    
  -1.33877206     -0.266297996     -0.606999993       12796.9746       1.57442808    
  -1.26109600     -0.522363007     -0.606999993       12796.9746       1.57442808    
  -1.73421395     -0.718334973     -0.606999993       12796.9746       1.57442808    
  -1.84103203     -0.366203994     -0.606999993       2585.06909      -1.55496776    
  -2.54972792     -0.507171988     -0.517000020       2585.06909      -1.55496776    
  -2.59967995       0.00000000     -0.517000020       2585.06909      -1.55496776    
  -1.87709999       0.00000000     -0.606999993       2585.06909      -1.55496776    
  -1.87709999       0.00000000     -0.606999993       13357.5664       1.57447422    
  -1.36500001       0.00000000     -0.606999993       13357.5664       1.57447422    
  -1.33877206     -0.266297996     -0.606999993       13357.5664       1.57447422    
  -1.84103203     -0.366203994     -0.606999993       13357.5664       1.57447422    
  -1.87709999       0.00000000     -0.606999993       2581.20752      -1.55475044    
  -2.59967995       0.00000000     -0.517000020       2581.20752      -1.55475044    
  -2.54972792      0.507171988     -0.517000020       2581.20752      -1.55475044    
  -1.84103203      0.366203994     -0.606999993       2581.20752      -1.55475044    
  -1.84103203      0.366203994     -0.606999993       13361.9482       1.57445061    
  -1.33877206      0.266297996     -0.606999993       13361.9482       1.57445061    
  -1.36500001       0.00000000     -0.606999993       13361.9482       1.57445061    
  -1.87709999       0.00000000     -0.606999993       13361.9482       1.57445061    
  -1.84103203      0.366203994     -0.606999993       2428.56030      -1.55757189    
  -2.54972792      0.507171988     -0.517000020       2428.56030      -1.55757189    
  -2.40179110      0.994853973     -0.517000020       2428.56030      -1.55757189    
  -1.73421395      0.718334973     -0.606999993       2428.56030      -1.55757189    
  -1.73421395      0.718334973     -0.606999993       12798.7266       1.57438684    
  -1.26109600      0.522363007     -0.606999993       12798.7266       1.57438684    
  -1.33877206      0.266297996     -0.606999993       12798.7266       1.57438684    
  -1.84103203      0.366203994     -0.606999993       12798.7266       1.57438684    
  -1.73421395      0.718334973     -0.606999993       2181.25195      -1.56033897    
  -2.40179110      0.994853973     -0.517000020       2181.25195      -1.56033897    
  -2.16155505       1.44430494     -0.517000020       2181.25195      -1.56033897    
  -1.56075203       1.04286098     -0.606999993       2181.25195      -1.56033897    
  -1.56075203       1.04286098     -0.606999993       11719.4482       1.57418656    
  -1.13495600      0.758352995     -0.606999993       11719.4482       1.57418656    
  -1.26109600      0.522363007     -0.606999993       11719.4482       1.57418656    
  -1.73421395      0.718334973     -0.606999993       11719.4482       1.57418656    
  -1.56075203       1.04286098     -0.606999993       1908.29993      -1.55981600    
  -2.16155505       1.44430494     -0.517000020       1908.29993      -1.55981600    
  -1.83825099       1.83825099     -0.517000020       1908.29993      -1.55981600    
  -1.32730997       1.32730997     -0.606999993       1908.29993      -1.55981600    
  -1.32730997       1.32730997     -0.606999993       10204.9268       1.57391012    
 -0.965201020      0.965201020     -0.606999993       10204.9268       1.57391012    
  -1.13495600      0.758352995     -0.606999993       10204.9268       1.57391012    
  -1.56075203       1.04286098     -0.606999993       10204.9268       1.57391012    
  -1.32730997       1.32730997     -0.606999993       1638.26392      -1.55680537    
  -1.83825099       1.83825099     -0.517000020       1638.26392      -1.55680537    
  -1.44430494       2.16155505     -0.517000020       1638.26392      -1.55680537    
  -1.04286098       1.56075203     -0.606999993       1638.26392      -1.55680537    
  -1.04286098       1.56075203     -0.606999993       8333.09668       1.57393157    
 -0.758352995       1.13495600     -0.606999993       8333.09668       1.57393157    
 -0.965201020      0.965201020     -0.606999993       8333.09668       1.57393157    
  -1.32730997       1.32730997     -0.606999993       8333.09668       1.57393157    
  -1.04286098       1.56075203     -0.606999993       1336.75122      -1.55514407    
  -1.44430494       2.16155505     -0.517000020       1336.75122      -1.55514407    
 -0.994853973       2.40179110     -0.517000020       1336.75122      -1.55514407    
 -0.718334973       1.73421395     -0.606999993       1336.75122      -1.55514407    
 -0.718334973       1.73421395     -0.606999993       6155.93213       1.57461667    
 -0.522363007       1.26109600     -0.606999993       6155.93213       1.57461667    
 -0.758352995       1.13495600     -0.606999993       6155.93213       1.57461667    
  -1.04286098       1.56075203     -0.606999993       6155.93213       1.57461667    
 -0.718334973       1.73421395     -0.606999993       913.398499      -1.55609167    
 -0.994853973       2.40179110     -0.517000020       913.398499      -1.55609167    
 -0.507171988       2.54972792     -0.517000020       913.398499      -1.55609167    
 -0.366203994       1.84103203     -0.606999993       913.398499      -1.55609167    
 -0.366203994       1.84103203     -0.606999993       3733.99121       1.57584548    
 -0.266297996       1.33877206     -0.606999993       3733.99121       1.57584548    
 -0.522363007       1.26109600     -0.606999993       3733.99121       1.57584548    
 -0.718334973       1.73421395     -0.606999993       3733.99121       1.57584548    
 -0.366203994       1.84103203     -0.606999993       358.134308      -1.55861783    
 -0.507171988       2.54972792     -0.517000020       358.134308      -1.55861783    
   0.00000000       2.59967995     -0.517000020       358.134308      -1.55861783    
   0.00000000       1.87709999     -0.606999993       358.134308      -1.55861783    
   0.00000000       1.87709999     -0.606999993       1142.50684       1.57737291    
   0.00000000       1.36500001     -0.606999993       1142.50684       1.57737291    
 -0.266297996       1.33877206     -0.606999993       1142.50684       1.57737291    
 -0.366203994       1.84103203     -0.606999993       1142.50684       1.57737291    
   0.00000000       1.87709999     -0.606999993       266.407806       1.58727562    
   0.00000000       2.59967995     -0.517000020       266.407806       1.58727562    
  0.507171988       2.54972792     -0.517000020       266.407806       1.58727562    
  0.366203994       1.84103203     -0.606999993       266.407806       1.58727562    
  0.366203994       1.84103203     -0.606999993       1502.13611      -1.56577945    
  0.266297996       1.33877206     -0.606999993       1502.13611      -1.56577945    
   0.00000000       1.36500001     -0.606999993       1502.13611      -1.56577945    
   0.00000000       1.87709999     -0.606999993       1502.13611      -1.56577945    
  0.366203994       1.84103203     -0.606999993       827.117737       1.58720243    
  0.507171988       2.54972792     -0.517000020       827.117737       1.58720243    
  0.994853973       2.40179110     -0.517000020       827.117737       1.58720243    
  0.718334973       1.73421395     -0.606999993       827.117737       1.58720243    
  0.718334973       1.73421395     -0.606999993       4076.81543      -1.56620872    
  0.522363007       1.26109600     -0.606999993       4076.81543      -1.56620872    
  0.266297996       1.33877206     -0.606999993       4076.81543      -1.56620872    
  0.366203994       1.84103203     -0.606999993       4076.81543      -1.56620872    
  0.718334973       1.73421395     -0.606999993       1259.50281       1.58759499    
  0.994853973       2.40179110     -0.517000020       1259.50281       1.58759499    
   1.44430494       2.16155505     -0.517000020       1259.50281       1.58759499    
   1.04286098       1.56075203     -0.606999993       1259.50281       1.58759499    
   1.04286098       1.56075203     -0.606999993       6468.56348      -1.56720650    
  0.758352995       1.13495600     -0.606999993       6468.56348      -1.56720650    
  0.522363007       1.26109600     -0.606999993       6468.56348      -1.56720650    
  0.718334973       1.73421395     -0.606999993       6468.56348      -1.56720650    
   1.04286098       1.56075203     -0.606999993       1570.91943       1.58548987    
   1.44430494       2.16155505     -0.517000020       1570.91943       1.58548987    
   1.83825099       1.83825099     -0.517000020       1570.91943       1.58548987    
   1.32730997       1.32730997     -0.606999993       1570.91943       1.58548987    
   1.32730997       1.32730997     -0.606999993       8605.69434      -1.56778741    
  0.965201020      0.965201020     -0.606999993       8605.69434      -1.56778741    
  0.758352995       1.13495600     -0.606999993       8605.69434      -1.56778741    
   1.04286098       1.56075203     -0.606999993       8605.69434      -1.56778741    
   1.32730997       1.32730997     -0.606999993       1851.43481       1.58206391    
   1.83825099       1.83825099     -0.517000020       1851.43481       1.58206391    
   2.16155505       1.44430494     -0.517000020       1851.43481       1.58206391    
   1.56075203       1.04286098     -0.606999993       1851.43481       1.58206391    
   1.56075203       1.04286098     -0.606999993       10430.6553      -1.56774628    
   1.13495600      0.758352995     -0.606999993       10430.6553      -1.56774628    
  0.965201020      0.965201020     -0.606999993       10430.6553      -1.56774628    
   1.32730997       1.32730997     -0.606999993       10430.6553      -1.56774628    
   1.56075203       1.04286098     -0.606999993       2135.96265       1.58130491    
   2.16155505       1.44430494     -0.517000020       2135.96265       1.58130491    
   2.40179110      0.994853973     -0.517000020       2135.96265       1.58130491    
   1.73421395      0.718334973     -0.606999993       2135.96265       1.58130491    
   1.73421395      0.718334973     -0.606999993       11892.5830      -1.56743073    
   1.26109600      0.522363007     -0.606999993       11892.5830      -1.56743073    
   1.13495600      0.758352995     -0.606999993       11892.5830      -1.56743073    
   1.56075203       1.04286098     -0.606999993       11892.5830      -1.56743073    
   1.73421395      0.718334973     -0.606999993       2395.39526       1.58401012    
   2.40179110      0.994853973     -0.517000020       2395.39526       1.58401012    
   2.54972792      0.507171988     -0.517000020       2395.39526       1.58401012    
   1.84103203      0.366203994     -0.606999993       2395.39526       1.58401012    
   1.84103203      0.366203994     -0.606999993       12918.0850      -1.56721139    
   1.33877206      0.266297996     -0.606999993       12918.0850      -1.56721139    
   1.26109600      0.522363007     -0.606999993       12918.0850      -1.56721139    
   1.73421395      0.718334973     -0.606999993       12918.0850      -1.56721139    
   1.84103203      0.366203994     -0.606999993       2559.12915       1.58685124    
   2.54972792      0.507171988     -0.517000020       2559.12915       1.58685124    
   2.59967995       0.00000000     -0.517000020       2559.12915       1.58685124    
   1.87709999       0.00000000     -0.606999993       2559.12915       1.58685124    
   1.87709999       0.00000000     -0.606999993       13427.0879      -1.56714630    
   1.36500001       0.00000000     -0.606999993       13427.0879      -1.56714630    
   1.33877206      0.266297996     -0.606999993       13427.0879      -1.56714630    
   1.84103203      0.366203994     -0.606999993       13427.0879      -1.56714630    
   1.87709999       0.00000000     -0.606999993       2571.69336       1.58668113    
   2.59967995       0.00000000     -0.517000020       2571.69336       1.58668113    
   2.54972792     -0.507171988     -0.517000020       2571.69336       1.58668113    
   1.84103203     -0.366203994     -0.606999993       2571.69336       1.58668113    
   1.84103203     -0.366203994     -0.606999993       13368.9697      -1.56712890    
   1.33877206     -0.266297996     -0.606999993       13368.9697      -1.56712890    
   1.36500001       0.00000000     -0.606999993       13368.9697      -1.56712890    
   1.87709999       0.00000000     -0.606999993       13368.9697      -1.56712890    
   1.84103203     -0.366203994     -0.606999993       2435.55762       1.58374405    
   2.54972792     -0.507171988     -0.517000020       2435.55762       1.58374405    
   2.40179110     -0.994853973     -0.517000020       2435.55762       1.58374405    
   1.73421395     -0.718334973     -0.606999993       2435.55762       1.58374405    
   1.73421395     -0.718334973     -0.606999993       12756.4072      -1.56717432    
   1.26109600     -0.522363007     -0.606999993       12756.4072      -1.56717432    
   1.33877206     -0.266297996     -0.606999993       12756.4072      -1.56717432    
   1.84103203     -0.366203994     -0.606999993       12756.4072      -1.56717432    
   1.73421395     -0.718334973     -0.606999993       2210.16699       1.58122027    
   2.40179110     -0.994853973     -0.517000020       2210.16699       1.58122027    
   2.16155505      -1.44430494     -0.517000020       2210.16699       1.58122027    
   1.56075203      -1.04286098     -0.606999993       2210.16699       1.58122027    
   1.56075203      -1.04286098     -0.606999993       11652.9873      -1.56738997    
   1.13495600     -0.758352995     -0.606999993       11652.9873      -1.56738997    
   1.26109600     -0.522363007     -0.606999993       11652.9873      -1.56738997    