 VARIABLES="X" "Y" "Z" "abs(p) (Pa)" "angle(p) (rad)"
ZONE N=   2709,E =    2358, F=FEPOINT, ET=QUADRILATERAL
   0.00000000      -5.48999977     -0.157000005       401.886322      -1.45550966    
   0.00000000      -4.76741982     -0.246999994       401.886322      -1.45550966    
  0.930077016      -4.67581606     -0.246999994       401.886322      -1.45550966    
   1.07104599      -5.38451099     -0.157000005       401.886322      -1.45550966    
  -1.07104599      -5.38451099     -0.157000005       400.737518       1.70438433    
 -0.930077016      -4.67581606     -0.246999994       400.737518       1.70438433    
   0.00000000      -4.76741982     -0.246999994       400.737518       1.70438433    
   0.00000000      -5.48999977     -0.157000005       400.737518       1.70438433    
  -2.10093188      -5.07209921     -0.157000005       1207.36731       1.69623315    
  -1.82441294      -4.40452194     -0.246999994       1207.36731       1.69623315    
 -0.930077016      -4.67581606     -0.246999994       1207.36731       1.69623315    
  -1.07104599      -5.38451099     -0.157000005       1207.36731       1.69623315    
  -3.05008101      -4.56476784     -0.157000005       1934.03650       1.69946218    
  -2.64863706      -3.96396494     -0.246999994       1934.03650       1.69946218    
  -1.82441294      -4.40452194     -0.246999994       1934.03650       1.69946218    
  -2.10093188      -5.07209921     -0.157000005       1934.03650       1.69946218    
  -3.88201594      -3.88201594     -0.157000005       2611.49438       1.69826579    
  -3.37107491      -3.37107491     -0.246999994       2611.49438       1.69826579    
  -2.64863706      -3.96396494     -0.246999994       2611.49438       1.69826579    
  -3.05008101      -4.56476784     -0.157000005       2611.49438       1.69826579    
  -4.56476784      -3.05008101     -0.157000005       3236.33667       1.69297910    
  -3.96396494      -2.64863706     -0.246999994       3236.33667       1.69297910    
  -3.37107491      -3.37107491     -0.246999994       3236.33667       1.69297910    
  -3.88201594      -3.88201594     -0.157000005       3236.33667       1.69297910    
  -5.07209921      -2.10093188     -0.157000005       3631.85889       1.69543993    
  -4.40452194      -1.82441294     -0.246999994       3631.85889       1.69543993    
  -3.96396494      -2.64863706     -0.246999994       3631.85889       1.69543993    
  -4.56476784      -3.05008101     -0.157000005       3631.85889       1.69543993    
  -5.38451099      -1.07104599     -0.157000005       3926.40771       1.69417095    
  -4.67581606     -0.930077016     -0.246999994       3926.40771       1.69417095    
  -4.40452194      -1.82441294     -0.246999994       3926.40771       1.69417095    
  -5.07209921      -2.10093188     -0.157000005       3926.40771       1.69417095    
  -5.48999977       0.00000000     -0.157000005       4139.49463       1.68852460    
  -4.76741982       0.00000000     -0.246999994       4139.49463       1.68852460    
  -4.67581606     -0.930077016     -0.246999994       4139.49463       1.68852460    
  -5.38451099      -1.07104599     -0.157000005       4139.49463       1.68852460    
  -5.38451099       1.07104599     -0.157000005       4142.50537       1.68624604    
  -4.67581606      0.930077016     -0.246999994       4142.50537       1.68624604    
  -4.76741982       0.00000000     -0.246999994       4142.50537       1.68624604    
  -5.48999977       0.00000000     -0.157000005       4142.50537       1.68624604    
  -5.07209921       2.10093188     -0.157000005       3981.66016       1.68477201    
  -4.40452194       1.82441294     -0.246999994       3981.66016       1.68477201    
  -4.67581606      0.930077016     -0.246999994       3981.66016       1.68477201    
  -5.38451099       1.07104599     -0.157000005       3981.66016       1.68477201    
  -4.56476784       3.05008101     -0.157000005       3665.07495       1.68415213    
  -3.96396494       2.64863706     -0.246999994       3665.07495       1.68415213    
  -4.40452194       1.82441294     -0.246999994       3665.07495       1.68415213    
  -5.07209921       2.10093188     -0.157000005       3665.07495       1.68415213    
  -3.88201594       3.88201594     -0.157000005       3166.94165       1.68730891    
  -3.37107491       3.37107491     -0.246999994       3166.94165       1.68730891    
  -3.96396494       2.64863706     -0.246999994       3166.94165       1.68730891    
  -4.56476784       3.05008101     -0.157000005       3166.94165       1.68730891    
  -3.05008101       4.56476784     -0.157000005       2631.56445       1.68505204    
  -2.64863706       3.96396494     -0.246999994       2631.56445       1.68505204    
  -3.37107491       3.37107491     -0.246999994       2631.56445       1.68505204    
  -3.88201594       3.88201594     -0.157000005       2631.56445       1.68505204    
  -2.10093188       5.07209921     -0.157000005       1933.29333       1.68886077    
  -1.82441294       4.40452194     -0.246999994       1933.29333       1.68886077    
  -2.64863706       3.96396494     -0.246999994       1933.29333       1.68886077    
  -3.05008101       4.56476784     -0.157000005       1933.29333       1.68886077    
  -1.07104599       5.38451099     -0.157000005       1205.36890       1.68719172    
 -0.930077016       4.67581606     -0.246999994       1205.36890       1.68719172    
  -1.82441294       4.40452194     -0.246999994       1205.36890       1.68719172    
  -2.10093188       5.07209921     -0.157000005       1205.36890       1.68719172    
   0.00000000       5.48999977     -0.157000005       404.519409       1.68733954    
   0.00000000       4.76741982     -0.246999994       404.519409       1.68733954    
 -0.930077016       4.67581606     -0.246999994       404.519409       1.68733954    
  -1.07104599       5.38451099     -0.157000005       404.519409       1.68733954    
   1.07104599       5.38451099     -0.157000005       407.232269      -1.44317532    
  0.930077016       4.67581606     -0.246999994       407.232269      -1.44317532    
   0.00000000       4.76741982     -0.246999994       407.232269      -1.44317532    
   0.00000000       5.48999977     -0.157000005       407.232269      -1.44317532    
   2.10093188       5.07209921     -0.157000005       1188.04724      -1.44140518    
   1.82441294       4.40452194     -0.246999994       1188.04724      -1.44140518    
  0.930077016       4.67581606     -0.246999994       1188.04724      -1.44140518    
   1.07104599       5.38451099     -0.157000005       1188.04724      -1.44140518    
   3.05008101       4.56476784     -0.157000005       1935.61316      -1.44196010    
   2.64863706       3.96396494     -0.246999994       1935.61316      -1.44196010    
   1.82441294       4.40452194     -0.246999994       1935.61316      -1.44196010    
   2.10093188       5.07209921     -0.157000005       1935.61316      -1.44196010    
   3.88201594       3.88201594     -0.157000005       2654.12891      -1.44675791    
   3.37107491       3.37107491     -0.246999994       2654.12891      -1.44675791    
   2.64863706       3.96396494     -0.246999994       2654.12891      -1.44675791    
   3.05008101       4.56476784     -0.157000005       2654.12891      -1.44675791    
   4.56476784       3.05008101     -0.157000005       3224.24365      -1.44670439    
   3.96396494       2.64863706     -0.246999994       3224.24365      -1.44670439    
   3.37107491       3.37107491     -0.246999994       3224.24365      -1.44670439    
   3.88201594       3.88201594     -0.157000005       3224.24365      -1.44670439    
   5.07209921       2.10093188     -0.157000005       3689.68872      -1.44876528    
   4.40452194       1.82441294     -0.246999994       3689.68872      -1.44876528    
   3.96396494       2.64863706     -0.246999994       3689.68872      -1.44876528    
   4.56476784       3.05008101     -0.157000005       3689.68872      -1.44876528    
   5.38451099       1.07104599     -0.157000005       3926.59937      -1.44574833    
   4.67581606      0.930077016     -0.246999994       3926.59937      -1.44574833    
   4.40452194       1.82441294     -0.246999994       3926.59937      -1.44574833    
   5.07209921       2.10093188     -0.157000005       3926.59937      -1.44574833    
   5.48999977       0.00000000     -0.157000005       4066.24878      -1.44681001    
   4.76741982       0.00000000     -0.246999994       4066.24878      -1.44681001    
   4.67581606      0.930077016     -0.246999994       4066.24878      -1.44681001    
   5.38451099       1.07104599     -0.157000005       4066.24878      -1.44681001    
   5.38451099      -1.07104599     -0.157000005       4061.94629      -1.44857812    
   4.67581606     -0.930077016     -0.246999994       4061.94629      -1.44857812    
   4.76741982       0.00000000     -0.246999994       4061.94629      -1.44857812    
   5.48999977       0.00000000     -0.157000005       4061.94629      -1.44857812    
   5.07209921      -2.10093188     -0.157000005       3904.82520      -1.45017612    
   4.40452194      -1.82441294     -0.246999994       3904.82520      -1.45017612    
   4.67581606     -0.930077016     -0.246999994       3904.82520      -1.45017612    
   5.38451099      -1.07104599     -0.157000005       3904.82520      -1.45017612    
   4.56476784      -3.05008101     -0.157000005       3598.21729      -1.45130157    
   3.96396494      -2.64863706     -0.246999994       3598.21729      -1.45130157    
   4.40452194      -1.82441294     -0.246999994       3598.21729      -1.45130157    
   5.07209921      -2.10093188     -0.157000005       3598.21729      -1.45130157    
   3.88201594      -3.88201594     -0.157000005       3156.46387      -1.45209062    
   3.37107491      -3.37107491     -0.246999994       3156.46387      -1.45209062    
   3.96396494      -2.64863706     -0.246999994       3156.46387      -1.45209062    
   4.56476784      -3.05008101     -0.157000005       3156.46387      -1.45209062    
   3.05008101      -4.56476784     -0.157000005       2627.38159      -1.45537460    
   2.64863706      -3.96396494     -0.246999994       2627.38159      -1.45537460    
   3.37107491      -3.37107491     -0.246999994       2627.38159      -1.45537460    
   3.88201594      -3.88201594     -0.157000005       2627.38159      -1.45537460    
   2.10093188      -5.07209921     -0.157000005       1928.29724      -1.45199037    
   1.82441294      -4.40452194     -0.246999994       1928.29724      -1.45199037    
   2.64863706      -3.96396494     -0.246999994       1928.29724      -1.45199037    
   3.05008101      -4.56476784     -0.157000005       1928.29724      -1.45199037    
   1.07104599      -5.38451099     -0.157000005       1186.00208      -1.45122492    
  0.930077016      -4.67581606     -0.246999994       1186.00208      -1.45122492    
   1.82441294      -4.40452194     -0.246999994       1186.00208      -1.45122492    
   2.10093188      -5.07209921     -0.157000005       1186.00208      -1.45122492    
   0.00000000      -1.87709999     -0.606999993       390.799530      -1.55295050    
   0.00000000      -1.36500001     -0.606999993       390.799530      -1.55295050    
  0.266297996      -1.33877206     -0.606999993       390.799530      -1.55295050    
  0.366203994      -1.84103203     -0.606999993       390.799530      -1.55295050    
   0.00000000      -1.87709999     -0.606999993       397.154724       1.60144722    
   0.00000000      -2.59967995     -0.517000020       397.154724       1.60144722    
 -0.507171988      -2.54972792     -0.517000020       397.154724       1.60144722    
 -0.366203994      -1.84103203     -0.606999993       397.154724       1.60144722    
 -0.366203994      -1.84103203     -0.606999993       376.799683       1.59765017    
 -0.266297996      -1.33877206     -0.606999993       376.799683       1.59765017    
   0.00000000      -1.36500001     -0.606999993       376.799683       1.59765017    
   0.00000000      -1.87709999     -0.606999993       376.799683       1.59765017    
 -0.366203994      -1.84103203     -0.606999993       1181.38696       1.59799838    
 -0.507171988      -2.54972792     -0.517000020       1181.38696       1.59799838    
 -0.994853973      -2.40179110     -0.517000020       1181.38696       1.59799838    
 -0.718334973      -1.73421395     -0.606999993       1181.38696       1.59799838    
 -0.718334973      -1.73421395     -0.606999993       1130.30396       1.59439027    
 -0.522363007      -1.26109600     -0.606999993       1130.30396       1.59439027    
 -0.266297996      -1.33877206     -0.606999993       1130.30396       1.59439027    
 -0.366203994      -1.84103203     -0.606999993       1130.30396       1.59439027    
 -0.718334973      -1.73421395     -0.606999993       1918.90039       1.59701836    
 -0.994853973      -2.40179110     -0.517000020       1918.90039       1.59701836    
  -1.44430494      -2.16155505     -0.517000020       1918.90039       1.59701836    
  -1.04286098      -1.56075203     -0.606999993       1918.90039       1.59701836    
  -1.04286098      -1.56075203     -0.606999993       1842.37488       1.59351420    
 -0.758352995      -1.13495600     -0.606999993       1842.37488       1.59351420    
 -0.522363007      -1.26109600     -0.606999993       1842.37488       1.59351420    
 -0.718334973      -1.73421395     -0.606999993       1842.37488       1.59351420    
  -1.04286098      -1.56075203     -0.606999993       2588.08813       1.59639156    
  -1.44430494      -2.16155505     -0.517000020       2588.08813       1.59639156    
  -1.83825099      -1.83825099     -0.517000020       2588.08813       1.59639156    
  -1.32730997      -1.32730997     -0.606999993       2588.08813       1.59639156    
  -1.32730997      -1.32730997     -0.606999993       2487.96289       1.59296966    
 -0.965201020     -0.965201020     -0.606999993       2487.96289       1.59296966    
 -0.758352995      -1.13495600     -0.606999993       2487.96289       1.59296966    
  -1.04286098      -1.56075203     -0.606999993       2487.96289       1.59296966    
  -1.32730997      -1.32730997     -0.606999993       3166.68530       1.59600389    
  -1.83825099      -1.83825099     -0.517000020       3166.68530       1.59600389    
  -2.16155505      -1.44430494     -0.517000020       3166.68530       1.59600389    
  -1.56075203      -1.04286098     -0.606999993       3166.68530       1.59600389    
  -1.56075203      -1.04286098     -0.606999993       3042.68237       1.59260631    
  -1.13495600     -0.758352995     -0.606999993       3042.68237       1.59260631    
 -0.965201020     -0.965201020     -0.606999993       3042.68237       1.59260631    
  -1.32730997      -1.32730997     -0.606999993       3042.68237       1.59260631    
  -1.56075203      -1.04286098     -0.606999993       3624.17163       1.59572971    
  -2.16155505      -1.44430494     -0.517000020       3624.17163       1.59572971    
  -2.40179110     -0.994853973     -0.517000020       3624.17163       1.59572971    
  -1.73421395     -0.718334973     -0.606999993       3624.17163       1.59572971    
  -1.73421395     -0.718334973     -0.606999993       3481.09888       1.59235048    
  -1.26109600     -0.522363007     -0.606999993       3481.09888       1.59235048    
  -1.13495600     -0.758352995     -0.606999993       3481.09888       1.59235048    
  -1.56075203      -1.04286098     -0.606999993       3481.09888       1.59235048    
  -1.73421395     -0.718334973     -0.606999993       3933.05640       1.59558260    
  -2.40179110     -0.994853973     -0.517000020       3933.05640       1.59558260    
  -2.54972792     -0.507171988     -0.517000020       3933.05640       1.59558260    
  -1.84103203     -0.366203994     -0.606999993       3933.05640       1.59558260    
  -1.84103203     -0.366203994     -0.606999993       3781.85571       1.59217393    
  -1.33877206     -0.266297996     -0.606999993       3781.85571       1.59217393    
  -1.26109600     -0.522363007     -0.606999993       3781.85571       1.59217393    
  -1.73421395     -0.718334973     -0.606999993       3781.85571       1.59217393    
  -1.84103203     -0.366203994     -0.606999993       4085.49097       1.59542561    
  -2.54972792     -0.507171988     -0.517000020       4085.49097       1.59542561    
  -2.59967995       0.00000000     -0.517000020       4085.49097       1.59542561    
  -1.87709999       0.00000000     -0.606999993       4085.49097       1.59542561    
  -1.87709999       0.00000000     -0.606999993       3934.58081       1.59202027    
  -1.36500001       0.00000000     -0.606999993       3934.58081       1.59202027    
  -1.33877206     -0.266297996     -0.606999993       3934.58081       1.59202027    
  -1.84103203     -0.366203994     -0.606999993       3934.58081       1.59202027    
  -1.87709999       0.00000000     -0.606999993       4087.02246       1.59521246    
  -2.59967995       0.00000000     -0.517000020       4087.02246       1.59521246    
  -2.54972792      0.507171988     -0.517000020       4087.02246       1.59521246    
  -1.84103203      0.366203994     -0.606999993       4087.02246       1.59521246    
  -1.84103203      0.366203994     -0.606999993       3937.86377       1.59184206    
  -1.33877206      0.266297996     -0.606999993       3937.86377       1.59184206    
  -1.36500001       0.00000000     -0.606999993       3937.86377       1.59184206    
  -1.87709999       0.00000000     -0.606999993       3937.86377       1.59184206    
  -1.84103203      0.366203994     -0.606999993       3939.53638       1.59493899    
  -2.54972792      0.507171988     -0.517000020       3939.53638       1.59493899    
  -2.40179110      0.994853973     -0.517000020       3939.53638       1.59493899    
  -1.73421395      0.718334973     -0.606999993       3939.53638       1.59493899    
  -1.73421395      0.718334973     -0.606999993       3792.44092       1.59164536    
  -1.26109600      0.522363007     -0.606999993       3792.44092       1.59164536    
  -1.33877206      0.266297996     -0.606999993       3792.44092       1.59164536    
  -1.84103203      0.366203994     -0.606999993       3792.44092       1.59164536    
  -1.73421395      0.718334973     -0.606999993       3638.04858       1.59467065    
  -2.40179110      0.994853973     -0.517000020       3638.04858       1.59467065    
  -2.16155505       1.44430494     -0.517000020       3638.04858       1.59467065    
  -1.56075203       1.04286098     -0.606999993       3638.04858       1.59467065    
  -1.56075203       1.04286098     -0.606999993       3499.75000       1.59145701    
  -1.13495600      0.758352995     -0.606999993       3499.75000       1.59145701    
  -1.26109600      0.522363007     -0.606999993       3499.75000       1.59145701    
  -1.73421395      0.718334973     -0.606999993       3499.75000       1.59145701    
  -1.56075203       1.04286098     -0.606999993       3186.09766       1.59447885    
  -2.16155505       1.44430494     -0.517000020       3186.09766       1.59447885    
  -1.83825099       1.83825099     -0.517000020       3186.09766       1.59447885    
  -1.32730997       1.32730997     -0.606999993       3186.09766       1.59447885    
  -1.32730997       1.32730997     -0.606999993       3067.94800       1.59131002    
 -0.965201020      0.965201020     -0.606999993       3067.94800       1.59131002    
  -1.13495600      0.758352995     -0.606999993       3067.94800       1.59131002    
  -1.56075203       1.04286098     -0.606999993       3067.94800       1.59131002    
  -1.32730997       1.32730997     -0.606999993       2607.94141       1.59439993    
  -1.83825099       1.83825099     -0.517000020       2607.94141       1.59439993    
  -1.44430494       2.16155505     -0.517000020       2607.94141       1.59439993    
  -1.04286098       1.56075203     -0.606999993       2607.94141       1.59439993    
  -1.04286098       1.56075203     -0.606999993       2515.94141       1.59120297    
 -0.758352995       1.13495600     -0.606999993       2515.94141       1.59120297    
 -0.965201020      0.965201020     -0.606999993       2515.94141       1.59120297    
  -1.32730997       1.32730997     -0.606999993       2515.94141       1.59120297    
  -1.04286098       1.56075203     -0.606999993       1935.83899       1.59434295    
  -1.44430494       2.16155505     -0.517000020       1935.83899       1.59434295    
 -0.994853973       2.40179110     -0.517000020       1935.83899       1.59434295    
 -0.718334973       1.73421395     -0.606999993       1935.83899       1.59434295    
 -0.718334973       1.73421395     -0.606999993       1869.07312       1.59109831    
 -0.522363007       1.26109600     -0.606999993       1869.07312       1.59109831    
 -0.758352995       1.13495600     -0.606999993       1869.07312       1.59109831    
  -1.04286098       1.56075203     -0.606999993       1869.07312       1.59109831    
 -0.718334973       1.73421395     -0.606999993       1194.59338       1.59396279    
 -0.994853973       2.40179110     -0.517000020       1194.59338       1.59396279    
 -0.507171988       2.54972792     -0.517000020       1194.59338       1.59396279    
 -0.366203994       1.84103203     -0.606999993       1194.59338       1.59396279    
 -0.366203994       1.84103203     -0.606999993       1152.99451       1.59066272    
 -0.266297996       1.33877206     -0.606999993       1152.99451       1.59066272    
 -0.522363007       1.26109600     -0.606999993       1152.99451       1.59066272    
 -0.718334973       1.73421395     -0.606999993       1152.99451       1.59066272    
 -0.366203994       1.84103203     -0.606999993       406.478302       1.59045780    
 -0.507171988       2.54972792     -0.517000020       406.478302       1.59045780    
   0.00000000       2.59967995     -0.517000020       406.478302       1.59045780    
   0.00000000       1.87709999     -0.606999993       406.478302       1.59045780    
   0.00000000       1.87709999     -0.606999993       393.330139       1.58758116    
   0.00000000       1.36500001     -0.606999993       393.330139       1.58758116    
 -0.266297996       1.33877206     -0.606999993       393.330139       1.58758116    
 -0.366203994       1.84103203     -0.606999993       393.330139       1.58758116    
   0.00000000       1.87709999     -0.606999993       399.113678      -1.53949928    
   0.00000000       2.59967995     -0.517000020       399.113678      -1.53949928    
  0.507171988       2.54972792     -0.517000020       399.113678      -1.53949928    
  0.366203994       1.84103203     -0.606999993       399.113678      -1.53949928    
  0.366203994       1.84103203     -0.606999993       381.461914      -1.54384816    
  0.266297996       1.33877206     -0.606999993       381.461914      -1.54384816    
   0.00000000       1.36500001     -0.606999993       381.461914      -1.54384816    
   0.00000000       1.87709999     -0.606999993       381.461914      -1.54384816    
  0.366203994       1.84103203     -0.606999993       1187.60120      -1.54348791    
  0.507171988       2.54972792     -0.517000020       1187.60120      -1.54348791    
  0.994853973       2.40179110     -0.517000020       1187.60120      -1.54348791    
  0.718334973       1.73421395     -0.606999993       1187.60120      -1.54348791    
  0.718334973       1.73421395     -0.606999993       1141.31873      -1.54728007    
  0.522363007       1.26109600     -0.606999993       1141.31873      -1.54728007    
  0.266297996       1.33877206     -0.606999993       1141.31873      -1.54728007    
  0.366203994       1.84103203     -0.606999993       1141.31873      -1.54728007    
  0.718334973       1.73421395     -0.606999993       1929.46204      -1.54446757    
  0.994853973       2.40179110     -0.517000020       1929.46204      -1.54446757    
   1.44430494       2.16155505     -0.517000020       1929.46204      -1.54446757    
   1.04286098       1.56075203     -0.606999993       1929.46204      -1.54446757    
   1.04286098       1.56075203     -0.606999993       1858.17798      -1.54805934    
  0.758352995       1.13495600     -0.606999993       1858.17798      -1.54805934    
  0.522363007       1.26109600     -0.606999993       1858.17798      -1.54805934    
  0.718334973       1.73421395     -0.606999993       1858.17798      -1.54805934    
   1.04286098       1.56075203     -0.606999993       2602.24731      -1.54499471    
   1.44430494       2.16155505     -0.517000020       2602.24731      -1.54499471    
   1.83825099       1.83825099     -0.517000020       2602.24731      -1.54499471    
   1.32730997       1.32730997     -0.606999993       2602.24731      -1.54499471    
   1.32730997       1.32730997     -0.606999993       2505.89038      -1.54843485    
  0.965201020      0.965201020     -0.606999993       2505.89038      -1.54843485    
  0.758352995       1.13495600     -0.606999993       2505.89038      -1.54843485    
   1.04286098       1.56075203     -0.606999993       2505.89038      -1.54843485    
   1.32730997       1.32730997     -0.606999993       3180.89526      -1.54529083    
   1.83825099       1.83825099     -0.517000020       3180.89526      -1.54529083    
   2.16155505       1.44430494     -0.517000020       3180.89526      -1.54529083    
   1.56075203       1.04286098     -0.606999993       3180.89526      -1.54529083    
   1.56075203       1.04286098     -0.606999993       3058.75000      -1.54863262    
   1.13495600      0.758352995     -0.606999993       3058.75000      -1.54863262    
  0.965201020      0.965201020     -0.606999993       3058.75000      -1.54863262    
   1.32730997       1.32730997     -0.606999993       3058.75000      -1.54863262    
   1.56075203       1.04286098     -0.606999993       3632.97925      -1.54540801    
   2.16155505       1.44430494     -0.517000020       3632.97925      -1.54540801    
   2.40179110      0.994853973     -0.517000020       3632.97925      -1.54540801    
   1.73421395      0.718334973     -0.606999993       3632.97925      -1.54540801    
   1.73421395      0.718334973     -0.606999993       3491.07983      -1.54870903    
   1.26109600      0.522363007     -0.606999993       3491.07983      -1.54870903    
   1.13495600      0.758352995     -0.606999993       3491.07983      -1.54870903    
   1.56075203       1.04286098     -0.606999993       3491.07983      -1.54870903    
   1.73421395      0.718334973     -0.606999993       3934.35547      -1.54546762    
   2.40179110      0.994853973     -0.517000020       3934.35547      -1.54546762    
   2.54972792      0.507171988     -0.517000020       3934.35547      -1.54546762    
   1.84103203      0.366203994     -0.606999993       3934.35547      -1.54546762    
   1.84103203      0.366203994     -0.606999993       3784.34937      -1.54875207    
   1.33877206      0.266297996     -0.606999993       3784.34937      -1.54875207    
   1.26109600      0.522363007     -0.606999993       3784.34937      -1.54875207    
   1.73421395      0.718334973     -0.606999993       3784.34937      -1.54875207    
   1.84103203      0.366203994     -0.606999993       4081.91870      -1.54554307    
   2.54972792      0.507171988     -0.517000020       4081.91870      -1.54554307    
   2.59967995       0.00000000     -0.517000020       4081.91870      -1.54554307    
   1.87709999       0.00000000     -0.606999993       4081.91870      -1.54554307    
   1.87709999       0.00000000     -0.606999993       3930.80103      -1.54881990    
   1.36500001       0.00000000     -0.606999993       3930.80103      -1.54881990    
   1.33877206      0.266297996     -0.606999993       3930.80103      -1.54881990    
   1.84103203      0.366203994     -0.606999993       3930.80103      -1.54881990    
   1.87709999       0.00000000     -0.606999993       4080.94507      -1.54571593    
   2.59967995       0.00000000     -0.517000020       4080.94507      -1.54571593    
   2.54972792     -0.507171988     -0.517000020       4080.94507      -1.54571593    
   1.84103203     -0.366203994     -0.606999993       4080.94507      -1.54571593    
   1.84103203     -0.366203994     -0.606999993       3929.10840      -1.54893184    
   1.33877206     -0.266297996     -0.606999993       3929.10840      -1.54893184    
   1.36500001       0.00000000     -0.606999993       3929.10840      -1.54893184    
   1.87709999       0.00000000     -0.606999993       3929.10840      -1.54893184    
   1.84103203     -0.366203994     -0.606999993       3929.69385      -1.54597020    
   2.54972792     -0.507171988     -0.517000020       3929.69385      -1.54597020    
   2.40179110     -0.994853973     -0.517000020       3929.69385      -1.54597020    
   1.73421395     -0.718334973     -0.606999993       3929.69385      -1.54597020    
   1.73421395     -0.718334973     -0.606999993       3778.67920      -1.54909682    
   1.26109600     -0.522363007     -0.606999993       3778.67920      -1.54909682    
   1.33877206     -0.266297996     -0.606999993       3778.67920      -1.54909682    
   1.84103203     -0.366203994     -0.606999993       3778.67920      -1.54909682    
   1.73421395     -0.718334973     -0.606999993       3622.41870      -1.54621160    
   2.40179110     -0.994853973     -0.517000020       3622.41870      -1.54621160    
   2.16155505      -1.44430494     -0.517000020       3622.41870      -1.54621160    
   1.56075203      -1.04286098     -0.606999993       3622.41870      -1.54621160    
   1.56075203      -1.04286098     -0.606999993       3480.95557      -1.54927075    
   1.13495600     -0.758352995     -0.606999993       3480.95557      -1.54927075    
   1.26109600     -0.522363007     -0.606999993       3480.95557      -1.54927075    