 VARIABLES="X" "Y" "Z" "abs(p) (Pa)" "angle(p) (rad)"
ZONE N=   2709,E =    2358, F=FEPOINT, ET=QUADRILATERAL
   0.00000000      -5.48999977     -0.157000005       53.7717743      -1.57141721    
   0.00000000      -4.76741982     -0.246999994       53.7717743      -1.57141721    
  0.930077016      -4.67581606     -0.246999994       53.7717743      -1.57141721    
   1.07104599      -5.38451099     -0.157000005       53.7717743      -1.57141721    
  -1.07104599      -5.38451099     -0.157000005       51.6375999       1.57110929    
 -0.930077016      -4.67581606     -0.246999994       51.6375999       1.57110929    
   0.00000000      -4.76741982     -0.246999994       51.6375999       1.57110929    
   0.00000000      -5.48999977     -0.157000005       51.6375999       1.57110929    
  -2.10093188      -5.07209921     -0.157000005       153.698669       1.57079291    
  -1.82441294      -4.40452194     -0.246999994       153.698669       1.57079291    
 -0.930077016      -4.67581606     -0.246999994       153.698669       1.57079291    
  -1.07104599      -5.38451099     -0.157000005       153.698669       1.57079291    
  -3.05008101      -4.56476784     -0.157000005       246.278076       1.57073021    
  -2.64863706      -3.96396494     -0.246999994       246.278076       1.57073021    
  -1.82441294      -4.40452194     -0.246999994       246.278076       1.57073021    
  -2.10093188      -5.07209921     -0.157000005       246.278076       1.57073021    
  -3.88201594      -3.88201594     -0.157000005       329.402466       1.57070410    
  -3.37107491      -3.37107491     -0.246999994       329.402466       1.57070410    
  -2.64863706      -3.96396494     -0.246999994       329.402466       1.57070410    
  -3.05008101      -4.56476784     -0.157000005       329.402466       1.57070410    
  -4.56476784      -3.05008101     -0.157000005       402.022614       1.57069123    
  -3.96396494      -2.64863706     -0.246999994       402.022614       1.57069123    
  -3.37107491      -3.37107491     -0.246999994       402.022614       1.57069123    
  -3.88201594      -3.88201594     -0.157000005       402.022614       1.57069123    
  -5.07209921      -2.10093188     -0.157000005       459.932953       1.57068396    
  -4.40452194      -1.82441294     -0.246999994       459.932953       1.57068396    
  -3.96396494      -2.64863706     -0.246999994       459.932953       1.57068396    
  -4.56476784      -3.05008101     -0.157000005       459.932953       1.57068396    
  -5.38451099      -1.07104599     -0.157000005       501.184906       1.57068014    
  -4.67581606     -0.930077016     -0.246999994       501.184906       1.57068014    
  -4.40452194      -1.82441294     -0.246999994       501.184906       1.57068014    
  -5.07209921      -2.10093188     -0.157000005       501.184906       1.57068014    
  -5.48999977       0.00000000     -0.157000005       522.779785       1.57067907    
  -4.76741982       0.00000000     -0.246999994       522.779785       1.57067907    
  -4.67581606     -0.930077016     -0.246999994       522.779785       1.57067907    
  -5.38451099      -1.07104599     -0.157000005       522.779785       1.57067907    
  -5.38451099       1.07104599     -0.157000005       523.973206       1.57067943    
  -4.67581606      0.930077016     -0.246999994       523.973206       1.57067943    
  -4.76741982       0.00000000     -0.246999994       523.973206       1.57067943    
  -5.48999977       0.00000000     -0.157000005       523.973206       1.57067943    
  -5.07209921       2.10093188     -0.157000005       505.038391       1.57068205    
  -4.40452194       1.82441294     -0.246999994       505.038391       1.57068205    
  -4.67581606      0.930077016     -0.246999994       505.038391       1.57068205    
  -5.38451099       1.07104599     -0.157000005       505.038391       1.57068205    
  -4.56476784       3.05008101     -0.157000005       464.780945       1.57068622    
  -3.96396494       2.64863706     -0.246999994       464.780945       1.57068622    
  -4.40452194       1.82441294     -0.246999994       464.780945       1.57068622    
  -5.07209921       2.10093188     -0.157000005       464.780945       1.57068622    
  -3.88201594       3.88201594     -0.157000005       405.811371       1.57069421    
  -3.37107491       3.37107491     -0.246999994       405.811371       1.57069421    
  -3.96396494       2.64863706     -0.246999994       405.811371       1.57069421    
  -4.56476784       3.05008101     -0.157000005       405.811371       1.57069421    
  -3.05008101       4.56476784     -0.157000005       333.419403       1.57070839    
  -2.64863706       3.96396494     -0.246999994       333.419403       1.57070839    
  -3.37107491       3.37107491     -0.246999994       333.419403       1.57070839    
  -3.88201594       3.88201594     -0.157000005       333.419403       1.57070839    
  -2.10093188       5.07209921     -0.157000005       249.141830       1.57073545    
  -1.82441294       4.40452194     -0.246999994       249.141830       1.57073545    
  -2.64863706       3.96396494     -0.246999994       249.141830       1.57073545    
  -3.05008101       4.56476784     -0.157000005       249.141830       1.57073545    
  -1.07104599       5.38451099     -0.157000005       156.038513       1.57080114    
 -0.930077016       4.67581606     -0.246999994       156.038513       1.57080114    
  -1.82441294       4.40452194     -0.246999994       156.038513       1.57080114    
  -2.10093188       5.07209921     -0.157000005       156.038513       1.57080114    
   0.00000000       5.48999977     -0.157000005       54.1393318       1.57111967    
   0.00000000       4.76741982     -0.246999994       54.1393318       1.57111967    
 -0.930077016       4.67581606     -0.246999994       54.1393318       1.57111967    
  -1.07104599       5.38451099     -0.157000005       54.1393318       1.57111967    
   1.07104599       5.38451099     -0.157000005       51.3330956      -1.57147205    
  0.930077016       4.67581606     -0.246999994       51.3330956      -1.57147205    
   0.00000000       4.76741982     -0.246999994       51.3330956      -1.57147205    
   0.00000000       5.48999977     -0.157000005       51.3330956      -1.57147205    
   2.10093188       5.07209921     -0.157000005       153.050964      -1.57113242    
   1.82441294       4.40452194     -0.246999994       153.050964      -1.57113242    
  0.930077016       4.67581606     -0.246999994       153.050964      -1.57113242    
   1.07104599       5.38451099     -0.157000005       153.050964      -1.57113242    
   3.05008101       4.56476784     -0.157000005       246.501434      -1.57106900    
   2.64863706       3.96396494     -0.246999994       246.501434      -1.57106900    
   1.82441294       4.40452194     -0.246999994       246.501434      -1.57106900    
   2.10093188       5.07209921     -0.157000005       246.501434      -1.57106900    
   3.88201594       3.88201594     -0.157000005       331.271790      -1.57104111    
   3.37107491       3.37107491     -0.246999994       331.271790      -1.57104111    
   2.64863706       3.96396494     -0.246999994       331.271790      -1.57104111    
   3.05008101       4.56476784     -0.157000005       331.271790      -1.57104111    
   4.56476784       3.05008101     -0.157000005       404.322632      -1.57102668    
   3.96396494       2.64863706     -0.246999994       404.322632      -1.57102668    
   3.37107491       3.37107491     -0.246999994       404.322632      -1.57102668    
   3.88201594       3.88201594     -0.157000005       404.322632      -1.57102668    
   5.07209921       2.10093188     -0.157000005       463.307312      -1.57101774    
   4.40452194       1.82441294     -0.246999994       463.307312      -1.57101774    
   3.96396494       2.64863706     -0.246999994       463.307312      -1.57101774    
   4.56476784       3.05008101     -0.157000005       463.307312      -1.57101774    
   5.38451099       1.07104599     -0.157000005       503.132690      -1.57101309    
   4.67581606      0.930077016     -0.246999994       503.132690      -1.57101309    
   4.40452194       1.82441294     -0.246999994       503.132690      -1.57101309    
   5.07209921       2.10093188     -0.157000005       503.132690      -1.57101309    
   5.48999977       0.00000000     -0.157000005       522.356201      -1.57101142    
   4.76741982       0.00000000     -0.246999994       522.356201      -1.57101142    
   4.67581606      0.930077016     -0.246999994       522.356201      -1.57101142    
   5.38451099       1.07104599     -0.157000005       522.356201      -1.57101142    
   5.38451099      -1.07104599     -0.157000005       521.756042      -1.57101142    
   4.67581606     -0.930077016     -0.246999994       521.756042      -1.57101142    
   4.76741982       0.00000000     -0.246999994       521.756042      -1.57101142    
   5.48999977       0.00000000     -0.157000005       521.756042      -1.57101142    
   5.07209921      -2.10093188     -0.157000005       501.411926      -1.57101309    
   4.40452194      -1.82441294     -0.246999994       501.411926      -1.57101309    
   4.67581606     -0.930077016     -0.246999994       501.411926      -1.57101309    
   5.38451099      -1.07104599     -0.157000005       501.411926      -1.57101309    
   4.56476784      -3.05008101     -0.157000005       460.581970      -1.57101774    
   3.96396494      -2.64863706     -0.246999994       460.581970      -1.57101774    
   4.40452194      -1.82441294     -0.246999994       460.581970      -1.57101774    
   5.07209921      -2.10093188     -0.157000005       460.581970      -1.57101774    
   3.88201594      -3.88201594     -0.157000005       402.566193      -1.57102597    
   3.37107491      -3.37107491     -0.246999994       402.566193      -1.57102597    
   3.96396494      -2.64863706     -0.246999994       402.566193      -1.57102597    
   4.56476784      -3.05008101     -0.157000005       402.566193      -1.57102597    
   3.05008101      -4.56476784     -0.157000005       331.286407      -1.57103825    
   2.64863706      -3.96396494     -0.246999994       331.286407      -1.57103825    
   3.37107491      -3.37107491     -0.246999994       331.286407      -1.57103825    
   3.88201594      -3.88201594     -0.157000005       331.286407      -1.57103825    
   2.10093188      -5.07209921     -0.157000005       248.150787      -1.57106221    
   1.82441294      -4.40452194     -0.246999994       248.150787      -1.57106221    
   2.64863706      -3.96396494     -0.246999994       248.150787      -1.57106221    
   3.05008101      -4.56476784     -0.157000005       248.150787      -1.57106221    
   1.07104599      -5.38451099     -0.157000005       155.478317      -1.57111883    
  0.930077016      -4.67581606     -0.246999994       155.478317      -1.57111883    
   1.82441294      -4.40452194     -0.246999994       155.478317      -1.57111883    
   2.10093188      -5.07209921     -0.157000005       155.478317      -1.57111883    
   0.00000000      -1.87709999     -0.606999993       306.123566      -1.57088435    
   0.00000000      -1.36500001     -0.606999993       306.123566      -1.57088435    
  0.266297996      -1.33877206     -0.606999993       306.123566      -1.57088435    
  0.366203994      -1.84103203     -0.606999993       306.123566      -1.57088435    
   0.00000000      -1.87709999     -0.606999993       170.163422       1.57091749    
   0.00000000      -2.59967995     -0.517000020       170.163422       1.57091749    
 -0.507171988      -2.54972792     -0.517000020       170.163422       1.57091749    
 -0.366203994      -1.84103203     -0.606999993       170.163422       1.57091749    
 -0.366203994      -1.84103203     -0.606999993       259.947693       1.57088435    
 -0.266297996      -1.33877206     -0.606999993       259.947693       1.57088435    
   0.00000000      -1.36500001     -0.606999993       259.947693       1.57088435    
   0.00000000      -1.87709999     -0.606999993       259.947693       1.57088435    
 -0.366203994      -1.84103203     -0.606999993       522.321899       1.57082117    
 -0.507171988      -2.54972792     -0.517000020       522.321899       1.57082117    
 -0.994853973      -2.40179110     -0.517000020       522.321899       1.57082117    
 -0.718334973      -1.73421395     -0.606999993       522.321899       1.57082117    
 -0.718334973      -1.73421395     -0.606999993       811.470398       1.57081974    
 -0.522363007      -1.26109600     -0.606999993       811.470398       1.57081974    
 -0.266297996      -1.33877206     -0.606999993       811.470398       1.57081974    
 -0.366203994      -1.84103203     -0.606999993       811.470398       1.57081974    
 -0.718334973      -1.73421395     -0.606999993       835.311768       1.57080352    
 -0.994853973      -2.40179110     -0.517000020       835.311768       1.57080352    
  -1.44430494      -2.16155505     -0.517000020       835.311768       1.57080352    
  -1.04286098      -1.56075203     -0.606999993       835.311768       1.57080352    
  -1.04286098      -1.56075203     -0.606999993       1322.02271       1.57080793    
 -0.758352995      -1.13495600     -0.606999993       1322.02271       1.57080793    
 -0.522363007      -1.26109600     -0.606999993       1322.02271       1.57080793    
 -0.718334973      -1.73421395     -0.606999993       1322.02271       1.57080793    
  -1.04286098      -1.56075203     -0.606999993       1107.68811       1.57079625    
  -1.44430494      -2.16155505     -0.517000020       1107.68811       1.57079625    
  -1.83825099      -1.83825099     -0.517000020       1107.68811       1.57079625    
  -1.32730997      -1.32730997     -0.606999993       1107.68811       1.57079625    
  -1.32730997      -1.32730997     -0.606999993       1775.95850       1.57080317    
 -0.965201020     -0.965201020     -0.606999993       1775.95850       1.57080317    
 -0.758352995      -1.13495600     -0.606999993       1775.95850       1.57080317    
  -1.04286098      -1.56075203     -0.606999993       1775.95850       1.57080317    
  -1.32730997      -1.32730997     -0.606999993       1344.26404       1.57079244    
  -1.83825099      -1.83825099     -0.517000020       1344.26404       1.57079244    
  -2.16155505      -1.44430494     -0.517000020       1344.26404       1.57079244    
  -1.56075203      -1.04286098     -0.606999993       1344.26404       1.57079244    
  -1.56075203      -1.04286098     -0.606999993       2163.95020       1.57080078    
  -1.13495600     -0.758352995     -0.606999993       2163.95020       1.57080078    
 -0.965201020     -0.965201020     -0.606999993       2163.95020       1.57080078    
  -1.32730997      -1.32730997     -0.606999993       2163.95020       1.57080078    
  -1.56075203      -1.04286098     -0.606999993       1542.78455       1.57079017    
  -2.16155505      -1.44430494     -0.517000020       1542.78455       1.57079017    
  -2.40179110     -0.994853973     -0.517000020       1542.78455       1.57079017    
  -1.73421395     -0.718334973     -0.606999993       1542.78455       1.57079017    
  -1.73421395     -0.718334973     -0.606999993       2476.63477       1.57079935    
  -1.26109600     -0.522363007     -0.606999993       2476.63477       1.57079935    
  -1.13495600     -0.758352995     -0.606999993       2476.63477       1.57079935    
  -1.56075203      -1.04286098     -0.606999993       2476.63477       1.57079935    
  -1.73421395     -0.718334973     -0.606999993       1689.47107       1.57078886    
  -2.40179110     -0.994853973     -0.517000020       1689.47107       1.57078886    
  -2.54972792     -0.507171988     -0.517000020       1689.47107       1.57078886    
  -1.84103203     -0.366203994     -0.606999993       1689.47107       1.57078886    
  -1.84103203     -0.366203994     -0.606999993       2699.54150       1.57079852    
  -1.33877206     -0.266297996     -0.606999993       2699.54150       1.57079852    
  -1.26109600     -0.522363007     -0.606999993       2699.54150       1.57079852    
  -1.73421395     -0.718334973     -0.606999993       2699.54150       1.57079852    
  -1.84103203     -0.366203994     -0.606999993       1769.20203       1.57078826    
  -2.54972792     -0.507171988     -0.517000020       1769.20203       1.57078826    
  -2.59967995       0.00000000     -0.517000020       1769.20203       1.57078826    
  -1.87709999       0.00000000     -0.606999993       1769.20203       1.57078826    
  -1.87709999       0.00000000     -0.606999993       2818.26782       1.57079816    
  -1.36500001       0.00000000     -0.606999993       2818.26782       1.57079816    
  -1.33877206     -0.266297996     -0.606999993       2818.26782       1.57079816    
  -1.84103203     -0.366203994     -0.606999993       2818.26782       1.57079816    
  -1.87709999       0.00000000     -0.606999993       1773.12024       1.57078838    
  -2.59967995       0.00000000     -0.517000020       1773.12024       1.57078838    
  -2.54972792      0.507171988     -0.517000020       1773.12024       1.57078838    
  -1.84103203      0.366203994     -0.606999993       1773.12024       1.57078838    
  -1.84103203      0.366203994     -0.606999993       2823.72681       1.57079816    
  -1.33877206      0.266297996     -0.606999993       2823.72681       1.57079816    
  -1.36500001       0.00000000     -0.606999993       2823.72681       1.57079816    
  -1.87709999       0.00000000     -0.606999993       2823.72681       1.57079816    
  -1.84103203      0.366203994     -0.606999993       1700.27710       1.57078910    
  -2.54972792      0.507171988     -0.517000020       1700.27710       1.57078910    
  -2.40179110      0.994853973     -0.517000020       1700.27710       1.57078910    
  -1.73421395      0.718334973     -0.606999993       1700.27710       1.57078910    
  -1.73421395      0.718334973     -0.606999993       2715.13818       1.57079852    
  -1.26109600      0.522363007     -0.606999993       2715.13818       1.57079852    
  -1.33877206      0.266297996     -0.606999993       2715.13818       1.57079852    
  -1.84103203      0.366203994     -0.606999993       2715.13818       1.57079852    
  -1.73421395      0.718334973     -0.606999993       1557.85449       1.57079041    
  -2.40179110      0.994853973     -0.517000020       1557.85449       1.57079041    
  -2.16155505       1.44430494     -0.517000020       1557.85449       1.57079041    
  -1.56075203       1.04286098     -0.606999993       1557.85449       1.57079041    
  -1.56075203       1.04286098     -0.606999993       2500.57642       1.57079935    
  -1.13495600      0.758352995     -0.606999993       2500.57642       1.57079935    
  -1.26109600      0.522363007     -0.606999993       2500.57642       1.57079935    
  -1.73421395      0.718334973     -0.606999993       2500.57642       1.57079935    
  -1.56075203       1.04286098     -0.606999993       1360.88831       1.57079279    
  -2.16155505       1.44430494     -0.517000020       1360.88831       1.57079279    
  -1.83825099       1.83825099     -0.517000020       1360.88831       1.57079279    
  -1.32730997       1.32730997     -0.606999993       1360.88831       1.57079279    
  -1.32730997       1.32730997     -0.606999993       2193.99121       1.57080078    
 -0.965201020      0.965201020     -0.606999993       2193.99121       1.57080078    
  -1.13495600      0.758352995     -0.606999993       2193.99121       1.57080078    
  -1.56075203       1.04286098     -0.606999993       2193.99121       1.57080078    
  -1.32730997       1.32730997     -0.606999993       1125.04468       1.57079673    
  -1.83825099       1.83825099     -0.517000020       1125.04468       1.57079673    
  -1.44430494       2.16155505     -0.517000020       1125.04468       1.57079673    
  -1.04286098       1.56075203     -0.606999993       1125.04468       1.57079673    
  -1.04286098       1.56075203     -0.606999993       1810.37390       1.57080317    
 -0.758352995       1.13495600     -0.606999993       1810.37390       1.57080317    
 -0.965201020      0.965201020     -0.606999993       1810.37390       1.57080317    
  -1.32730997       1.32730997     -0.606999993       1810.37390       1.57080317    
  -1.04286098       1.56075203     -0.606999993       854.640503       1.57080412    
  -1.44430494       2.16155505     -0.517000020       854.640503       1.57080412    
 -0.994853973       2.40179110     -0.517000020       854.640503       1.57080412    
 -0.718334973       1.73421395     -0.606999993       854.640503       1.57080412    
 -0.718334973       1.73421395     -0.606999993       1360.52026       1.57080781    
 -0.522363007       1.26109600     -0.606999993       1360.52026       1.57080781    
 -0.758352995       1.13495600     -0.606999993       1360.52026       1.57080781    
  -1.04286098       1.56075203     -0.606999993       1360.52026       1.57080781    
 -0.718334973       1.73421395     -0.606999993       545.276001       1.57082129    
 -0.994853973       2.40179110     -0.517000020       545.276001       1.57082129    
 -0.507171988       2.54972792     -0.517000020       545.276001       1.57082129    
 -0.366203994       1.84103203     -0.606999993       545.276001       1.57082129    
 -0.366203994       1.84103203     -0.606999993       854.520752       1.57081878    
 -0.266297996       1.33877206     -0.606999993       854.520752       1.57081878    
 -0.522363007       1.26109600     -0.606999993       854.520752       1.57081878    
 -0.718334973       1.73421395     -0.606999993       854.520752       1.57081878    
 -0.366203994       1.84103203     -0.606999993       197.507645       1.57090366    
 -0.507171988       2.54972792     -0.517000020       197.507645       1.57090366    
   0.00000000       2.59967995     -0.517000020       197.507645       1.57090366    
   0.00000000       1.87709999     -0.606999993       197.507645       1.57090366    
   0.00000000       1.87709999     -0.606999993       307.193817       1.57087111    
   0.00000000       1.36500001     -0.606999993       307.193817       1.57087111    
 -0.266297996       1.33877206     -0.606999993       307.193817       1.57087111    
 -0.366203994       1.84103203     -0.606999993       307.193817       1.57087111    
   0.00000000       1.87709999     -0.606999993       166.848145      -1.57097113    
   0.00000000       2.59967995     -0.517000020       166.848145      -1.57097113    
  0.507171988       2.54972792     -0.517000020       166.848145      -1.57097113    
  0.366203994       1.84103203     -0.606999993       166.848145      -1.57097113    
  0.366203994       1.84103203     -0.606999993       256.098267      -1.57090247    
  0.266297996       1.33877206     -0.606999993       256.098267      -1.57090247    
   0.00000000       1.36500001     -0.606999993       256.098267      -1.57090247    
   0.00000000       1.87709999     -0.606999993       256.098267      -1.57090247    
  0.366203994       1.84103203     -0.606999993       515.972107      -1.57086766    
  0.507171988       2.54972792     -0.517000020       515.972107      -1.57086766    
  0.994853973       2.40179110     -0.517000020       515.972107      -1.57086766    
  0.718334973       1.73421395     -0.606999993       515.972107      -1.57086766    
  0.718334973       1.73421395     -0.606999993       805.542847      -1.57083476    
  0.522363007       1.26109600     -0.606999993       805.542847      -1.57083476    
  0.266297996       1.33877206     -0.606999993       805.542847      -1.57083476    
  0.366203994       1.84103203     -0.606999993       805.542847      -1.57083476    
  0.718334973       1.73421395     -0.606999993       827.758850      -1.57084906    
  0.994853973       2.40179110     -0.517000020       827.758850      -1.57084906    
   1.44430494       2.16155505     -0.517000020       827.758850      -1.57084906    
   1.04286098       1.56075203     -0.606999993       827.758850      -1.57084906    
   1.04286098       1.56075203     -0.606999993       1315.75269      -1.57082260    
  0.758352995       1.13495600     -0.606999993       1315.75269      -1.57082260    
  0.522363007       1.26109600     -0.606999993       1315.75269      -1.57082260    
  0.718334973       1.73421395     -0.606999993       1315.75269      -1.57082260    
   1.04286098       1.56075203     -0.606999993       1101.55310      -1.57084155    
   1.44430494       2.16155505     -0.517000020       1101.55310      -1.57084155    
   1.83825099       1.83825099     -0.517000020       1101.55310      -1.57084155    
   1.32730997       1.32730997     -0.606999993       1101.55310      -1.57084155    
   1.32730997       1.32730997     -0.606999993       1771.50989      -1.57081759    
  0.965201020      0.965201020     -0.606999993       1771.50989      -1.57081759    
  0.758352995       1.13495600     -0.606999993       1771.50989      -1.57081759    
   1.04286098       1.56075203     -0.606999993       1771.50989      -1.57081759    
   1.32730997       1.32730997     -0.606999993       1341.53979      -1.57083738    
   1.83825099       1.83825099     -0.517000020       1341.53979      -1.57083738    
   2.16155505       1.44430494     -0.517000020       1341.53979      -1.57083738    
   1.56075203       1.04286098     -0.606999993       1341.53979      -1.57083738    
   1.56075203       1.04286098     -0.606999993       2162.36084      -1.57081497    
   1.13495600      0.758352995     -0.606999993       2162.36084      -1.57081497    
  0.965201020      0.965201020     -0.606999993       2162.36084      -1.57081497    
   1.32730997       1.32730997     -0.606999993       2162.36084      -1.57081497    
   1.56075203       1.04286098     -0.606999993       1543.17480      -1.57083476    
   2.16155505       1.44430494     -0.517000020       1543.17480      -1.57083476    
   2.40179110      0.994853973     -0.517000020       1543.17480      -1.57083476    
   1.73421395      0.718334973     -0.606999993       1543.17480      -1.57083476    
   1.73421395      0.718334973     -0.606999993       2476.44360      -1.57081354    
   1.26109600      0.522363007     -0.606999993       2476.44360      -1.57081354    
   1.13495600      0.758352995     -0.606999993       2476.44360      -1.57081354    
   1.56075203       1.04286098     -0.606999993       2476.44360      -1.57081354    
   1.73421395      0.718334973     -0.606999993       1690.63855      -1.57083321    
   2.40179110      0.994853973     -0.517000020       1690.63855      -1.57083321    
   2.54972792      0.507171988     -0.517000020       1690.63855      -1.57083321    
   1.84103203      0.366203994     -0.606999993       1690.63855      -1.57083321    
   1.84103203      0.366203994     -0.606999993       2699.28760      -1.57081270    
   1.33877206      0.266297996     -0.606999993       2699.28760      -1.57081270    
   1.26109600      0.522363007     -0.606999993       2699.28760      -1.57081270    
   1.73421395      0.718334973     -0.606999993       2699.28760      -1.57081270    
   1.84103203      0.366203994     -0.606999993       1768.84497      -1.57083249    
   2.54972792      0.507171988     -0.517000020       1768.84497      -1.57083249    
   2.59967995       0.00000000     -0.517000020       1768.84497      -1.57083249    
   1.87709999       0.00000000     -0.606999993       1768.84497      -1.57083249    
   1.87709999       0.00000000     -0.606999993       2816.96777      -1.57081234    
   1.36500001       0.00000000     -0.606999993       2816.96777      -1.57081234    
   1.33877206      0.266297996     -0.606999993       2816.96777      -1.57081234    
   1.84103203      0.366203994     -0.606999993       2816.96777      -1.57081234    
   1.87709999       0.00000000     -0.606999993       1770.45703      -1.57083249    
   2.59967995       0.00000000     -0.517000020       1770.45703      -1.57083249    
   2.54972792     -0.507171988     -0.517000020       1770.45703      -1.57083249    
   1.84103203     -0.366203994     -0.606999993       1770.45703      -1.57083249    
   1.84103203     -0.366203994     -0.606999993       2820.79907      -1.57081223    
   1.33877206     -0.266297996     -0.606999993       2820.79907      -1.57081223    
   1.36500001       0.00000000     -0.606999993       2820.79907      -1.57081223    
   1.87709999       0.00000000     -0.606999993       2820.79907      -1.57081223    
   1.84103203     -0.366203994     -0.606999993       1696.20190      -1.57083297    
   2.54972792     -0.507171988     -0.517000020       1696.20190      -1.57083297    
   2.40179110     -0.994853973     -0.517000020       1696.20190      -1.57083297    
   1.73421395     -0.718334973     -0.606999993       1696.20190      -1.57083297    
   1.73421395     -0.718334973     -0.606999993       2711.39038      -1.57081258    
   1.26109600     -0.522363007     -0.606999993       2711.39038      -1.57081258    
   1.33877206     -0.266297996     -0.606999993       2711.39038      -1.57081258    
   1.84103203     -0.366203994     -0.606999993       2711.39038      -1.57081258    
   1.73421395     -0.718334973     -0.606999993       1554.68933      -1.57083428    
   2.40179110     -0.994853973     -0.517000020       1554.68933      -1.57083428    
   2.16155505      -1.44430494     -0.517000020       1554.68933      -1.57083428    
   1.56075203      -1.04286098     -0.606999993       1554.68933      -1.57083428    
   1.56075203      -1.04286098     -0.606999993       2497.64014      -1.57081330    
   1.13495600     -0.758352995     -0.606999993       2497.64014      -1.57081330    
   1.26109600     -0.522363007     -0.606999993       2497.64014      -1.57081330    