 VARIABLES="X" "Y" "Z" "abs(p) (Pa)" "angle(p) (rad)"
ZONE N=   2709,E =    2358, F=FEPOINT, ET=QUADRILATERAL
   0.00000000      -5.48999977     -0.157000005       381.643188      -1.55748260    
   0.00000000      -4.76741982     -0.246999994       381.643188      -1.55748260    
  0.930077016      -4.67581606     -0.246999994       381.643188      -1.55748260    
   1.07104599      -5.38451099     -0.157000005       381.643188      -1.55748260    
  -1.07104599      -5.38451099     -0.157000005       386.927948       1.58579338    
 -0.930077016      -4.67581606     -0.246999994       386.927948       1.58579338    
   0.00000000      -4.76741982     -0.246999994       386.927948       1.58579338    
   0.00000000      -5.48999977     -0.157000005       386.927948       1.58579338    
  -2.10093188      -5.07209921     -0.157000005       1165.37231       1.59473622    
  -1.82441294      -4.40452194     -0.246999994       1165.37231       1.59473622    
 -0.930077016      -4.67581606     -0.246999994       1165.37231       1.59473622    
  -1.07104599      -5.38451099     -0.157000005       1165.37231       1.59473622    
  -3.05008101      -4.56476784     -0.157000005       1864.05408       1.58757412    
  -2.64863706      -3.96396494     -0.246999994       1864.05408       1.58757412    
  -1.82441294      -4.40452194     -0.246999994       1864.05408       1.58757412    
  -2.10093188      -5.07209921     -0.157000005       1864.05408       1.58757412    
  -3.88201594      -3.88201594     -0.157000005       2508.47290       1.58870447    
  -3.37107491      -3.37107491     -0.246999994       2508.47290       1.58870447    
  -2.64863706      -3.96396494     -0.246999994       2508.47290       1.58870447    
  -3.05008101      -4.56476784     -0.157000005       2508.47290       1.58870447    
  -4.56476784      -3.05008101     -0.157000005       3083.80786       1.59047544    
  -3.96396494      -2.64863706     -0.246999994       3083.80786       1.59047544    
  -3.37107491      -3.37107491     -0.246999994       3083.80786       1.59047544    
  -3.88201594      -3.88201594     -0.157000005       3083.80786       1.59047544    
  -5.07209921      -2.10093188     -0.157000005       3487.44971       1.58831084    
  -4.40452194      -1.82441294     -0.246999994       3487.44971       1.58831084    
  -3.96396494      -2.64863706     -0.246999994       3487.44971       1.58831084    
  -4.56476784      -3.05008101     -0.157000005       3487.44971       1.58831084    
  -5.38451099      -1.07104599     -0.157000005       3780.91406       1.58769715    
  -4.67581606     -0.930077016     -0.246999994       3780.91406       1.58769715    
  -4.40452194      -1.82441294     -0.246999994       3780.91406       1.58769715    
  -5.07209921      -2.10093188     -0.157000005       3780.91406       1.58769715    
  -5.48999977       0.00000000     -0.157000005       3974.06714       1.59302592    
  -4.76741982       0.00000000     -0.246999994       3974.06714       1.59302592    
  -4.67581606     -0.930077016     -0.246999994       3974.06714       1.59302592    
  -5.38451099      -1.07104599     -0.157000005       3974.06714       1.59302592    
  -5.38451099       1.07104599     -0.157000005       3976.10791       1.59292638    
  -4.67581606      0.930077016     -0.246999994       3976.10791       1.59292638    
  -4.76741982       0.00000000     -0.246999994       3976.10791       1.59292638    
  -5.48999977       0.00000000     -0.157000005       3976.10791       1.59292638    
  -5.07209921       2.10093188     -0.157000005       3821.64990       1.59281683    
  -4.40452194       1.82441294     -0.246999994       3821.64990       1.59281683    
  -4.67581606      0.930077016     -0.246999994       3821.64990       1.59281683    
  -5.38451099       1.07104599     -0.157000005       3821.64990       1.59281683    
  -4.56476784       3.05008101     -0.157000005       3522.82251       1.59342647    
  -3.96396494       2.64863706     -0.246999994       3522.82251       1.59342647    
  -4.40452194       1.82441294     -0.246999994       3522.82251       1.59342647    
  -5.07209921       2.10093188     -0.157000005       3522.82251       1.59342647    
  -3.88201594       3.88201594     -0.157000005       3054.12598       1.58767676    
  -3.37107491       3.37107491     -0.246999994       3054.12598       1.58767676    
  -3.96396494       2.64863706     -0.246999994       3054.12598       1.58767676    
  -4.56476784       3.05008101     -0.157000005       3054.12598       1.58767676    
  -3.05008101       4.56476784     -0.157000005       2531.56860       1.59332514    
  -2.64863706       3.96396494     -0.246999994       2531.56860       1.59332514    
  -3.37107491       3.37107491     -0.246999994       2531.56860       1.59332514    
  -3.88201594       3.88201594     -0.157000005       2531.56860       1.59332514    
  -2.10093188       5.07209921     -0.157000005       1859.58044       1.58760941    
  -1.82441294       4.40452194     -0.246999994       1859.58044       1.58760941    
  -2.64863706       3.96396494     -0.246999994       1859.58044       1.58760941    
  -3.05008101       4.56476784     -0.157000005       1859.58044       1.58760941    
  -1.07104599       5.38451099     -0.157000005       1158.88708       1.59259796    
 -0.930077016       4.67581606     -0.246999994       1158.88708       1.59259796    
  -1.82441294       4.40452194     -0.246999994       1158.88708       1.59259796    
  -2.10093188       5.07209921     -0.157000005       1158.88708       1.59259796    
   0.00000000       5.48999977     -0.157000005       381.786469       1.58803451    
   0.00000000       4.76741982     -0.246999994       381.786469       1.58803451    
 -0.930077016       4.67581606     -0.246999994       381.786469       1.58803451    
  -1.07104599       5.38451099     -0.157000005       381.786469       1.58803451    
   1.07104599       5.38451099     -0.157000005       390.291351      -1.54699457    
  0.930077016       4.67581606     -0.246999994       390.291351      -1.54699457    
   0.00000000       4.76741982     -0.246999994       390.291351      -1.54699457    
   0.00000000       5.48999977     -0.157000005       390.291351      -1.54699457    
   2.10093188       5.07209921     -0.157000005       1153.22852      -1.55255401    
   1.82441294       4.40452194     -0.246999994       1153.22852      -1.55255401    
  0.930077016       4.67581606     -0.246999994       1153.22852      -1.55255401    
   1.07104599       5.38451099     -0.157000005       1153.22852      -1.55255401    
   3.05008101       4.56476784     -0.157000005       1862.01880      -1.55457854    
   2.64863706       3.96396494     -0.246999994       1862.01880      -1.55457854    
   1.82441294       4.40452194     -0.246999994       1862.01880      -1.55457854    
   2.10093188       5.07209921     -0.157000005       1862.01880      -1.55457854    
   3.88201594       3.88201594     -0.157000005       2538.09741      -1.54697347    
   3.37107491       3.37107491     -0.246999994       2538.09741      -1.54697347    
   2.64863706       3.96396494     -0.246999994       2538.09741      -1.54697347    
   3.05008101       4.56476784     -0.157000005       2538.09741      -1.54697347    
   4.56476784       3.05008101     -0.157000005       3073.91284      -1.55393469    
   3.96396494       2.64863706     -0.246999994       3073.91284      -1.55393469    
   3.37107491       3.37107491     -0.246999994       3073.91284      -1.55393469    
   3.88201594       3.88201594     -0.157000005       3073.91284      -1.55393469    
   5.07209921       2.10093188     -0.157000005       3523.91821      -1.54773366    
   4.40452194       1.82441294     -0.246999994       3523.91821      -1.54773366    
   3.96396494       2.64863706     -0.246999994       3523.91821      -1.54773366    
   4.56476784       3.05008101     -0.157000005       3523.91821      -1.54773366    
   5.38451099       1.07104599     -0.157000005       3781.18115      -1.55412984    
   4.67581606      0.930077016     -0.246999994       3781.18115      -1.55412984    
   4.40452194       1.82441294     -0.246999994       3781.18115      -1.55412984    
   5.07209921       2.10093188     -0.157000005       3781.18115      -1.55412984    
   5.48999977       0.00000000     -0.157000005       3933.75952      -1.55318797    
   4.76741982       0.00000000     -0.246999994       3933.75952      -1.55318797    
   4.67581606      0.930077016     -0.246999994       3933.75952      -1.55318797    
   5.38451099       1.07104599     -0.157000005       3933.75952      -1.55318797    
   5.38451099      -1.07104599     -0.157000005       3929.10181      -1.55384111    
   4.67581606     -0.930077016     -0.246999994       3929.10181      -1.55384111    
   4.76741982       0.00000000     -0.246999994       3929.10181      -1.55384111    
   5.48999977       0.00000000     -0.157000005       3929.10181      -1.55384111    
   5.07209921      -2.10093188     -0.157000005       3780.39868      -1.55376875    
   4.40452194      -1.82441294     -0.246999994       3780.39868      -1.55376875    
   4.67581606     -0.930077016     -0.246999994       3780.39868      -1.55376875    
   5.38451099      -1.07104599     -0.157000005       3780.39868      -1.55376875    
   4.56476784      -3.05008101     -0.157000005       3482.44189      -1.55338097    
   3.96396494      -2.64863706     -0.246999994       3482.44189      -1.55338097    
   4.40452194      -1.82441294     -0.246999994       3482.44189      -1.55338097    
   5.07209921      -2.10093188     -0.157000005       3482.44189      -1.55338097    
   3.88201594      -3.88201594     -0.157000005       3051.66357      -1.55433154    
   3.37107491      -3.37107491     -0.246999994       3051.66357      -1.55433154    
   3.96396494      -2.64863706     -0.246999994       3051.66357      -1.55433154    
   4.56476784      -3.05008101     -0.157000005       3051.66357      -1.55433154    
   3.05008101      -4.56476784     -0.157000005       2530.54053      -1.54817736    
   2.64863706      -3.96396494     -0.246999994       2530.54053      -1.54817736    
   3.37107491      -3.37107491     -0.246999994       2530.54053      -1.54817736    
   3.88201594      -3.88201594     -0.157000005       2530.54053      -1.54817736    
   2.10093188      -5.07209921     -0.157000005       1859.47668      -1.55436003    
   1.82441294      -4.40452194     -0.246999994       1859.47668      -1.55436003    
   2.64863706      -3.96396494     -0.246999994       1859.47668      -1.55436003    
   3.05008101      -4.56476784     -0.157000005       1859.47668      -1.55436003    
   1.07104599      -5.38451099     -0.157000005       1147.44275      -1.55278945    
  0.930077016      -4.67581606     -0.246999994       1147.44275      -1.55278945    
   1.82441294      -4.40452194     -0.246999994       1147.44275      -1.55278945    
   2.10093188      -5.07209921     -0.157000005       1147.44275      -1.55278945    
   0.00000000      -1.87709999     -0.606999993       72.8895264      -1.56975520    
   0.00000000      -1.36500001     -0.606999993       72.8895264      -1.56975520    
  0.266297996      -1.33877206     -0.606999993       72.8895264      -1.56975520    
  0.366203994      -1.84103203     -0.606999993       72.8895264      -1.56975520    
   0.00000000      -1.87709999     -0.606999993       84.7715759      -1.57117355    
   0.00000000      -2.59967995     -0.517000020       84.7715759      -1.57117355    
 -0.507171988      -2.54972792     -0.517000020       84.7715759      -1.57117355    
 -0.366203994      -1.84103203     -0.606999993       84.7715759      -1.57117355    
 -0.366203994      -1.84103203     -0.606999993       74.5244751       1.57279038    
 -0.266297996      -1.33877206     -0.606999993       74.5244751       1.57279038    
   0.00000000      -1.36500001     -0.606999993       74.5244751       1.57279038    
   0.00000000      -1.87709999     -0.606999993       74.5244751       1.57279038    
 -0.366203994      -1.84103203     -0.606999993       248.720078      -1.57113969    
 -0.507171988      -2.54972792     -0.517000020       248.720078      -1.57113969    
 -0.994853973      -2.40179110     -0.517000020       248.720078      -1.57113969    
 -0.718334973      -1.73421395     -0.606999993       248.720078      -1.57113969    
 -0.718334973      -1.73421395     -0.606999993       219.526337       1.57231438    
 -0.522363007      -1.26109600     -0.606999993       219.526337       1.57231438    
 -0.266297996      -1.33877206     -0.606999993       219.526337       1.57231438    
 -0.366203994      -1.84103203     -0.606999993       219.526337       1.57231438    
 -0.718334973      -1.73421395     -0.606999993       404.100403      -1.57113326    
 -0.994853973      -2.40179110     -0.517000020       404.100403      -1.57113326    
  -1.44430494      -2.16155505     -0.517000020       404.100403      -1.57113326    
  -1.04286098      -1.56075203     -0.606999993       404.100403      -1.57113326    
  -1.04286098      -1.56075203     -0.606999993       355.532318       1.57238626    
 -0.758352995      -1.13495600     -0.606999993       355.532318       1.57238626    
 -0.522363007      -1.26109600     -0.606999993       355.532318       1.57238626    
 -0.718334973      -1.73421395     -0.606999993       355.532318       1.57238626    
  -1.04286098      -1.56075203     -0.606999993       545.017883      -1.57111931    
  -1.44430494      -2.16155505     -0.517000020       545.017883      -1.57111931    
  -1.83825099      -1.83825099     -0.517000020       545.017883      -1.57111931    
  -1.32730997      -1.32730997     -0.606999993       545.017883      -1.57111931    
  -1.32730997      -1.32730997     -0.606999993       476.496063       1.57237828    
 -0.965201020     -0.965201020     -0.606999993       476.496063       1.57237828    
 -0.758352995      -1.13495600     -0.606999993       476.496063       1.57237828    
  -1.04286098      -1.56075203     -0.606999993       476.496063       1.57237828    
  -1.32730997      -1.32730997     -0.606999993       665.593445      -1.57109177    
  -1.83825099      -1.83825099     -0.517000020       665.593445      -1.57109177    
  -2.16155505      -1.44430494     -0.517000020       665.593445      -1.57109177    
  -1.56075203      -1.04286098     -0.606999993       665.593445      -1.57109177    
  -1.56075203      -1.04286098     -0.606999993       577.723206       1.57238817    
  -1.13495600     -0.758352995     -0.606999993       577.723206       1.57238817    
 -0.965201020     -0.965201020     -0.606999993       577.723206       1.57238817    
  -1.32730997      -1.32730997     -0.606999993       577.723206       1.57238817    
  -1.56075203      -1.04286098     -0.606999993       760.409668      -1.57107556    
  -2.16155505      -1.44430494     -0.517000020       760.409668      -1.57107556    
  -2.40179110     -0.994853973     -0.517000020       760.409668      -1.57107556    
  -1.73421395     -0.718334973     -0.606999993       760.409668      -1.57107556    
  -1.73421395     -0.718334973     -0.606999993       655.906433       1.57241058    
  -1.26109600     -0.522363007     -0.606999993       655.906433       1.57241058    
  -1.13495600     -0.758352995     -0.606999993       655.906433       1.57241058    
  -1.56075203      -1.04286098     -0.606999993       655.906433       1.57241058    
  -1.73421395     -0.718334973     -0.606999993       825.478699      -1.57106268    
  -2.40179110     -0.994853973     -0.517000020       825.478699      -1.57106268    
  -2.54972792     -0.507171988     -0.517000020       825.478699      -1.57106268    
  -1.84103203     -0.366203994     -0.606999993       825.478699      -1.57106268    
  -1.84103203     -0.366203994     -0.606999993       708.687744       1.57243729    
  -1.33877206     -0.266297996     -0.606999993       708.687744       1.57243729    
  -1.26109600     -0.522363007     -0.606999993       708.687744       1.57243729    
  -1.73421395     -0.718334973     -0.606999993       708.687744       1.57243729    
  -1.84103203     -0.366203994     -0.606999993       858.807983      -1.57107592    
  -2.54972792     -0.507171988     -0.517000020       858.807983      -1.57107592    
  -2.59967995       0.00000000     -0.517000020       858.807983      -1.57107592    
  -1.87709999       0.00000000     -0.606999993       858.807983      -1.57107592    
  -1.87709999       0.00000000     -0.606999993       734.089417       1.57247102    
  -1.36500001       0.00000000     -0.606999993       734.089417       1.57247102    
  -1.33877206     -0.266297996     -0.606999993       734.089417       1.57247102    
  -1.84103203     -0.366203994     -0.606999993       734.089417       1.57247102    
  -1.87709999       0.00000000     -0.606999993       859.843750      -1.57106876    
  -2.59967995       0.00000000     -0.517000020       859.843750      -1.57106876    
  -2.54972792      0.507171988     -0.517000020       859.843750      -1.57106876    
  -1.84103203      0.366203994     -0.606999993       859.843750      -1.57106876    
  -1.84103203      0.366203994     -0.606999993       731.091125       1.57248569    
  -1.33877206      0.266297996     -0.606999993       731.091125       1.57248569    
  -1.36500001       0.00000000     -0.606999993       731.091125       1.57248569    
  -1.87709999       0.00000000     -0.606999993       731.091125       1.57248569    
  -1.84103203      0.366203994     -0.606999993       828.440247      -1.57104373    
  -2.54972792      0.507171988     -0.517000020       828.440247      -1.57104373    
  -2.40179110      0.994853973     -0.517000020       828.440247      -1.57104373    
  -1.73421395      0.718334973     -0.606999993       828.440247      -1.57104373    
  -1.73421395      0.718334973     -0.606999993       700.249451       1.57249343    
  -1.26109600      0.522363007     -0.606999993       700.249451       1.57249343    
  -1.33877206      0.266297996     -0.606999993       700.249451       1.57249343    
  -1.84103203      0.366203994     -0.606999993       700.249451       1.57249343    
  -1.73421395      0.718334973     -0.606999993       764.798096      -1.57102370    
  -2.40179110      0.994853973     -0.517000020       764.798096      -1.57102370    
  -2.16155505       1.44430494     -0.517000020       764.798096      -1.57102370    
  -1.56075203       1.04286098     -0.606999993       764.798096      -1.57102370    
  -1.56075203       1.04286098     -0.606999993       643.665710       1.57248366    
  -1.13495600      0.758352995     -0.606999993       643.665710       1.57248366    
  -1.26109600      0.522363007     -0.606999993       643.665710       1.57248366    
  -1.73421395      0.718334973     -0.606999993       643.665710       1.57248366    
  -1.56075203       1.04286098     -0.606999993       670.285339      -1.57100928    
  -2.16155505       1.44430494     -0.517000020       670.285339      -1.57100928    
  -1.83825099       1.83825099     -0.517000020       670.285339      -1.57100928    
  -1.32730997       1.32730997     -0.606999993       670.285339      -1.57100928    
  -1.32730997       1.32730997     -0.606999993       564.153320       1.57247281    
 -0.965201020      0.965201020     -0.606999993       564.153320       1.57247281    
  -1.13495600      0.758352995     -0.606999993       564.153320       1.57247281    
  -1.56075203       1.04286098     -0.606999993       564.153320       1.57247281    
  -1.32730997       1.32730997     -0.606999993       548.594910      -1.57101464    
  -1.83825099       1.83825099     -0.517000020       548.594910      -1.57101464    
  -1.44430494       2.16155505     -0.517000020       548.594910      -1.57101464    
  -1.04286098       1.56075203     -0.606999993       548.594910      -1.57101464    
  -1.04286098       1.56075203     -0.606999993       464.383240       1.57243776    
 -0.758352995       1.13495600     -0.606999993       464.383240       1.57243776    
 -0.965201020      0.965201020     -0.606999993       464.383240       1.57243776    
  -1.32730997       1.32730997     -0.606999993       464.383240       1.57243776    
  -1.04286098       1.56075203     -0.606999993       405.590546      -1.57101488    
  -1.44430494       2.16155505     -0.517000020       405.590546      -1.57101488    
 -0.994853973       2.40179110     -0.517000020       405.590546      -1.57101488    
 -0.718334973       1.73421395     -0.606999993       405.590546      -1.57101488    
 -0.718334973       1.73421395     -0.606999993       346.909241       1.57240403    
 -0.522363007       1.26109600     -0.606999993       346.909241       1.57240403    
 -0.758352995       1.13495600     -0.606999993       346.909241       1.57240403    
  -1.04286098       1.56075203     -0.606999993       346.909241       1.57240403    
 -0.718334973       1.73421395     -0.606999993       248.008224      -1.57097471    
 -0.994853973       2.40179110     -0.517000020       248.008224      -1.57097471    
 -0.507171988       2.54972792     -0.517000020       248.008224      -1.57097471    
 -0.366203994       1.84103203     -0.606999993       248.008224      -1.57097471    
 -0.366203994       1.84103203     -0.606999993       214.850052       1.57235312    
 -0.266297996       1.33877206     -0.606999993       214.850052       1.57235312    
 -0.522363007       1.26109600     -0.606999993       214.850052       1.57235312    
 -0.718334973       1.73421395     -0.606999993       214.850052       1.57235312    
 -0.366203994       1.84103203     -0.606999993       82.5367889      -1.57087028    
 -0.507171988       2.54972792     -0.517000020       82.5367889      -1.57087028    
   0.00000000       2.59967995     -0.517000020       82.5367889      -1.57087028    
   0.00000000       1.87709999     -0.606999993       82.5367889      -1.57087028    
   0.00000000       1.87709999     -0.606999993       72.5579605       1.57226336    
   0.00000000       1.36500001     -0.606999993       72.5579605       1.57226336    
 -0.266297996       1.33877206     -0.606999993       72.5579605       1.57226336    
 -0.366203994       1.84103203     -0.606999993       72.5579605       1.57226336    
   0.00000000       1.87709999     -0.606999993       84.9736099       1.57032716    
   0.00000000       2.59967995     -0.517000020       84.9736099       1.57032716    
  0.507171988       2.54972792     -0.517000020       84.9736099       1.57032716    
  0.366203994       1.84103203     -0.606999993       84.9736099       1.57032716    
  0.366203994       1.84103203     -0.606999993       74.1203079      -1.56951654    
  0.266297996       1.33877206     -0.606999993       74.1203079      -1.56951654    
   0.00000000       1.36500001     -0.606999993       74.1203079      -1.56951654    
   0.00000000       1.87709999     -0.606999993       74.1203079      -1.56951654    
  0.366203994       1.84103203     -0.606999993       249.204651       1.57047844    
  0.507171988       2.54972792     -0.517000020       249.204651       1.57047844    
  0.994853973       2.40179110     -0.517000020       249.204651       1.57047844    
  0.718334973       1.73421395     -0.606999993       249.204651       1.57047844    
  0.718334973       1.73421395     -0.606999993       218.649948      -1.56955397    
  0.522363007       1.26109600     -0.606999993       218.649948      -1.56955397    
  0.266297996       1.33877206     -0.606999993       218.649948      -1.56955397    
  0.366203994       1.84103203     -0.606999993       218.649948      -1.56955397    
  0.718334973       1.73421395     -0.606999993       404.651031       1.57046962    
  0.994853973       2.40179110     -0.517000020       404.651031       1.57046962    
   1.44430494       2.16155505     -0.517000020       404.651031       1.57046962    
   1.04286098       1.56075203     -0.606999993       404.651031       1.57046962    
   1.04286098       1.56075203     -0.606999993       354.692993      -1.56937277    
  0.758352995       1.13495600     -0.606999993       354.692993      -1.56937277    
  0.522363007       1.26109600     -0.606999993       354.692993      -1.56937277    
  0.718334973       1.73421395     -0.606999993       354.692993      -1.56937277    
   1.04286098       1.56075203     -0.606999993       545.304504       1.57047272    
   1.44430494       2.16155505     -0.517000020       545.304504       1.57047272    
   1.83825099       1.83825099     -0.517000020       545.304504       1.57047272    
   1.32730997       1.32730997     -0.606999993       545.304504       1.57047272    
   1.32730997       1.32730997     -0.606999993       476.406311      -1.56932795    
  0.965201020      0.965201020     -0.606999993       476.406311      -1.56932795    
  0.758352995       1.13495600     -0.606999993       476.406311      -1.56932795    
   1.04286098       1.56075203     -0.606999993       476.406311      -1.56932795    
   1.32730997       1.32730997     -0.606999993       665.328979       1.57046342    
   1.83825099       1.83825099     -0.517000020       665.328979       1.57046342    
   2.16155505       1.44430494     -0.517000020       665.328979       1.57046342    
   1.56075203       1.04286098     -0.606999993       665.328979       1.57046342    
   1.56075203       1.04286098     -0.606999993       579.023926      -1.56927466    
   1.13495600      0.758352995     -0.606999993       579.023926      -1.56927466    
  0.965201020      0.965201020     -0.606999993       579.023926      -1.56927466    
   1.32730997       1.32730997     -0.606999993       579.023926      -1.56927466    
   1.56075203       1.04286098     -0.606999993       759.679810       1.57044590    
   2.16155505       1.44430494     -0.517000020       759.679810       1.57044590    
   2.40179110      0.994853973     -0.517000020       759.679810       1.57044590    
   1.73421395      0.718334973     -0.606999993       759.679810       1.57044590    
   1.73421395      0.718334973     -0.606999993       657.763550      -1.56921005    
   1.26109600      0.522363007     -0.606999993       657.763550      -1.56921005    
   1.13495600      0.758352995     -0.606999993       657.763550      -1.56921005    
   1.56075203       1.04286098     -0.606999993       657.763550      -1.56921005    
   1.73421395      0.718334973     -0.606999993       824.748901       1.57042038    
   2.40179110      0.994853973     -0.517000020       824.748901       1.57042038    
   2.54972792      0.507171988     -0.517000020       824.748901       1.57042038    
   1.84103203      0.366203994     -0.606999993       824.748901       1.57042038    
   1.84103203      0.366203994     -0.606999993       709.753723      -1.56913733    
   1.33877206      0.266297996     -0.606999993       709.753723      -1.56913733    
   1.26109600      0.522363007     -0.606999993       709.753723      -1.56913733    
   1.73421395      0.718334973     -0.606999993       709.753723      -1.56913733    
   1.84103203      0.366203994     -0.606999993       858.526978       1.57037437    
   2.54972792      0.507171988     -0.517000020       858.526978       1.57037437    
   2.59967995       0.00000000     -0.517000020       858.526978       1.57037437    
   1.87709999       0.00000000     -0.606999993       858.526978       1.57037437    
   1.87709999       0.00000000     -0.606999993       734.126343      -1.56905973    
   1.36500001       0.00000000     -0.606999993       734.126343      -1.56905973    
   1.33877206      0.266297996     -0.606999993       734.126343      -1.56905973    
   1.84103203      0.366203994     -0.606999993       734.126343      -1.56905973    
   1.87709999       0.00000000     -0.606999993       860.069153       1.57033157    
   2.59967995       0.00000000     -0.517000020       860.069153       1.57033157    
   2.54972792     -0.507171988     -0.517000020       860.069153       1.57033157    
   1.84103203     -0.366203994     -0.606999993       860.069153       1.57033157    
   1.84103203     -0.366203994     -0.606999993       730.418152      -1.56899989    
   1.33877206     -0.266297996     -0.606999993       730.418152      -1.56899989    
   1.36500001       0.00000000     -0.606999993       730.418152      -1.56899989    
   1.87709999       0.00000000     -0.606999993       730.418152      -1.56899989    
   1.84103203     -0.366203994     -0.606999993       828.742920       1.57033122    
   2.54972792     -0.507171988     -0.517000020       828.742920       1.57033122    
   2.40179110     -0.994853973     -0.517000020       828.742920       1.57033122    
   1.73421395     -0.718334973     -0.606999993       828.742920       1.57033122    
   1.73421395     -0.718334973     -0.606999993       699.483276      -1.56896651    
   1.26109600     -0.522363007     -0.606999993       699.483276      -1.56896651    
   1.33877206     -0.266297996     -0.606999993       699.483276      -1.56896651    
   1.84103203     -0.366203994     -0.606999993       699.483276      -1.56896651    
   1.73421395     -0.718334973     -0.606999993       764.685425       1.57033873    
   2.40179110     -0.994853973     -0.517000020       764.685425       1.57033873    
   2.16155505      -1.44430494     -0.517000020       764.685425       1.57033873    
   1.56075203      -1.04286098     -0.606999993       764.685425       1.57033873    
   1.56075203      -1.04286098     -0.606999993       643.427246      -1.56895685    
   1.13495600     -0.758352995     -0.606999993       643.427246      -1.56895685    
   1.26109600     -0.522363007     -0.606999993       643.427246      -1.56895685    