 VARIABLES="X" "Y" "Z" "abs(p) (Pa)" "angle(p) (rad)"
ZONE N=   2709,E =    2358, F=FEPOINT, ET=QUADRILATERAL
   0.00000000      -5.48999977     -0.157000005       421.755920      -1.57206726    
   0.00000000      -4.76741982     -0.246999994       421.755920      -1.57206726    
  0.930077016      -4.67581606     -0.246999994       421.755920      -1.57206726    
   1.07104599      -5.38451099     -0.157000005       421.755920      -1.57206726    
  -1.07104599      -5.38451099     -0.157000005       421.893524      -1.57309997    
 -0.930077016      -4.67581606     -0.246999994       421.893524      -1.57309997    
   0.00000000      -4.76741982     -0.246999994       421.893524      -1.57309997    
   0.00000000      -5.48999977     -0.157000005       421.893524      -1.57309997    
  -2.10093188      -5.07209921     -0.157000005       417.563904      -1.57329524    
  -1.82441294      -4.40452194     -0.246999994       417.563904      -1.57329524    
 -0.930077016      -4.67581606     -0.246999994       417.563904      -1.57329524    
  -1.07104599      -5.38451099     -0.157000005       417.563904      -1.57329524    
  -3.05008101      -4.56476784     -0.157000005       369.565826      -1.57346201    
  -2.64863706      -3.96396494     -0.246999994       369.565826      -1.57346201    
  -1.82441294      -4.40452194     -0.246999994       369.565826      -1.57346201    
  -2.10093188      -5.07209921     -0.157000005       369.565826      -1.57346201    
  -3.88201594      -3.88201594     -0.157000005       329.935822      -1.57286358    
  -3.37107491      -3.37107491     -0.246999994       329.935822      -1.57286358    
  -2.64863706      -3.96396494     -0.246999994       329.935822      -1.57286358    
  -3.05008101      -4.56476784     -0.157000005       329.935822      -1.57286358    
  -4.56476784      -3.05008101     -0.157000005       285.739075      -1.57171988    
  -3.96396494      -2.64863706     -0.246999994       285.739075      -1.57171988    
  -3.37107491      -3.37107491     -0.246999994       285.739075      -1.57171988    
  -3.88201594      -3.88201594     -0.157000005       285.739075      -1.57171988    
  -5.07209921      -2.10093188     -0.157000005       204.820297      -1.57186103    
  -4.40452194      -1.82441294     -0.246999994       204.820297      -1.57186103    
  -3.96396494      -2.64863706     -0.246999994       204.820297      -1.57186103    
  -4.56476784      -3.05008101     -0.157000005       204.820297      -1.57186103    
  -5.38451099      -1.07104599     -0.157000005       122.037277      -1.57952273    
  -4.67581606     -0.930077016     -0.246999994       122.037277      -1.57952273    
  -4.40452194      -1.82441294     -0.246999994       122.037277      -1.57952273    
  -5.07209921      -2.10093188     -0.157000005       122.037277      -1.57952273    
  -5.48999977       0.00000000     -0.157000005       41.0385513      -1.59037995    
  -4.76741982       0.00000000     -0.246999994       41.0385513      -1.59037995    
  -4.67581606     -0.930077016     -0.246999994       41.0385513      -1.59037995    
  -5.38451099      -1.07104599     -0.157000005       41.0385513      -1.59037995    
  -5.38451099       1.07104599     -0.157000005       41.5481529       1.55284917    
  -4.67581606      0.930077016     -0.246999994       41.5481529       1.55284917    
  -4.76741982       0.00000000     -0.246999994       41.5481529       1.55284917    
  -5.48999977       0.00000000     -0.157000005       41.5481529       1.55284917    
  -5.07209921       2.10093188     -0.157000005       126.066696       1.55976474    
  -4.40452194       1.82441294     -0.246999994       126.066696       1.55976474    
  -4.67581606      0.930077016     -0.246999994       126.066696       1.55976474    
  -5.38451099       1.07104599     -0.157000005       126.066696       1.55976474    
  -4.56476784       3.05008101     -0.157000005       211.770355       1.56776917    
  -3.96396494       2.64863706     -0.246999994       211.770355       1.56776917    
  -4.40452194       1.82441294     -0.246999994       211.770355       1.56776917    
  -5.07209921       2.10093188     -0.157000005       211.770355       1.56776917    
  -3.88201594       3.88201594     -0.157000005       280.910034       1.56955051    
  -3.37107491       3.37107491     -0.246999994       280.910034       1.56955051    
  -3.96396494       2.64863706     -0.246999994       280.910034       1.56955051    
  -4.56476784       3.05008101     -0.157000005       280.910034       1.56955051    
  -3.05008101       4.56476784     -0.157000005       348.698395       1.56776869    
  -2.64863706       3.96396494     -0.246999994       348.698395       1.56776869    
  -3.37107491       3.37107491     -0.246999994       348.698395       1.56776869    
  -3.88201594       3.88201594     -0.157000005       348.698395       1.56776869    
  -2.10093188       5.07209921     -0.157000005       376.878906       1.56712449    
  -1.82441294       4.40452194     -0.246999994       376.878906       1.56712449    
  -2.64863706       3.96396494     -0.246999994       376.878906       1.56712449    
  -3.05008101       4.56476784     -0.157000005       376.878906       1.56712449    
  -1.07104599       5.38451099     -0.157000005       423.773865       1.56738222    
 -0.930077016       4.67581606     -0.246999994       423.773865       1.56738222    
  -1.82441294       4.40452194     -0.246999994       423.773865       1.56738222    
  -2.10093188       5.07209921     -0.157000005       423.773865       1.56738222    
   0.00000000       5.48999977     -0.157000005       430.564911       1.56586003    
   0.00000000       4.76741982     -0.246999994       430.564911       1.56586003    
 -0.930077016       4.67581606     -0.246999994       430.564911       1.56586003    
  -1.07104599       5.38451099     -0.157000005       430.564911       1.56586003    
   1.07104599       5.38451099     -0.157000005       441.648773       1.56713593    
  0.930077016       4.67581606     -0.246999994       441.648773       1.56713593    
   0.00000000       4.76741982     -0.246999994       441.648773       1.56713593    
   0.00000000       5.48999977     -0.157000005       441.648773       1.56713593    
   2.10093188       5.07209921     -0.157000005       410.423157       1.56978011    
   1.82441294       4.40452194     -0.246999994       410.423157       1.56978011    
  0.930077016       4.67581606     -0.246999994       410.423157       1.56978011    
   1.07104599       5.38451099     -0.157000005       410.423157       1.56978011    
   3.05008101       4.56476784     -0.157000005       376.079865       1.56973004    
   2.64863706       3.96396494     -0.246999994       376.079865       1.56973004    
   1.82441294       4.40452194     -0.246999994       376.079865       1.56973004    
   2.10093188       5.07209921     -0.157000005       376.079865       1.56973004    
   3.88201594       3.88201594     -0.157000005       348.844604       1.56758237    
   3.37107491       3.37107491     -0.246999994       348.844604       1.56758237    
   2.64863706       3.96396494     -0.246999994       348.844604       1.56758237    
   3.05008101       4.56476784     -0.157000005       348.844604       1.56758237    
   4.56476784       3.05008101     -0.157000005       284.068420       1.56950998    
   3.96396494       2.64863706     -0.246999994       284.068420       1.56950998    
   3.37107491       3.37107491     -0.246999994       284.068420       1.56950998    
   3.88201594       3.88201594     -0.157000005       284.068420       1.56950998    
   5.07209921       2.10093188     -0.157000005       207.603806       1.57076120    
   4.40452194       1.82441294     -0.246999994       207.603806       1.57076120    
   3.96396494       2.64863706     -0.246999994       207.603806       1.57076120    
   4.56476784       3.05008101     -0.157000005       207.603806       1.57076120    
   5.38451099       1.07104599     -0.157000005       117.622391       1.56361306    
   4.67581606      0.930077016     -0.246999994       117.622391       1.56361306    
   4.40452194       1.82441294     -0.246999994       117.622391       1.56361306    
   5.07209921       2.10093188     -0.157000005       117.622391       1.56361306    
   5.48999977       0.00000000     -0.157000005       36.1931915       1.55252087    
   4.76741982       0.00000000     -0.246999994       36.1931915       1.55252087    
   4.67581606      0.930077016     -0.246999994       36.1931915       1.55252087    
   5.38451099       1.07104599     -0.157000005       36.1931915       1.55252087    
   5.38451099      -1.07104599     -0.157000005       42.6381531      -1.57212722    
   4.67581606     -0.930077016     -0.246999994       42.6381531      -1.57212722    
   4.76741982       0.00000000     -0.246999994       42.6381531      -1.57212722    
   5.48999977       0.00000000     -0.157000005       42.6381531      -1.57212722    
   5.07209921      -2.10093188     -0.157000005       123.469444      -1.56605947    
   4.40452194      -1.82441294     -0.246999994       123.469444      -1.56605947    
   4.67581606     -0.930077016     -0.246999994       123.469444      -1.56605947    
   5.38451099      -1.07104599     -0.157000005       123.469444      -1.56605947    
   4.56476784      -3.05008101     -0.157000005       204.708069      -1.56298280    
   3.96396494      -2.64863706     -0.246999994       204.708069      -1.56298280    
   4.40452194      -1.82441294     -0.246999994       204.708069      -1.56298280    
   5.07209921      -2.10093188     -0.157000005       204.708069      -1.56298280    
   3.88201594      -3.88201594     -0.157000005       277.513916      -1.56971216    
   3.37107491      -3.37107491     -0.246999994       277.513916      -1.56971216    
   3.96396494      -2.64863706     -0.246999994       277.513916      -1.56971216    
   4.56476784      -3.05008101     -0.157000005       277.513916      -1.56971216    
   3.05008101      -4.56476784     -0.157000005       341.446014      -1.57533443    
   2.64863706      -3.96396494     -0.246999994       341.446014      -1.57533443    
   3.37107491      -3.37107491     -0.246999994       341.446014      -1.57533443    
   3.88201594      -3.88201594     -0.157000005       341.446014      -1.57533443    
   2.10093188      -5.07209921     -0.157000005       370.847809      -1.57508957    
   1.82441294      -4.40452194     -0.246999994       370.847809      -1.57508957    
   2.64863706      -3.96396494     -0.246999994       370.847809      -1.57508957    
   3.05008101      -4.56476784     -0.157000005       370.847809      -1.57508957    
   1.07104599      -5.38451099     -0.157000005       405.825867      -1.57218277    
  0.930077016      -4.67581606     -0.246999994       405.825867      -1.57218277    
   1.82441294      -4.40452194     -0.246999994       405.825867      -1.57218277    
   2.10093188      -5.07209921     -0.157000005       405.825867      -1.57218277    
   0.00000000      -1.87709999     -0.606999993       14730.8535      -1.57120323    
   0.00000000      -1.36500001     -0.606999993       14730.8535      -1.57120323    
  0.266297996      -1.33877206     -0.606999993       14730.8535      -1.57120323    
  0.366203994      -1.84103203     -0.606999993       14730.8535      -1.57120323    
   0.00000000      -1.87709999     -0.606999993       5433.88818      -1.57113230    
   0.00000000      -2.59967995     -0.517000020       5433.88818      -1.57113230    
 -0.507171988      -2.54972792     -0.517000020       5433.88818      -1.57113230    
 -0.366203994      -1.84103203     -0.606999993       5433.88818      -1.57113230    
 -0.366203994      -1.84103203     -0.606999993       14736.0518      -1.57121170    
 -0.266297996      -1.33877206     -0.606999993       14736.0518      -1.57121170    
   0.00000000      -1.36500001     -0.606999993       14736.0518      -1.57121170    
   0.00000000      -1.87709999     -0.606999993       14736.0518      -1.57121170    
 -0.366203994      -1.84103203     -0.606999993       5331.80908      -1.57115042    
 -0.507171988      -2.54972792     -0.517000020       5331.80908      -1.57115042    
 -0.994853973      -2.40179110     -0.517000020       5331.80908      -1.57115042    
 -0.718334973      -1.73421395     -0.606999993       5331.80908      -1.57115042    
 -0.718334973      -1.73421395     -0.606999993       14260.3555      -1.57123744    
 -0.522363007      -1.26109600     -0.606999993       14260.3555      -1.57123744    
 -0.266297996      -1.33877206     -0.606999993       14260.3555      -1.57123744    
 -0.366203994      -1.84103203     -0.606999993       14260.3555      -1.57123744    
 -0.718334973      -1.73421395     -0.606999993       5064.37158      -1.57120061    
 -0.994853973      -2.40179110     -0.517000020       5064.37158      -1.57120061    
  -1.44430494      -2.16155505     -0.517000020       5064.37158      -1.57120061    
  -1.04286098      -1.56075203     -0.606999993       5064.37158      -1.57120061    
  -1.04286098      -1.56075203     -0.606999993       13263.8428      -1.57127416    
 -0.758352995      -1.13495600     -0.606999993       13263.8428      -1.57127416    
 -0.522363007      -1.26109600     -0.606999993       13263.8428      -1.57127416    
 -0.718334973      -1.73421395     -0.606999993       13263.8428      -1.57127416    
  -1.04286098      -1.56075203     -0.606999993       4547.88672      -1.57126951    
  -1.44430494      -2.16155505     -0.517000020       4547.88672      -1.57126951    
  -1.83825099      -1.83825099     -0.517000020       4547.88672      -1.57126951    
  -1.32730997      -1.32730997     -0.606999993       4547.88672      -1.57126951    
  -1.32730997      -1.32730997     -0.606999993       11707.2432      -1.57132053    
 -0.965201020     -0.965201020     -0.606999993       11707.2432      -1.57132053    
 -0.758352995      -1.13495600     -0.606999993       11707.2432      -1.57132053    
  -1.04286098      -1.56075203     -0.606999993       11707.2432      -1.57132053    
  -1.32730997      -1.32730997     -0.606999993       3734.60571      -1.57133913    
  -1.83825099      -1.83825099     -0.517000020       3734.60571      -1.57133913    
  -2.16155505      -1.44430494     -0.517000020       3734.60571      -1.57133913    
  -1.56075203      -1.04286098     -0.606999993       3734.60571      -1.57133913    
  -1.56075203      -1.04286098     -0.606999993       9612.84082      -1.57137322    
  -1.13495600     -0.758352995     -0.606999993       9612.84082      -1.57137322    
 -0.965201020     -0.965201020     -0.606999993       9612.84082      -1.57137322    
  -1.32730997      -1.32730997     -0.606999993       9612.84082      -1.57137322    
  -1.56075203      -1.04286098     -0.606999993       2674.65601      -1.57144654    
  -2.16155505      -1.44430494     -0.517000020       2674.65601      -1.57144654    
  -2.40179110     -0.994853973     -0.517000020       2674.65601      -1.57144654    
  -1.73421395     -0.718334973     -0.606999993       2674.65601      -1.57144654    
  -1.73421395     -0.718334973     -0.606999993       7091.03809      -1.57143950    
  -1.26109600     -0.522363007     -0.606999993       7091.03809      -1.57143950    
  -1.13495600     -0.758352995     -0.606999993       7091.03809      -1.57143950    
  -1.56075203      -1.04286098     -0.606999993       7091.03809      -1.57143950    
  -1.73421395     -0.718334973     -0.606999993       1544.83118      -1.57161093    
  -2.40179110     -0.994853973     -0.517000020       1544.83118      -1.57161093    
  -2.54972792     -0.507171988     -0.517000020       1544.83118      -1.57161093    
  -1.84103203     -0.366203994     -0.606999993       1544.83118      -1.57161093    
  -1.84103203     -0.366203994     -0.606999993       4317.27393      -1.57154584    
  -1.33877206     -0.266297996     -0.606999993       4317.27393      -1.57154584    
  -1.26109600     -0.522363007     -0.606999993       4317.27393      -1.57154584    
  -1.73421395     -0.718334973     -0.606999993       4317.27393      -1.57154584    
  -1.84103203     -0.366203994     -0.606999993       489.112396      -1.57212973    
  -2.54972792     -0.507171988     -0.517000020       489.112396      -1.57212973    
  -2.59967995       0.00000000     -0.517000020       489.112396      -1.57212973    
  -1.87709999       0.00000000     -0.606999993       489.112396      -1.57212973    
  -1.87709999       0.00000000     -0.606999993       1451.03979      -1.57193780    
  -1.36500001       0.00000000     -0.606999993       1451.03979      -1.57193780    
  -1.33877206     -0.266297996     -0.606999993       1451.03979      -1.57193780    
  -1.84103203     -0.366203994     -0.606999993       1451.03979      -1.57193780    
  -1.87709999       0.00000000     -0.606999993       481.954163       1.57090771    
  -2.59967995       0.00000000     -0.517000020       481.954163       1.57090771    
  -2.54972792      0.507171988     -0.517000020       481.954163       1.57090771    
  -1.84103203      0.366203994     -0.606999993       481.954163       1.57090771    
  -1.84103203      0.366203994     -0.606999993       1412.17114       1.57080162    
  -1.33877206      0.266297996     -0.606999993       1412.17114       1.57080162    
  -1.36500001       0.00000000     -0.606999993       1412.17114       1.57080162    
  -1.87709999       0.00000000     -0.606999993       1412.17114       1.57080162    
  -1.84103203      0.366203994     -0.606999993       1482.07690       1.57046497    
  -2.54972792      0.507171988     -0.517000020       1482.07690       1.57046497    
  -2.40179110      0.994853973     -0.517000020       1482.07690       1.57046497    
  -1.73421395      0.718334973     -0.606999993       1482.07690       1.57046497    
  -1.73421395      0.718334973     -0.606999993       4234.72607       1.57041860    
  -1.26109600      0.522363007     -0.606999993       4234.72607       1.57041860    
  -1.33877206      0.266297996     -0.606999993       4234.72607       1.57041860    
  -1.84103203      0.366203994     -0.606999993       4234.72607       1.57041860    
  -1.73421395      0.718334973     -0.606999993       2554.84888       1.57044899    
  -2.40179110      0.994853973     -0.517000020       2554.84888       1.57044899    
  -2.16155505       1.44430494     -0.517000020       2554.84888       1.57044899    
  -1.56075203       1.04286098     -0.606999993       2554.84888       1.57044899    
  -1.56075203       1.04286098     -0.606999993       6951.80420       1.57036245    
  -1.13495600      0.758352995     -0.606999993       6951.80420       1.57036245    
  -1.26109600      0.522363007     -0.606999993       6951.80420       1.57036245    
  -1.73421395      0.718334973     -0.606999993       6951.80420       1.57036245    
  -1.56075203       1.04286098     -0.606999993       3603.26465       1.57045996    
  -2.16155505       1.44430494     -0.517000020       3603.26465       1.57045996    
  -1.83825099       1.83825099     -0.517000020       3603.26465       1.57045996    
  -1.32730997       1.32730997     -0.606999993       3603.26465       1.57045996    
  -1.32730997       1.32730997     -0.606999993       9435.51758       1.57035756    
 -0.965201020      0.965201020     -0.606999993       9435.51758       1.57035756    
  -1.13495600      0.758352995     -0.606999993       9435.51758       1.57035756    
  -1.56075203       1.04286098     -0.606999993       9435.51758       1.57035756    
  -1.32730997       1.32730997     -0.606999993       4445.44531       1.57046628    
  -1.83825099       1.83825099     -0.517000020       4445.44531       1.57046628    
  -1.44430494       2.16155505     -0.517000020       4445.44531       1.57046628    
  -1.04286098       1.56075203     -0.606999993       4445.44531       1.57046628    
  -1.04286098       1.56075203     -0.606999993       11518.8613       1.57036471    
 -0.758352995       1.13495600     -0.606999993       11518.8613       1.57036471    
 -0.965201020      0.965201020     -0.606999993       11518.8613       1.57036471    
  -1.32730997       1.32730997     -0.606999993       11518.8613       1.57036471    
  -1.04286098       1.56075203     -0.606999993       4995.72461       1.57047284    
  -1.44430494       2.16155505     -0.517000020       4995.72461       1.57047284    
 -0.994853973       2.40179110     -0.517000020       4995.72461       1.57047284    
 -0.718334973       1.73421395     -0.606999993       4995.72461       1.57047284    
 -0.718334973       1.73421395     -0.606999993       13084.1738       1.57037842    
 -0.522363007       1.26109600     -0.606999993       13084.1738       1.57037842    
 -0.758352995       1.13495600     -0.606999993       13084.1738       1.57037842    
  -1.04286098       1.56075203     -0.606999993       13084.1738       1.57037842    
 -0.718334973       1.73421395     -0.606999993       5283.84277       1.57046163    
 -0.994853973       2.40179110     -0.517000020       5283.84277       1.57046163    
 -0.507171988       2.54972792     -0.517000020       5283.84277       1.57046163    
 -0.366203994       1.84103203     -0.606999993       5283.84277       1.57046163    
 -0.366203994       1.84103203     -0.606999993       14095.3877       1.57038879    
 -0.266297996       1.33877206     -0.606999993       14095.3877       1.57038879    
 -0.522363007       1.26109600     -0.606999993       14095.3877       1.57038879    
 -0.718334973       1.73421395     -0.606999993       14095.3877       1.57038879    
 -0.366203994       1.84103203     -0.606999993       5396.25342       1.57044530    
 -0.507171988       2.54972792     -0.517000020       5396.25342       1.57044530    
   0.00000000       2.59967995     -0.517000020       5396.25342       1.57044530    
   0.00000000       1.87709999     -0.606999993       5396.25342       1.57044530    
   0.00000000       1.87709999     -0.606999993       14583.5420       1.57038796    
   0.00000000       1.36500001     -0.606999993       14583.5420       1.57038796    
 -0.266297996       1.33877206     -0.606999993       14583.5420       1.57038796    
 -0.366203994       1.84103203     -0.606999993       14583.5420       1.57038796    
   0.00000000       1.87709999     -0.606999993       5398.04004       1.57042074    
   0.00000000       2.59967995     -0.517000020       5398.04004       1.57042074    
  0.507171988       2.54972792     -0.517000020       5398.04004       1.57042074    
  0.366203994       1.84103203     -0.606999993       5398.04004       1.57042074    
  0.366203994       1.84103203     -0.606999993       14584.4941       1.57037389    
  0.266297996       1.33877206     -0.606999993       14584.4941       1.57037389    
   0.00000000       1.36500001     -0.606999993       14584.4941       1.57037389    
   0.00000000       1.87709999     -0.606999993       14584.4941       1.57037389    
  0.366203994       1.84103203     -0.606999993       5289.26074       1.57036090    
  0.507171988       2.54972792     -0.517000020       5289.26074       1.57036090    
  0.994853973       2.40179110     -0.517000020       5289.26074       1.57036090    
  0.718334973       1.73421395     -0.606999993       5289.26074       1.57036090    
  0.718334973       1.73421395     -0.606999993       14098.1943       1.57034099    
  0.522363007       1.26109600     -0.606999993       14098.1943       1.57034099    
  0.266297996       1.33877206     -0.606999993       14098.1943       1.57034099    
  0.366203994       1.84103203     -0.606999993       14098.1943       1.57034099    
  0.718334973       1.73421395     -0.606999993       5005.25684       1.57028663    
  0.994853973       2.40179110     -0.517000020       5005.25684       1.57028663    
   1.44430494       2.16155505     -0.517000020       5005.25684       1.57028663    
   1.04286098       1.56075203     -0.606999993       5005.25684       1.57028663    
   1.04286098       1.56075203     -0.606999993       13088.3164       1.57030320    
  0.758352995       1.13495600     -0.606999993       13088.3164       1.57030320    
  0.522363007       1.26109600     -0.606999993       13088.3164       1.57030320    
  0.718334973       1.73421395     -0.606999993       13088.3164       1.57030320    
   1.04286098       1.56075203     -0.606999993       4459.37207       1.57023644    
   1.44430494       2.16155505     -0.517000020       4459.37207       1.57023644    
   1.83825099       1.83825099     -0.517000020       4459.37207       1.57023644    
   1.32730997       1.32730997     -0.606999993       4459.37207       1.57023644    
   1.32730997       1.32730997     -0.606999993       11524.3936       1.57026684    
  0.965201020      0.965201020     -0.606999993       11524.3936       1.57026684    
  0.758352995       1.13495600     -0.606999993       11524.3936       1.57026684    
   1.04286098       1.56075203     -0.606999993       11524.3936       1.57026684    
   1.32730997       1.32730997     -0.606999993       3620.60132       1.57023060    
   1.83825099       1.83825099     -0.517000020       3620.60132       1.57023060    
   2.16155505       1.44430494     -0.517000020       3620.60132       1.57023060    
   1.56075203       1.04286098     -0.606999993       3620.60132       1.57023060    
   1.56075203       1.04286098     -0.606999993       9441.56934       1.57023501    
   1.13495600      0.758352995     -0.606999993       9441.56934       1.57023501    
  0.965201020      0.965201020     -0.606999993       9441.56934       1.57023501    
   1.32730997       1.32730997     -0.606999993       9441.56934       1.57023501    
   1.56075203       1.04286098     -0.606999993       2574.08203       1.57030964    
   2.16155505       1.44430494     -0.517000020       2574.08203       1.57030964    
   2.40179110      0.994853973     -0.517000020       2574.08203       1.57030964    
   1.73421395      0.718334973     -0.606999993       2574.08203       1.57030964    
   1.73421395      0.718334973     -0.606999993       6955.66895       1.57021534    
   1.26109600      0.522363007     -0.606999993       6955.66895       1.57021534    
   1.13495600      0.758352995     -0.606999993       6955.66895       1.57021534    
   1.56075203       1.04286098     -0.606999993       6955.66895       1.57021534    
   1.73421395      0.718334973     -0.606999993       1501.77026       1.57054269    
   2.40179110      0.994853973     -0.517000020       1501.77026       1.57054269    
   2.54972792      0.507171988     -0.517000020       1501.77026       1.57054269    
   1.84103203      0.366203994     -0.606999993       1501.77026       1.57054269    
   1.84103203      0.366203994     -0.606999993       4236.80713       1.57021224    
   1.33877206      0.266297996     -0.606999993       4236.80713       1.57021224    
   1.26109600      0.522363007     -0.606999993       4236.80713       1.57021224    
   1.73421395      0.718334973     -0.606999993       4236.80713       1.57021224    
   1.84103203      0.366203994     -0.606999993       501.955566       1.57145298    
   2.54972792      0.507171988     -0.517000020       501.955566       1.57145298    
   2.59967995       0.00000000     -0.517000020       501.955566       1.57145298    
   1.87709999       0.00000000     -0.606999993       501.955566       1.57145298    
   1.87709999       0.00000000     -0.606999993       1414.19031       1.57021070    
   1.36500001       0.00000000     -0.606999993       1414.19031       1.57021070    
   1.33877206      0.266297996     -0.606999993       1414.19031       1.57021070    
   1.84103203      0.366203994     -0.606999993       1414.19031       1.57021070    
   1.87709999       0.00000000     -0.606999993       468.839203      -1.57241440    
   2.59967995       0.00000000     -0.517000020       468.839203      -1.57241440    
   2.54972792     -0.507171988     -0.517000020       468.839203      -1.57241440    
   1.84103203     -0.366203994     -0.606999993       468.839203      -1.57241440    
   1.84103203     -0.366203994     -0.606999993       1448.07312      -1.57134962    
   1.33877206     -0.266297996     -0.606999993       1448.07312      -1.57134962    
   1.36500001       0.00000000     -0.606999993       1448.07312      -1.57134962    
   1.87709999       0.00000000     -0.606999993       1448.07312      -1.57134962    
   1.84103203     -0.366203994     -0.606999993       1523.85535      -1.57143354    
   2.54972792     -0.507171988     -0.517000020       1523.85535      -1.57143354    
   2.40179110     -0.994853973     -0.517000020       1523.85535      -1.57143354    
   1.73421395     -0.718334973     -0.606999993       1523.85535      -1.57143354    
   1.73421395     -0.718334973     -0.606999993       4312.68359      -1.57131863    
   1.26109600     -0.522363007     -0.606999993       4312.68359      -1.57131863    
   1.33877206     -0.266297996     -0.606999993       4312.68359      -1.57131863    
   1.84103203     -0.366203994     -0.606999993       4312.68359      -1.57131863    
   1.73421395     -0.718334973     -0.606999993       2653.07324      -1.57119727    
   2.40179110     -0.994853973     -0.517000020       2653.07324      -1.57119727    
   2.16155505      -1.44430494     -0.517000020       2653.07324      -1.57119727    
   1.56075203      -1.04286098     -0.606999993       2653.07324      -1.57119727    
   1.56075203      -1.04286098     -0.606999993       7084.40820      -1.57129443    
   1.13495600     -0.758352995     -0.606999993       7084.40820      -1.57129443    
   1.26109600     -0.522363007     -0.606999993       7084.40820      -1.57129443    