 VARIABLES="X" "Y" "Z" "abs(p) (Pa)" "angle(p) (rad)"
ZONE N=   2709,E =    2358, F=FEPOINT, ET=QUADRILATERAL
   0.00000000      -5.48999977     -0.157000005       478.078003       2.53565454    
   0.00000000      -4.76741982     -0.246999994       478.078003       2.53565454    
  0.930077016      -4.67581606     -0.246999994       478.078003       2.53565454    
   1.07104599      -5.38451099     -0.157000005       478.078003       2.53565454    
  -1.07104599      -5.38451099     -0.157000005       477.435638       2.53616977    
 -0.930077016      -4.67581606     -0.246999994       477.435638       2.53616977    
   0.00000000      -4.76741982     -0.246999994       477.435638       2.53616977    
   0.00000000      -5.48999977     -0.157000005       477.435638       2.53616977    
  -2.10093188      -5.07209921     -0.157000005       452.772156       2.54190207    
  -1.82441294      -4.40452194     -0.246999994       452.772156       2.54190207    
 -0.930077016      -4.67581606     -0.246999994       452.772156       2.54190207    
  -1.07104599      -5.38451099     -0.157000005       452.772156       2.54190207    
  -3.05008101      -4.56476784     -0.157000005       422.244934       2.53636003    
  -2.64863706      -3.96396494     -0.246999994       422.244934       2.53636003    
  -1.82441294      -4.40452194     -0.246999994       422.244934       2.53636003    
  -2.10093188      -5.07209921     -0.157000005       422.244934       2.53636003    
  -3.88201594      -3.88201594     -0.157000005       369.770020       2.53641295    
  -3.37107491      -3.37107491     -0.246999994       369.770020       2.53641295    
  -2.64863706      -3.96396494     -0.246999994       369.770020       2.53641295    
  -3.05008101      -4.56476784     -0.157000005       369.770020       2.53641295    
  -4.56476784      -3.05008101     -0.157000005       297.951050       2.54370236    
  -3.96396494      -2.64863706     -0.246999994       297.951050       2.54370236    
  -3.37107491      -3.37107491     -0.246999994       297.951050       2.54370236    
  -3.88201594      -3.88201594     -0.157000005       297.951050       2.54370236    
  -5.07209921      -2.10093188     -0.157000005       224.373093       2.53778386    
  -4.40452194      -1.82441294     -0.246999994       224.373093       2.53778386    
  -3.96396494      -2.64863706     -0.246999994       224.373093       2.53778386    
  -4.56476784      -3.05008101     -0.157000005       224.373093       2.53778386    
  -5.38451099      -1.07104599     -0.157000005       138.856522       2.53667331    
  -4.67581606     -0.930077016     -0.246999994       138.856522       2.53667331    
  -4.40452194      -1.82441294     -0.246999994       138.856522       2.53667331    
  -5.07209921      -2.10093188     -0.157000005       138.856522       2.53667331    
  -5.48999977       0.00000000     -0.157000005       46.7075844       2.54392767    
  -4.76741982       0.00000000     -0.246999994       46.7075844       2.54392767    
  -4.67581606     -0.930077016     -0.246999994       46.7075844       2.54392767    
  -5.38451099      -1.07104599     -0.157000005       46.7075844       2.54392767    
  -5.38451099       1.07104599     -0.157000005       45.5824051     -0.601800740    
  -4.67581606      0.930077016     -0.246999994       45.5824051     -0.601800740    
  -4.76741982       0.00000000     -0.246999994       45.5824051     -0.601800740    
  -5.48999977       0.00000000     -0.157000005       45.5824051     -0.601800740    
  -5.07209921       2.10093188     -0.157000005       136.075272     -0.599438190    
  -4.40452194       1.82441294     -0.246999994       136.075272     -0.599438190    
  -4.67581606      0.930077016     -0.246999994       136.075272     -0.599438190    
  -5.38451099       1.07104599     -0.157000005       136.075272     -0.599438190    
  -4.56476784       3.05008101     -0.157000005       221.926315     -0.599506617    
  -3.96396494       2.64863706     -0.246999994       221.926315     -0.599506617    
  -4.40452194       1.82441294     -0.246999994       221.926315     -0.599506617    
  -5.07209921       2.10093188     -0.157000005       221.926315     -0.599506617    
  -3.88201594       3.88201594     -0.157000005       303.093323     -0.604648292    
  -3.37107491       3.37107491     -0.246999994       303.093323     -0.604648292    
  -3.96396494       2.64863706     -0.246999994       303.093323     -0.604648292    
  -4.56476784       3.05008101     -0.157000005       303.093323     -0.604648292    
  -3.05008101       4.56476784     -0.157000005       365.257019     -0.599452555    
  -2.64863706       3.96396494     -0.246999994       365.257019     -0.599452555    
  -3.37107491       3.37107491     -0.246999994       365.257019     -0.599452555    
  -3.88201594       3.88201594     -0.157000005       365.257019     -0.599452555    
  -2.10093188       5.07209921     -0.157000005       421.917633     -0.604368508    
  -1.82441294       4.40452194     -0.246999994       421.917633     -0.604368508    
  -2.64863706       3.96396494     -0.246999994       421.917633     -0.604368508    
  -3.05008101       4.56476784     -0.157000005       421.917633     -0.604368508    
  -1.07104599       5.38451099     -0.157000005       452.637970     -0.599242687    
 -0.930077016       4.67581606     -0.246999994       452.637970     -0.599242687    
  -1.82441294       4.40452194     -0.246999994       452.637970     -0.599242687    
  -2.10093188       5.07209921     -0.157000005       452.637970     -0.599242687    
   0.00000000       5.48999977     -0.157000005       476.416260     -0.604313970    
   0.00000000       4.76741982     -0.246999994       476.416260     -0.604313970    
 -0.930077016       4.67581606     -0.246999994       476.416260     -0.604313970    
  -1.07104599       5.38451099     -0.157000005       476.416260     -0.604313970    
   1.07104599       5.38451099     -0.157000005       470.883575     -0.599507153    
  0.930077016       4.67581606     -0.246999994       470.883575     -0.599507153    
   0.00000000       4.76741982     -0.246999994       470.883575     -0.599507153    
   0.00000000       5.48999977     -0.157000005       470.883575     -0.599507153    
   2.10093188       5.07209921     -0.157000005       458.424896     -0.605376184    
   1.82441294       4.40452194     -0.246999994       458.424896     -0.605376184    
  0.930077016       4.67581606     -0.246999994       458.424896     -0.605376184    
   1.07104599       5.38451099     -0.157000005       458.424896     -0.605376184    
   3.05008101       4.56476784     -0.157000005       422.360046     -0.606006563    
   2.64863706       3.96396494     -0.246999994       422.360046     -0.606006563    
   1.82441294       4.40452194     -0.246999994       422.360046     -0.606006563    
   2.10093188       5.07209921     -0.157000005       422.360046     -0.606006563    
   3.88201594       3.88201594     -0.157000005       364.135315     -0.599660993    
   3.37107491       3.37107491     -0.246999994       364.135315     -0.599660993    
   2.64863706       3.96396494     -0.246999994       364.135315     -0.599660993    
   3.05008101       4.56476784     -0.157000005       364.135315     -0.599660993    
   4.56476784       3.05008101     -0.157000005       298.865417     -0.601048946    
   3.96396494       2.64863706     -0.246999994       298.865417     -0.601048946    
   3.37107491       3.37107491     -0.246999994       298.865417     -0.601048946    
   3.88201594       3.88201594     -0.157000005       298.865417     -0.601048946    
   5.07209921       2.10093188     -0.157000005       220.710678     -0.599386573    
   4.40452194       1.82441294     -0.246999994       220.710678     -0.599386573    
   3.96396494       2.64863706     -0.246999994       220.710678     -0.599386573    
   4.56476784       3.05008101     -0.157000005       220.710678     -0.599386573    
   5.38451099       1.07104599     -0.157000005       138.054703     -0.606959105    
   4.67581606      0.930077016     -0.246999994       138.054703     -0.606959105    
   4.40452194       1.82441294     -0.246999994       138.054703     -0.606959105    
   5.07209921       2.10093188     -0.157000005       138.054703     -0.606959105    
   5.48999977       0.00000000     -0.157000005       46.9513474     -0.613382936    
   4.76741982       0.00000000     -0.246999994       46.9513474     -0.613382936    
   4.67581606      0.930077016     -0.246999994       46.9513474     -0.613382936    
   5.38451099       1.07104599     -0.157000005       46.9513474     -0.613382936    
   5.38451099      -1.07104599     -0.157000005       46.6852570       2.54110980    
   4.67581606     -0.930077016     -0.246999994       46.6852570       2.54110980    
   4.76741982       0.00000000     -0.246999994       46.6852570       2.54110980    
   5.48999977       0.00000000     -0.157000005       46.6852570       2.54110980    
   5.07209921      -2.10093188     -0.157000005       138.784500       2.53664637    
   4.40452194      -1.82441294     -0.246999994       138.784500       2.53664637    
   4.67581606     -0.930077016     -0.246999994       138.784500       2.53664637    
   5.38451099      -1.07104599     -0.157000005       138.784500       2.53664637    
   4.56476784      -3.05008101     -0.157000005       225.740509       2.53590751    
   3.96396494      -2.64863706     -0.246999994       225.740509       2.53590751    
   4.40452194      -1.82441294     -0.246999994       225.740509       2.53590751    
   5.07209921      -2.10093188     -0.157000005       225.740509       2.53590751    
   3.88201594      -3.88201594     -0.157000005       303.663391       2.53630686    
   3.37107491      -3.37107491     -0.246999994       303.663391       2.53630686    
   3.96396494      -2.64863706     -0.246999994       303.663391       2.53630686    
   4.56476784      -3.05008101     -0.157000005       303.663391       2.53630686    
   3.05008101      -4.56476784     -0.157000005       365.415833       2.54175115    
   2.64863706      -3.96396494     -0.246999994       365.415833       2.54175115    
   3.37107491      -3.37107491     -0.246999994       365.415833       2.54175115    
   3.88201594      -3.88201594     -0.157000005       365.415833       2.54175115    
   2.10093188      -5.07209921     -0.157000005       422.715393       2.53614640    
   1.82441294      -4.40452194     -0.246999994       422.715393       2.53614640    
   2.64863706      -3.96396494     -0.246999994       422.715393       2.53614640    
   3.05008101      -4.56476784     -0.157000005       422.715393       2.53614640    
   1.07104599      -5.38451099     -0.157000005       459.631683       2.53558207    
  0.930077016      -4.67581606     -0.246999994       459.631683       2.53558207    
   1.82441294      -4.40452194     -0.246999994       459.631683       2.53558207    
   2.10093188      -5.07209921     -0.157000005       459.631683       2.53558207    
   0.00000000      -1.87709999     -0.606999993       956.734924      -1.65459275    
   0.00000000      -1.36500001     -0.606999993       956.734924      -1.65459275    
  0.266297996      -1.33877206     -0.606999993       956.734924      -1.65459275    
  0.366203994      -1.84103203     -0.606999993       956.734924      -1.65459275    
   0.00000000      -1.87709999     -0.606999993       357.711334      -1.86089838    
   0.00000000      -2.59967995     -0.517000020       357.711334      -1.86089838    
 -0.507171988      -2.54972792     -0.517000020       357.711334      -1.86089838    
 -0.366203994      -1.84103203     -0.606999993       357.711334      -1.86089838    
 -0.366203994      -1.84103203     -0.606999993       956.435974      -1.65466595    
 -0.266297996      -1.33877206     -0.606999993       956.435974      -1.65466595    
   0.00000000      -1.36500001     -0.606999993       956.435974      -1.65466595    
   0.00000000      -1.87709999     -0.606999993       956.435974      -1.65466595    
 -0.366203994      -1.84103203     -0.606999993       343.422607      -1.86168206    
 -0.507171988      -2.54972792     -0.517000020       343.422607      -1.86168206    
 -0.994853973      -2.40179110     -0.517000020       343.422607      -1.86168206    
 -0.718334973      -1.73421395     -0.606999993       343.422607      -1.86168206    
 -0.718334973      -1.73421395     -0.606999993       919.034424      -1.65496039    
 -0.522363007      -1.26109600     -0.606999993       919.034424      -1.65496039    
 -0.266297996      -1.33877206     -0.606999993       919.034424      -1.65496039    
 -0.366203994      -1.84103203     -0.606999993       919.034424      -1.65496039    
 -0.718334973      -1.73421395     -0.606999993       316.109680      -1.86300313    
 -0.994853973      -2.40179110     -0.517000020       316.109680      -1.86300313    
  -1.44430494      -2.16155505     -0.517000020       316.109680      -1.86300313    
  -1.04286098      -1.56075203     -0.606999993       316.109680      -1.86300313    
  -1.04286098      -1.56075203     -0.606999993       846.428467      -1.65539789    
 -0.758352995      -1.13495600     -0.606999993       846.428467      -1.65539789    
 -0.522363007      -1.26109600     -0.606999993       846.428467      -1.65539789    
 -0.718334973      -1.73421395     -0.606999993       846.428467      -1.65539789    
  -1.04286098      -1.56075203     -0.606999993       277.369324      -1.86407518    
  -1.44430494      -2.16155505     -0.517000020       277.369324      -1.86407518    
  -1.83825099      -1.83825099     -0.517000020       277.369324      -1.86407518    
  -1.32730997      -1.32730997     -0.606999993       277.369324      -1.86407518    
  -1.32730997      -1.32730997     -0.606999993       741.666687      -1.65585721    
 -0.965201020     -0.965201020     -0.606999993       741.666687      -1.65585721    
 -0.758352995      -1.13495600     -0.606999993       741.666687      -1.65585721    
  -1.04286098      -1.56075203     -0.606999993       741.666687      -1.65585721    
  -1.32730997      -1.32730997     -0.606999993       228.505539      -1.86377251    
  -1.83825099      -1.83825099     -0.517000020       228.505539      -1.86377251    
  -2.16155505      -1.44430494     -0.517000020       228.505539      -1.86377251    
  -1.56075203      -1.04286098     -0.606999993       228.505539      -1.86377251    
  -1.56075203      -1.04286098     -0.606999993       608.912598      -1.65613103    
  -1.13495600     -0.758352995     -0.606999993       608.912598      -1.65613103    
 -0.965201020     -0.965201020     -0.606999993       608.912598      -1.65613103    
  -1.32730997      -1.32730997     -0.606999993       608.912598      -1.65613103    
  -1.56075203      -1.04286098     -0.606999993       170.830307      -1.86120296    
  -2.16155505      -1.44430494     -0.517000020       170.830307      -1.86120296    
  -2.40179110     -0.994853973     -0.517000020       170.830307      -1.86120296    
  -1.73421395     -0.718334973     -0.606999993       170.830307      -1.86120296    
  -1.73421395     -0.718334973     -0.606999993       453.231384      -1.65610600    
  -1.26109600     -0.522363007     -0.606999993       453.231384      -1.65610600    
  -1.13495600     -0.758352995     -0.606999993       453.231384      -1.65610600    
  -1.56075203      -1.04286098     -0.606999993       453.231384      -1.65610600    
  -1.73421395     -0.718334973     -0.606999993       106.220001      -1.85658526    
  -2.40179110     -0.994853973     -0.517000020       106.220001      -1.85658526    
  -2.54972792     -0.507171988     -0.517000020       106.220001      -1.85658526    
  -1.84103203     -0.366203994     -0.606999993       106.220001      -1.85658526    
  -1.84103203     -0.366203994     -0.606999993       280.076935      -1.65609586    
  -1.33877206     -0.266297996     -0.606999993       280.076935      -1.65609586    
  -1.26109600     -0.522363007     -0.606999993       280.076935      -1.65609586    
  -1.73421395     -0.718334973     -0.606999993       280.076935      -1.65609586    
  -1.84103203     -0.366203994     -0.606999993       37.2541237      -1.84794664    
  -2.54972792     -0.507171988     -0.517000020       37.2541237      -1.84794664    
  -2.59967995       0.00000000     -0.517000020       37.2541237      -1.84794664    
  -1.87709999       0.00000000     -0.606999993       37.2541237      -1.84794664    
  -1.87709999       0.00000000     -0.606999993       95.7689743      -1.65829241    
  -1.36500001       0.00000000     -0.606999993       95.7689743      -1.65829241    
  -1.33877206     -0.266297996     -0.606999993       95.7689743      -1.65829241    
  -1.84103203     -0.366203994     -0.606999993       95.7689743      -1.65829241    
  -1.87709999       0.00000000     -0.606999993       33.2163773       1.27648473    
  -2.59967995       0.00000000     -0.517000020       33.2163773       1.27648473    
  -2.54972792      0.507171988     -0.517000020       33.2163773       1.27648473    
  -1.84103203      0.366203994     -0.606999993       33.2163773       1.27648473    
  -1.84103203      0.366203994     -0.606999993       92.4201431       1.49183393    
  -1.33877206      0.266297996     -0.606999993       92.4201431       1.49183393    
  -1.36500001       0.00000000     -0.606999993       92.4201431       1.49183393    
  -1.87709999       0.00000000     -0.606999993       92.4201431       1.49183393    
  -1.84103203      0.366203994     -0.606999993       102.448753       1.28112388    
  -2.54972792      0.507171988     -0.517000020       102.448753       1.28112388    
  -2.40179110      0.994853973     -0.517000020       102.448753       1.28112388    
  -1.73421395      0.718334973     -0.606999993       102.448753       1.28112388    
  -1.73421395      0.718334973     -0.606999993       277.130798       1.48875523    
  -1.26109600      0.522363007     -0.606999993       277.130798       1.48875523    
  -1.33877206      0.266297996     -0.606999993       277.130798       1.48875523    
  -1.84103203      0.366203994     -0.606999993       277.130798       1.48875523    
  -1.73421395      0.718334973     -0.606999993       167.600082       1.27936816    
  -2.40179110      0.994853973     -0.517000020       167.600082       1.27936816    
  -2.16155505       1.44430494     -0.517000020       167.600082       1.27936816    
  -1.56075203       1.04286098     -0.606999993       167.600082       1.27936816    
  -1.56075203       1.04286098     -0.606999993       451.091309       1.48778164    
  -1.13495600      0.758352995     -0.606999993       451.091309       1.48778164    
  -1.26109600      0.522363007     -0.606999993       451.091309       1.48778164    
  -1.73421395      0.718334973     -0.606999993       451.091309       1.48778164    
  -1.56075203       1.04286098     -0.606999993       225.956497       1.27765155    
  -2.16155505       1.44430494     -0.517000020       225.956497       1.27765155    
  -1.83825099       1.83825099     -0.517000020       225.956497       1.27765155    
  -1.32730997       1.32730997     -0.606999993       225.956497       1.27765155    
  -1.32730997       1.32730997     -0.606999993       607.603638       1.48724937    
 -0.965201020      0.965201020     -0.606999993       607.603638       1.48724937    
  -1.13495600      0.758352995     -0.606999993       607.603638       1.48724937    
  -1.56075203       1.04286098     -0.606999993       607.603638       1.48724937    
  -1.32730997       1.32730997     -0.606999993       275.510101       1.27759910    
  -1.83825099       1.83825099     -0.517000020       275.510101       1.27759910    
  -1.44430494       2.16155505     -0.517000020       275.510101       1.27759910    
  -1.04286098       1.56075203     -0.606999993       275.510101       1.27759910    
  -1.04286098       1.56075203     -0.606999993       740.818359       1.48711753    
 -0.758352995       1.13495600     -0.606999993       740.818359       1.48711753    
 -0.965201020      0.965201020     -0.606999993       740.818359       1.48711753    
  -1.32730997       1.32730997     -0.606999993       740.818359       1.48711753    
  -1.04286098       1.56075203     -0.606999993       314.919006       1.27894759    
  -1.44430494       2.16155505     -0.517000020       314.919006       1.27894759    
 -0.994853973       2.40179110     -0.517000020       314.919006       1.27894759    
 -0.718334973       1.73421395     -0.606999993       314.919006       1.27894759    
 -0.718334973       1.73421395     -0.606999993       845.948120       1.48727918    
 -0.522363007       1.26109600     -0.606999993       845.948120       1.48727918    
 -0.758352995       1.13495600     -0.606999993       845.948120       1.48727918    
  -1.04286098       1.56075203     -0.606999993       845.948120       1.48727918    
 -0.718334973       1.73421395     -0.606999993       342.892059       1.28068745    
 -0.994853973       2.40179110     -0.517000020       342.892059       1.28068745    
 -0.507171988       2.54972792     -0.517000020       342.892059       1.28068745    
 -0.366203994       1.84103203     -0.606999993       342.892059       1.28068745    
 -0.366203994       1.84103203     -0.606999993       918.949585       1.48753941    
 -0.266297996       1.33877206     -0.606999993       918.949585       1.48753941    
 -0.522363007       1.26109600     -0.606999993       918.949585       1.48753941    
 -0.718334973       1.73421395     -0.606999993       918.949585       1.48753941    
 -0.366203994       1.84103203     -0.606999993       357.825928       1.28199720    
 -0.507171988       2.54972792     -0.517000020       357.825928       1.28199720    
   0.00000000       2.59967995     -0.517000020       357.825928       1.28199720    
   0.00000000       1.87709999     -0.606999993       357.825928       1.28199720    
   0.00000000       1.87709999     -0.606999993       956.752380       1.48774612    
   0.00000000       1.36500001     -0.606999993       956.752380       1.48774612    
 -0.266297996       1.33877206     -0.606999993       956.752380       1.48774612    
 -0.366203994       1.84103203     -0.606999993       956.752380       1.48774612    
   0.00000000       1.87709999     -0.606999993       358.367340       1.28251827    
   0.00000000       2.59967995     -0.517000020       358.367340       1.28251827    
  0.507171988       2.54972792     -0.517000020       358.367340       1.28251827    
  0.366203994       1.84103203     -0.606999993       358.367340       1.28251827    
  0.366203994       1.84103203     -0.606999993       957.475159       1.48781526    
  0.266297996       1.33877206     -0.606999993       957.475159       1.48781526    
   0.00000000       1.36500001     -0.606999993       957.475159       1.48781526    
   0.00000000       1.87709999     -0.606999993       957.475159       1.48781526    
  0.366203994       1.84103203     -0.606999993       344.479736       1.28228652    
  0.507171988       2.54972792     -0.517000020       344.479736       1.28228652    
  0.994853973       2.40179110     -0.517000020       344.479736       1.28228652    
  0.718334973       1.73421395     -0.606999993       344.479736       1.28228652    
  0.718334973       1.73421395     -0.606999993       921.070923       1.48774970    
  0.522363007       1.26109600     -0.606999993       921.070923       1.48774970    
  0.266297996       1.33877206     -0.606999993       921.070923       1.48774970    
  0.366203994       1.84103203     -0.606999993       921.070923       1.48774970    
  0.718334973       1.73421395     -0.606999993       317.490631       1.28176272    
  0.994853973       2.40179110     -0.517000020       317.490631       1.28176272    
   1.44430494       2.16155505     -0.517000020       317.490631       1.28176272    
   1.04286098       1.56075203     -0.606999993       317.490631       1.28176272    
   1.04286098       1.56075203     -0.606999993       849.257385       1.48763204    
  0.758352995       1.13495600     -0.606999993       849.257385       1.48763204    
  0.522363007       1.26109600     -0.606999993       849.257385       1.48763204    
  0.718334973       1.73421395     -0.606999993       849.257385       1.48763204    
   1.04286098       1.56075203     -0.606999993       278.920227       1.28182578    
   1.44430494       2.16155505     -0.517000020       278.920227       1.28182578    
   1.83825099       1.83825099     -0.517000020       278.920227       1.28182578    
   1.32730997       1.32730997     -0.606999993       278.920227       1.28182578    
   1.32730997       1.32730997     -0.606999993       745.028564       1.48760521    
  0.965201020      0.965201020     -0.606999993       745.028564       1.48760521    
  0.758352995       1.13495600     -0.606999993       745.028564       1.48760521    
   1.04286098       1.56075203     -0.606999993       745.028564       1.48760521    
   1.32730997       1.32730997     -0.606999993       229.944351       1.28355014    
   1.83825099       1.83825099     -0.517000020       229.944351       1.28355014    
   2.16155505       1.44430494     -0.517000020       229.944351       1.28355014    
   1.56075203       1.04286098     -0.606999993       229.944351       1.28355014    
   1.56075203       1.04286098     -0.606999993       612.252258       1.48784828    
   1.13495600      0.758352995     -0.606999993       612.252258       1.48784828    
  0.965201020      0.965201020     -0.606999993       612.252258       1.48784828    
   1.32730997       1.32730997     -0.606999993       612.252258       1.48784828    
   1.56075203       1.04286098     -0.606999993       171.794952       1.28746247    
   2.16155505       1.44430494     -0.517000020       171.794952       1.28746247    
   2.40179110      0.994853973     -0.517000020       171.794952       1.28746247    
   1.73421395      0.718334973     -0.606999993       171.794952       1.28746247    
   1.73421395      0.718334973     -0.606999993       455.449371       1.48842561    
   1.26109600      0.522363007     -0.606999993       455.449371       1.48842561    
   1.13495600      0.758352995     -0.606999993       455.449371       1.48842561    
   1.56075203       1.04286098     -0.606999993       455.449371       1.48842561    
   1.73421395      0.718334973     -0.606999993       106.520409       1.29342890    
   2.40179110      0.994853973     -0.517000020       106.520409       1.29342890    
   2.54972792      0.507171988     -0.517000020       106.520409       1.29342890    
   1.84103203      0.366203994     -0.606999993       106.520409       1.29342890    
   1.84103203      0.366203994     -0.606999993       280.795288       1.48939669    
   1.33877206      0.266297996     -0.606999993       280.795288       1.48939669    
   1.26109600      0.522363007     -0.606999993       280.795288       1.48939669    
   1.73421395      0.718334973     -0.606999993       280.795288       1.48939669    
   1.84103203      0.366203994     -0.606999993       36.9351807       1.30863488    
   2.54972792      0.507171988     -0.517000020       36.9351807       1.30863488    
   2.59967995       0.00000000     -0.517000020       36.9351807       1.30863488    
   1.87709999       0.00000000     -0.606999993       36.9351807       1.30863488    
   1.87709999       0.00000000     -0.606999993       95.1974182       1.49231517    
   1.36500001       0.00000000     -0.606999993       95.1974182       1.49231517    
   1.33877206      0.266297996     -0.606999993       95.1974182       1.49231517    
   1.84103203      0.366203994     -0.606999993       95.1974182       1.49231517    
   1.87709999       0.00000000     -0.606999993       34.0318222      -1.87620819    
   2.59967995       0.00000000     -0.517000020       34.0318222      -1.87620819    
   2.54972792     -0.507171988     -0.517000020       34.0318222      -1.87620819    
   1.84103203     -0.366203994     -0.606999993       34.0318222      -1.87620819    
   1.84103203     -0.366203994     -0.606999993       94.0422974      -1.65756941    
   1.33877206     -0.266297996     -0.606999993       94.0422974      -1.65756941    
   1.36500001       0.00000000     -0.606999993       94.0422974      -1.65756941    
   1.87709999       0.00000000     -0.606999993       94.0422974      -1.65756941    
   1.84103203     -0.366203994     -0.606999993       103.543221      -1.86442745    
   2.54972792     -0.507171988     -0.517000020       103.543221      -1.86442745    
   2.40179110     -0.994853973     -0.517000020       103.543221      -1.86442745    
   1.73421395     -0.718334973     -0.606999993       103.543221      -1.86442745    
   1.73421395     -0.718334973     -0.606999993       279.447815      -1.65539646    
   1.26109600     -0.522363007     -0.606999993       279.447815      -1.65539646    
   1.33877206     -0.266297996     -0.606999993       279.447815      -1.65539646    
   1.84103203     -0.366203994     -0.606999993       279.447815      -1.65539646    
   1.73421395     -0.718334973     -0.606999993       168.728745      -1.86502945    
   2.40179110     -0.994853973     -0.517000020       168.728745      -1.86502945    
   2.16155505      -1.44430494     -0.517000020       168.728745      -1.86502945    
   1.56075203      -1.04286098     -0.606999993       168.728745      -1.86502945    
   1.56075203      -1.04286098     -0.606999993       453.762482      -1.65541542    
   1.13495600     -0.758352995     -0.606999993       453.762482      -1.65541542    
   1.26109600     -0.522363007     -0.606999993       453.762482      -1.65541542    