 VARIABLES="X" "Y" "Z" "abs(p) (Pa)" "angle(p) (rad)"
ZONE N=   2709,E =    2358, F=FEPOINT, ET=QUADRILATERAL
   0.00000000      -5.48999977     -0.157000005       992.621887       2.05256081    
   0.00000000      -4.76741982     -0.246999994       992.621887       2.05256081    
  0.930077016      -4.67581606     -0.246999994       992.621887       2.05256081    
   1.07104599      -5.38451099     -0.157000005       992.621887       2.05256081    
  -1.07104599      -5.38451099     -0.157000005       994.072083       2.05233622    
 -0.930077016      -4.67581606     -0.246999994       994.072083       2.05233622    
   0.00000000      -4.76741982     -0.246999994       994.072083       2.05233622    
   0.00000000      -5.48999977     -0.157000005       994.072083       2.05233622    
  -2.10093188      -5.07209921     -0.157000005       1003.36646       2.04322433    
  -1.82441294      -4.40452194     -0.246999994       1003.36646       2.04322433    
 -0.930077016      -4.67581606     -0.246999994       1003.36646       2.04322433    
  -1.07104599      -5.38451099     -0.157000005       1003.36646       2.04322433    
  -3.05008101      -4.56476784     -0.157000005       997.367004       2.05180597    
  -2.64863706      -3.96396494     -0.246999994       997.367004       2.05180597    
  -1.82441294      -4.40452194     -0.246999994       997.367004       2.05180597    
  -2.10093188      -5.07209921     -0.157000005       997.367004       2.05180597    
  -3.88201594      -3.88201594     -0.157000005       998.949036       2.05092812    
  -3.37107491      -3.37107491     -0.246999994       998.949036       2.05092812    
  -2.64863706      -3.96396494     -0.246999994       998.949036       2.05092812    
  -3.05008101      -4.56476784     -0.157000005       998.949036       2.05092812    
  -4.56476784      -3.05008101     -0.157000005       1009.34918       2.03904915    
  -3.96396494      -2.64863706     -0.246999994       1009.34918       2.03904915    
  -3.37107491      -3.37107491     -0.246999994       1009.34918       2.03904915    
  -3.88201594      -3.88201594     -0.157000005       1009.34918       2.03904915    
  -5.07209921      -2.10093188     -0.157000005       1000.28674       2.04912710    
  -4.40452194      -1.82441294     -0.246999994       1000.28674       2.04912710    
  -3.96396494      -2.64863706     -0.246999994       1000.28674       2.04912710    
  -4.56476784      -3.05008101     -0.157000005       1000.28674       2.04912710    
  -5.38451099      -1.07104599     -0.157000005       997.842651       2.05103993    
  -4.67581606     -0.930077016     -0.246999994       997.842651       2.05103993    
  -4.40452194      -1.82441294     -0.246999994       997.842651       2.05103993    
  -5.07209921      -2.10093188     -0.157000005       997.842651       2.05103993    
  -5.48999977       0.00000000     -0.157000005       1004.99506       2.04116988    
  -4.76741982       0.00000000     -0.246999994       1004.99506       2.04116988    
  -4.67581606     -0.930077016     -0.246999994       1004.99506       2.04116988    
  -5.38451099      -1.07104599     -0.157000005       1004.99506       2.04116988    
  -5.38451099       1.07104599     -0.157000005       1004.84210       2.03958368    
  -4.67581606      0.930077016     -0.246999994       1004.84210       2.03958368    
  -4.76741982       0.00000000     -0.246999994       1004.84210       2.03958368    
  -5.48999977       0.00000000     -0.157000005       1004.84210       2.03958368    
  -5.07209921       2.10093188     -0.157000005       1003.78864       2.03910065    
  -4.40452194       1.82441294     -0.246999994       1003.78864       2.03910065    
  -4.67581606      0.930077016     -0.246999994       1003.78864       2.03910065    
  -5.38451099       1.07104599     -0.157000005       1003.78864       2.03910065    
  -4.56476784       3.05008101     -0.157000005       1002.44727       2.03937984    
  -3.96396494       2.64863706     -0.246999994       1002.44727       2.03937984    
  -4.40452194       1.82441294     -0.246999994       1002.44727       2.03937984    
  -5.07209921       2.10093188     -0.157000005       1002.44727       2.03937984    
  -3.88201594       3.88201594     -0.157000005       994.311157       2.04815936    
  -3.37107491       3.37107491     -0.246999994       994.311157       2.04815936    
  -3.96396494       2.64863706     -0.246999994       994.311157       2.04815936    
  -4.56476784       3.05008101     -0.157000005       994.311157       2.04815936    
  -3.05008101       4.56476784     -0.157000005       1001.48486       2.03984857    
  -2.64863706       3.96396494     -0.246999994       1001.48486       2.03984857    
  -3.37107491       3.37107491     -0.246999994       1001.48486       2.03984857    
  -3.88201594       3.88201594     -0.157000005       1001.48486       2.03984857    
  -2.10093188       5.07209921     -0.157000005       994.685669       2.04812837    
  -1.82441294       4.40452194     -0.246999994       994.685669       2.04812837    
  -2.64863706       3.96396494     -0.246999994       994.685669       2.04812837    
  -3.05008101       4.56476784     -0.157000005       994.685669       2.04812837    
  -1.07104599       5.38451099     -0.157000005       1001.77283       2.04079986    
 -0.930077016       4.67581606     -0.246999994       1001.77283       2.04079986    
  -1.82441294       4.40452194     -0.246999994       1001.77283       2.04079986    
  -2.10093188       5.07209921     -0.157000005       1001.77283       2.04079986    
   0.00000000       5.48999977     -0.157000005       995.061340       2.04986572    
   0.00000000       4.76741982     -0.246999994       995.061340       2.04986572    
 -0.930077016       4.67581606     -0.246999994       995.061340       2.04986572    
  -1.07104599       5.38451099     -0.157000005       995.061340       2.04986572    
   1.07104599       5.38451099     -0.157000005       1002.68634       2.04269767    
  0.930077016       4.67581606     -0.246999994       1002.68634       2.04269767    
   0.00000000       4.76741982     -0.246999994       1002.68634       2.04269767    
   0.00000000       5.48999977     -0.157000005       1002.68634       2.04269767    
   2.10093188       5.07209921     -0.157000005       996.436829       2.05195594    
   1.82441294       4.40452194     -0.246999994       996.436829       2.05195594    
  0.930077016       4.67581606     -0.246999994       996.436829       2.05195594    
   1.07104599       5.38451099     -0.157000005       996.436829       2.05195594    
   3.05008101       4.56476784     -0.157000005       997.834351       2.05201936    
   2.64863706       3.96396494     -0.246999994       997.834351       2.05201936    
   1.82441294       4.40452194     -0.246999994       997.834351       2.05201936    
   2.10093188       5.07209921     -0.157000005       997.834351       2.05201936    
   3.88201594       3.88201594     -0.157000005       1008.51410       2.04063654    
   3.37107491       3.37107491     -0.246999994       1008.51410       2.04063654    
   2.64863706       3.96396494     -0.246999994       1008.51410       2.04063654    
   3.05008101       4.56476784     -0.157000005       1008.51410       2.04063654    
   4.56476784       3.05008101     -0.157000005       1007.85535       2.04163194    
   3.96396494       2.64863706     -0.246999994       1007.85535       2.04163194    
   3.37107491       3.37107491     -0.246999994       1007.85535       2.04163194    
   3.88201594       3.88201594     -0.157000005       1007.85535       2.04163194    
   5.07209921       2.10093188     -0.157000005       1009.73480       2.03914642    
   4.40452194       1.82441294     -0.246999994       1009.73480       2.03914642    
   3.96396494       2.64863706     -0.246999994       1009.73480       2.03914642    
   4.56476784       3.05008101     -0.157000005       1009.73480       2.03914642    
   5.38451099       1.07104599     -0.157000005       998.795898       2.05121136    
   4.67581606      0.930077016     -0.246999994       998.795898       2.05121136    
   4.40452194       1.82441294     -0.246999994       998.795898       2.05121136    
   5.07209921       2.10093188     -0.157000005       998.795898       2.05121136    
   5.48999977       0.00000000     -0.157000005       995.693237       2.05349565    
   4.76741982       0.00000000     -0.246999994       995.693237       2.05349565    
   4.67581606      0.930077016     -0.246999994       995.693237       2.05349565    
   5.38451099       1.07104599     -0.157000005       995.693237       2.05349565    
   5.38451099      -1.07104599     -0.157000005       994.126038       2.05354619    
   4.67581606     -0.930077016     -0.246999994       994.126038       2.05354619    
   4.76741982       0.00000000     -0.246999994       994.126038       2.05354619    
   5.48999977       0.00000000     -0.157000005       994.126038       2.05354619    
   5.07209921      -2.10093188     -0.157000005       993.013611       2.05305171    
   4.40452194      -1.82441294     -0.246999994       993.013611       2.05305171    
   4.67581606     -0.930077016     -0.246999994       993.013611       2.05305171    
   5.38451099      -1.07104599     -0.157000005       993.013611       2.05305171    
   4.56476784      -3.05008101     -0.157000005       992.447510       2.05228758    
   3.96396494      -2.64863706     -0.246999994       992.447510       2.05228758    
   4.40452194      -1.82441294     -0.246999994       992.447510       2.05228758    
   5.07209921      -2.10093188     -0.157000005       992.447510       2.05228758    
   3.88201594      -3.88201594     -0.157000005       993.065186       2.05071068    
   3.37107491      -3.37107491     -0.246999994       993.065186       2.05071068    
   3.96396494      -2.64863706     -0.246999994       993.065186       2.05071068    
   4.56476784      -3.05008101     -0.157000005       993.065186       2.05071068    
   3.05008101      -4.56476784     -0.157000005       1001.11371       2.04102349    
   2.64863706      -3.96396494     -0.246999994       1001.11371       2.04102349    
   3.37107491      -3.37107491     -0.246999994       1001.11371       2.04102349    
   3.88201594      -3.88201594     -0.157000005       1001.11371       2.04102349    
   2.10093188      -5.07209921     -0.157000005       993.436890       2.05003238    
   1.82441294      -4.40452194     -0.246999994       993.436890       2.05003238    
   2.64863706      -3.96396494     -0.246999994       993.436890       2.05003238    
   3.05008101      -4.56476784     -0.157000005       993.436890       2.05003238    
   1.07104599      -5.38451099     -0.157000005       992.396423       2.05183482    
  0.930077016      -4.67581606     -0.246999994       992.396423       2.05183482    
   1.82441294      -4.40452194     -0.246999994       992.396423       2.05183482    
   2.10093188      -5.07209921     -0.157000005       992.396423       2.05183482    
   0.00000000      -1.87709999     -0.606999993       2487.83862       1.66028202    
   0.00000000      -1.36500001     -0.606999993       2487.83862       1.66028202    
  0.266297996      -1.33877206     -0.606999993       2487.83862       1.66028202    
  0.366203994      -1.84103203     -0.606999993       2487.83862       1.66028202    
   0.00000000      -1.87709999     -0.606999993       2136.21948       1.66462135    
   0.00000000      -2.59967995     -0.517000020       2136.21948       1.66462135    
 -0.507171988      -2.54972792     -0.517000020       2136.21948       1.66462135    
 -0.366203994      -1.84103203     -0.606999993       2136.21948       1.66462135    
 -0.366203994      -1.84103203     -0.606999993       2488.25708       1.66032875    
 -0.266297996      -1.33877206     -0.606999993       2488.25708       1.66032875    
   0.00000000      -1.36500001     -0.606999993       2488.25708       1.66032875    
   0.00000000      -1.87709999     -0.606999993       2488.25708       1.66032875    
 -0.366203994      -1.84103203     -0.606999993       2131.60815       1.66485977    
 -0.507171988      -2.54972792     -0.517000020       2131.60815       1.66485977    
 -0.994853973      -2.40179110     -0.517000020       2131.60815       1.66485977    
 -0.718334973      -1.73421395     -0.606999993       2131.60815       1.66485977    
 -0.718334973      -1.73421395     -0.606999993       2486.58691       1.66044676    
 -0.522363007      -1.26109600     -0.606999993       2486.58691       1.66044676    
 -0.266297996      -1.33877206     -0.606999993       2486.58691       1.66044676    
 -0.366203994      -1.84103203     -0.606999993       2486.58691       1.66044676    
 -0.718334973      -1.73421395     -0.606999993       2127.96509       1.66502917    
 -0.994853973      -2.40179110     -0.517000020       2127.96509       1.66502917    
  -1.44430494      -2.16155505     -0.517000020       2127.96509       1.66502917    
  -1.04286098      -1.56075203     -0.606999993       2127.96509       1.66502917    
  -1.04286098      -1.56075203     -0.606999993       2485.84424       1.66050684    
 -0.758352995      -1.13495600     -0.606999993       2485.84424       1.66050684    
 -0.522363007      -1.26109600     -0.606999993       2485.84424       1.66050684    
 -0.718334973      -1.73421395     -0.606999993       2485.84424       1.66050684    
  -1.04286098      -1.56075203     -0.606999993       2129.71973       1.66496205    
  -1.44430494      -2.16155505     -0.517000020       2129.71973       1.66496205    
  -1.83825099      -1.83825099     -0.517000020       2129.71973       1.66496205    
  -1.32730997      -1.32730997     -0.606999993       2129.71973       1.66496205    
  -1.32730997      -1.32730997     -0.606999993       2488.26294       1.66041100    
 -0.965201020     -0.965201020     -0.606999993       2488.26294       1.66041100    
 -0.758352995      -1.13495600     -0.606999993       2488.26294       1.66041100    
  -1.04286098      -1.56075203     -0.606999993       2488.26294       1.66041100    
  -1.32730997      -1.32730997     -0.606999993       2135.85718       1.66469240    
  -1.83825099      -1.83825099     -0.517000020       2135.85718       1.66469240    
  -2.16155505      -1.44430494     -0.517000020       2135.85718       1.66469240    
  -1.56075203      -1.04286098     -0.606999993       2135.85718       1.66469240    
  -1.56075203      -1.04286098     -0.606999993       2493.30591       1.66022050    
  -1.13495600     -0.758352995     -0.606999993       2493.30591       1.66022050    
 -0.965201020     -0.965201020     -0.606999993       2493.30591       1.66022050    
  -1.32730997      -1.32730997     -0.606999993       2493.30591       1.66022050    
  -1.56075203      -1.04286098     -0.606999993       2140.92651       1.66442096    
  -2.16155505      -1.44430494     -0.517000020       2140.92651       1.66442096    
  -2.40179110     -0.994853973     -0.517000020       2140.92651       1.66442096    
  -1.73421395     -0.718334973     -0.606999993       2140.92651       1.66442096    
  -1.73421395     -0.718334973     -0.606999993       2497.85229       1.66000473    
  -1.26109600     -0.522363007     -0.606999993       2497.85229       1.66000473    
  -1.13495600     -0.758352995     -0.606999993       2497.85229       1.66000473    
  -1.56075203      -1.04286098     -0.606999993       2497.85229       1.66000473    
  -1.73421395     -0.718334973     -0.606999993       2140.83325       1.66433883    
  -2.40179110     -0.994853973     -0.517000020       2140.83325       1.66433883    
  -2.54972792     -0.507171988     -0.517000020       2140.83325       1.66433883    
  -1.84103203     -0.366203994     -0.606999993       2140.83325       1.66433883    
  -1.84103203     -0.366203994     -0.606999993       2499.56030       1.65987337    
  -1.33877206     -0.266297996     -0.606999993       2499.56030       1.65987337    
  -1.26109600     -0.522363007     -0.606999993       2499.56030       1.65987337    
  -1.73421395     -0.718334973     -0.606999993       2499.56030       1.65987337    
  -1.84103203     -0.366203994     -0.606999993       2138.18945       1.66435194    
  -2.54972792     -0.507171988     -0.517000020       2138.18945       1.66435194    
  -2.59967995       0.00000000     -0.517000020       2138.18945       1.66435194    
  -1.87709999       0.00000000     -0.606999993       2138.18945       1.66435194    
  -1.87709999       0.00000000     -0.606999993       2499.20264       1.65979254    
  -1.36500001       0.00000000     -0.606999993       2499.20264       1.65979254    
  -1.33877206     -0.266297996     -0.606999993       2499.20264       1.65979254    
  -1.84103203     -0.366203994     -0.606999993       2499.20264       1.65979254    
  -1.87709999       0.00000000     -0.606999993       2138.29443       1.66425014    
  -2.59967995       0.00000000     -0.517000020       2138.29443       1.66425014    
  -2.54972792      0.507171988     -0.517000020       2138.29443       1.66425014    
  -1.84103203      0.366203994     -0.606999993       2138.29443       1.66425014    
  -1.84103203      0.366203994     -0.606999993       2499.36621       1.65969515    
  -1.33877206      0.266297996     -0.606999993       2499.36621       1.65969515    
  -1.36500001       0.00000000     -0.606999993       2499.36621       1.65969515    
  -1.87709999       0.00000000     -0.606999993       2499.36621       1.65969515    
  -1.84103203      0.366203994     -0.606999993       2142.01807       1.66402519    
  -2.54972792      0.507171988     -0.517000020       2142.01807       1.66402519    
  -2.40179110      0.994853973     -0.517000020       2142.01807       1.66402519    
  -1.73421395      0.718334973     -0.606999993       2142.01807       1.66402519    
  -1.73421395      0.718334973     -0.606999993       2500.56323       1.65957057    
  -1.26109600      0.522363007     -0.606999993       2500.56323       1.65957057    
  -1.33877206      0.266297996     -0.606999993       2500.56323       1.65957057    
  -1.84103203      0.366203994     -0.606999993       2500.56323       1.65957057    
  -1.73421395      0.718334973     -0.606999993       2144.61499       1.66386664    
  -2.40179110      0.994853973     -0.517000020       2144.61499       1.66386664    
  -2.16155505       1.44430494     -0.517000020       2144.61499       1.66386664    
  -1.56075203       1.04286098     -0.606999993       2144.61499       1.66386664    
  -1.56075203       1.04286098     -0.606999993       2500.69360       1.65949881    
  -1.13495600      0.758352995     -0.606999993       2500.69360       1.65949881    
  -1.26109600      0.522363007     -0.606999993       2500.69360       1.65949881    
  -1.73421395      0.718334973     -0.606999993       2500.69360       1.65949881    
  -1.56075203       1.04286098     -0.606999993       2141.77271       1.66394305    
  -2.16155505       1.44430494     -0.517000020       2141.77271       1.66394305    
  -1.83825099       1.83825099     -0.517000020       2141.77271       1.66394305    
  -1.32730997       1.32730997     -0.606999993       2141.77271       1.66394305    
  -1.32730997       1.32730997     -0.606999993       2498.09839       1.65955007    
 -0.965201020      0.965201020     -0.606999993       2498.09839       1.65955007    
  -1.13495600      0.758352995     -0.606999993       2498.09839       1.65955007    
  -1.56075203       1.04286098     -0.606999993       2498.09839       1.65955007    
  -1.32730997       1.32730997     -0.606999993       2136.10498       1.66416335    
  -1.83825099       1.83825099     -0.517000020       2136.10498       1.66416335    
  -1.44430494       2.16155505     -0.517000020       2136.10498       1.66416335    
  -1.04286098       1.56075203     -0.606999993       2136.10498       1.66416335    
  -1.04286098       1.56075203     -0.606999993       2494.14551       1.65967560    
 -0.758352995       1.13495600     -0.606999993       2494.14551       1.65967560    
 -0.965201020      0.965201020     -0.606999993       2494.14551       1.65967560    
  -1.32730997       1.32730997     -0.606999993       2494.14551       1.65967560    
  -1.04286098       1.56075203     -0.606999993       2133.69556       1.66429710    
  -1.44430494       2.16155505     -0.517000020       2133.69556       1.66429710    
 -0.994853973       2.40179110     -0.517000020       2133.69556       1.66429710    
 -0.718334973       1.73421395     -0.606999993       2133.69556       1.66429710    
 -0.718334973       1.73421395     -0.606999993       2491.97339       1.65976322    
 -0.522363007       1.26109600     -0.606999993       2491.97339       1.65976322    
 -0.758352995       1.13495600     -0.606999993       2491.97339       1.65976322    
  -1.04286098       1.56075203     -0.606999993       2491.97339       1.65976322    
 -0.718334973       1.73421395     -0.606999993       2136.67090       1.66423571    
 -0.994853973       2.40179110     -0.517000020       2136.67090       1.66423571    
 -0.507171988       2.54972792     -0.517000020       2136.67090       1.66423571    
 -0.366203994       1.84103203     -0.606999993       2136.67090       1.66423571    
 -0.366203994       1.84103203     -0.606999993       2492.84375       1.65978742    
 -0.266297996       1.33877206     -0.606999993       2492.84375       1.65978742    
 -0.522363007       1.26109600     -0.606999993       2492.84375       1.65978742    
 -0.718334973       1.73421395     -0.606999993       2492.84375       1.65978742    
 -0.366203994       1.84103203     -0.606999993       2141.09351       1.66414201    
 -0.507171988       2.54972792     -0.517000020       2141.09351       1.66414201    
   0.00000000       2.59967995     -0.517000020       2141.09351       1.66414201    
   0.00000000       1.87709999     -0.606999993       2141.09351       1.66414201    
   0.00000000       1.87709999     -0.606999993       2494.69580       1.65979898    
   0.00000000       1.36500001     -0.606999993       2494.69580       1.65979898    
 -0.266297996       1.33877206     -0.606999993       2494.69580       1.65979898    
 -0.366203994       1.84103203     -0.606999993       2494.69580       1.65979898    
   0.00000000       1.87709999     -0.606999993       2141.26196       1.66423416    
   0.00000000       2.59967995     -0.517000020       2141.26196       1.66423416    
  0.507171988       2.54972792     -0.517000020       2141.26196       1.66423416    
  0.366203994       1.84103203     -0.606999993       2141.26196       1.66423416    
  0.366203994       1.84103203     -0.606999993       2494.92969       1.65988266    
  0.266297996       1.33877206     -0.606999993       2494.92969       1.65988266    
   0.00000000       1.36500001     -0.606999993       2494.92969       1.65988266    
   0.00000000       1.87709999     -0.606999993       2494.92969       1.65988266    
  0.366203994       1.84103203     -0.606999993       2137.12866       1.66447425    
  0.507171988       2.54972792     -0.517000020       2137.12866       1.66447425    
  0.994853973       2.40179110     -0.517000020       2137.12866       1.66447425    
  0.718334973       1.73421395     -0.606999993       2137.12866       1.66447425    
  0.718334973       1.73421395     -0.606999993       2493.46118       1.66001296    
  0.522363007       1.26109600     -0.606999993       2493.46118       1.66001296    
  0.266297996       1.33877206     -0.606999993       2493.46118       1.66001296    
  0.366203994       1.84103203     -0.606999993       2493.46118       1.66001296    
  0.718334973       1.73421395     -0.606999993       2134.41138       1.66464007    
  0.994853973       2.40179110     -0.517000020       2134.41138       1.66464007    
   1.44430494       2.16155505     -0.517000020       2134.41138       1.66464007    
   1.04286098       1.56075203     -0.606999993       2134.41138       1.66464007    
   1.04286098       1.56075203     -0.606999993       2492.97363       1.66009128    
  0.758352995       1.13495600     -0.606999993       2492.97363       1.66009128    
  0.522363007       1.26109600     -0.606999993       2492.97363       1.66009128    
  0.718334973       1.73421395     -0.606999993       2492.97363       1.66009128    
   1.04286098       1.56075203     -0.606999993       2136.99121       1.66459119    
   1.44430494       2.16155505     -0.517000020       2136.99121       1.66459119    
   1.83825099       1.83825099     -0.517000020       2136.99121       1.66459119    
   1.32730997       1.32730997     -0.606999993       2136.99121       1.66459119    
   1.32730997       1.32730997     -0.606999993       2495.30859       1.66006863    
  0.965201020      0.965201020     -0.606999993       2495.30859       1.66006863    
  0.758352995       1.13495600     -0.606999993       2495.30859       1.66006863    
   1.04286098       1.56075203     -0.606999993       2495.30859       1.66006863    
   1.32730997       1.32730997     -0.606999993       2142.62256       1.66438830    
   1.83825099       1.83825099     -0.517000020       2142.62256       1.66438830    
   2.16155505       1.44430494     -0.517000020       2142.62256       1.66438830    
   1.56075203       1.04286098     -0.606999993       2142.62256       1.66438830    
   1.56075203       1.04286098     -0.606999993       2499.16187       1.65996861    
   1.13495600      0.758352995     -0.606999993       2499.16187       1.65996861    
  0.965201020      0.965201020     -0.606999993       2499.16187       1.65996861    
   1.32730997       1.32730997     -0.606999993       2499.16187       1.65996861    
   1.56075203       1.04286098     -0.606999993       2145.18066       1.66429496    
   2.16155505       1.44430494     -0.517000020       2145.18066       1.66429496    
   2.40179110      0.994853973     -0.517000020       2145.18066       1.66429496    
   1.73421395      0.718334973     -0.606999993       2145.18066       1.66429496    
   1.73421395      0.718334973     -0.606999993       2501.23169       1.65989172    
   1.26109600      0.522363007     -0.606999993       2501.23169       1.65989172    
   1.13495600      0.758352995     -0.606999993       2501.23169       1.65989172    
   1.56075203       1.04286098     -0.606999993       2501.23169       1.65989172    
   1.73421395      0.718334973     -0.606999993       2142.05420       1.66441488    
   2.40179110      0.994853973     -0.517000020       2142.05420       1.66441488    
   2.54972792      0.507171988     -0.517000020       2142.05420       1.66441488    
   1.84103203      0.366203994     -0.606999993       2142.05420       1.66441488    
   1.84103203      0.366203994     -0.606999993       2500.38818       1.65988779    
   1.33877206      0.266297996     -0.606999993       2500.38818       1.65988779    
   1.26109600      0.522363007     -0.606999993       2500.38818       1.65988779    
   1.73421395      0.718334973     -0.606999993       2500.38818       1.65988779    
   1.84103203      0.366203994     -0.606999993       2137.73633       1.66454875    
   2.54972792      0.507171988     -0.517000020       2137.73633       1.66454875    
   2.59967995       0.00000000     -0.517000020       2137.73633       1.66454875    
   1.87709999       0.00000000     -0.606999993       2137.73633       1.66454875    
   1.87709999       0.00000000     -0.606999993       2498.45654       1.65990651    
   1.36500001       0.00000000     -0.606999993       2498.45654       1.65990651    
   1.33877206      0.266297996     -0.606999993       2498.45654       1.65990651    
   1.84103203      0.366203994     -0.606999993       2498.45654       1.65990651    
   1.87709999       0.00000000     -0.606999993       2137.08276       1.66452849    
   2.59967995       0.00000000     -0.517000020       2137.08276       1.66452849    
   2.54972792     -0.507171988     -0.517000020       2137.08276       1.66452849    
   1.84103203     -0.366203994     -0.606999993       2137.08276       1.66452849    
   1.84103203     -0.366203994     -0.606999993       2497.60742       1.65986931    
   1.33877206     -0.266297996     -0.606999993       2497.60742       1.65986931    
   1.36500001       0.00000000     -0.606999993       2497.60742       1.65986931    
   1.87709999       0.00000000     -0.606999993       2497.60742       1.65986931    
   1.84103203     -0.366203994     -0.606999993       2139.30200       1.66438961    
   2.54972792     -0.507171988     -0.517000020       2139.30200       1.66438961    
   2.40179110     -0.994853973     -0.517000020       2139.30200       1.66438961    
   1.73421395     -0.718334973     -0.606999993       2139.30200       1.66438961    
   1.73421395     -0.718334973     -0.606999993       2497.40308       1.65982544    
   1.26109600     -0.522363007     -0.606999993       2497.40308       1.65982544    
   1.33877206     -0.266297996     -0.606999993       2497.40308       1.65982544    
   1.84103203     -0.366203994     -0.606999993       2497.40308       1.65982544    
   1.73421395     -0.718334973     -0.606999993       2139.16772       1.66434276    
   2.40179110     -0.994853973     -0.517000020       2139.16772       1.66434276    
   2.16155505      -1.44430494     -0.517000020       2139.16772       1.66434276    
   1.56075203      -1.04286098     -0.606999993       2139.16772       1.66434276    
   1.56075203      -1.04286098     -0.606999993       2495.46313       1.65985930    
   1.13495600     -0.758352995     -0.606999993       2495.46313       1.65985930    
   1.26109600     -0.522363007     -0.606999993       2495.46313       1.65985930    