 VARIABLES="X" "Y" "Z" "abs(p) (Pa)" "angle(p) (rad)"
ZONE N=   2709,E =    2358, F=FEPOINT, ET=QUADRILATERAL
   0.00000000      -5.48999977     -0.157000005       4573.99854      -1.59069622    
   0.00000000      -4.76741982     -0.246999994       4573.99854      -1.59069622    
  0.930077016      -4.67581606     -0.246999994       4573.99854      -1.59069622    
   1.07104599      -5.38451099     -0.157000005       4573.99854      -1.59069622    
  -1.07104599      -5.38451099     -0.157000005       4576.68359      -1.59072852    
 -0.930077016      -4.67581606     -0.246999994       4576.68359      -1.59072852    
   0.00000000      -4.76741982     -0.246999994       4576.68359      -1.59072852    
   0.00000000      -5.48999977     -0.157000005       4576.68359      -1.59072852    
  -2.10093188      -5.07209921     -0.157000005       4454.27344      -1.58627462    
  -1.82441294      -4.40452194     -0.246999994       4454.27344      -1.58627462    
 -0.930077016      -4.67581606     -0.246999994       4454.27344      -1.58627462    
  -1.07104599      -5.38451099     -0.157000005       4454.27344      -1.58627462    
  -3.05008101      -4.56476784     -0.157000005       4059.40894      -1.59036136    
  -2.64863706      -3.96396494     -0.246999994       4059.40894      -1.59036136    
  -1.82441294      -4.40452194     -0.246999994       4059.40894      -1.59036136    
  -2.10093188      -5.07209921     -0.157000005       4059.40894      -1.59036136    
  -3.88201594      -3.88201594     -0.157000005       3553.43335      -1.59077907    
  -3.37107491      -3.37107491     -0.246999994       3553.43335      -1.59077907    
  -2.64863706      -3.96396494     -0.246999994       3553.43335      -1.59077907    
  -3.05008101      -4.56476784     -0.157000005       3553.43335      -1.59077907    
  -4.56476784      -3.05008101     -0.157000005       2948.66968      -1.58705807    
  -3.96396494      -2.64863706     -0.246999994       2948.66968      -1.58705807    
  -3.37107491      -3.37107491     -0.246999994       2948.66968      -1.58705807    
  -3.88201594      -3.88201594     -0.157000005       2948.66968      -1.58705807    
  -5.07209921      -2.10093188     -0.157000005       2165.88477      -1.59033978    
  -4.40452194      -1.82441294     -0.246999994       2165.88477      -1.59033978    
  -3.96396494      -2.64863706     -0.246999994       2165.88477      -1.59033978    
  -4.56476784      -3.05008101     -0.157000005       2165.88477      -1.59033978    
  -5.38451099      -1.07104599     -0.157000005       1331.54358      -1.59094715    
  -4.67581606     -0.930077016     -0.246999994       1331.54358      -1.59094715    
  -4.40452194      -1.82441294     -0.246999994       1331.54358      -1.59094715    
  -5.07209921      -2.10093188     -0.157000005       1331.54358      -1.59094715    
  -5.48999977       0.00000000     -0.157000005       451.489838      -1.58823669    
  -4.76741982       0.00000000     -0.246999994       451.489838      -1.58823669    
  -4.67581606     -0.930077016     -0.246999994       451.489838      -1.58823669    
  -5.38451099      -1.07104599     -0.157000005       451.489838      -1.58823669    
  -5.38451099       1.07104599     -0.157000005       461.495514       1.55723882    
  -4.67581606      0.930077016     -0.246999994       461.495514       1.55723882    
  -4.76741982       0.00000000     -0.246999994       461.495514       1.55723882    
  -5.48999977       0.00000000     -0.157000005       461.495514       1.55723882    
  -5.07209921       2.10093188     -0.157000005       1358.69580       1.55625093    
  -4.40452194       1.82441294     -0.246999994       1358.69580       1.55625093    
  -4.67581606      0.930077016     -0.246999994       1358.69580       1.55625093    
  -5.38451099       1.07104599     -0.157000005       1358.69580       1.55625093    
  -4.56476784       3.05008101     -0.157000005       2201.54517       1.55593622    
  -3.96396494       2.64863706     -0.246999994       2201.54517       1.55593622    
  -4.40452194       1.82441294     -0.246999994       2201.54517       1.55593622    
  -5.07209921       2.10093188     -0.157000005       2201.54517       1.55593622    
  -3.88201594       3.88201594     -0.157000005       2923.80908       1.55146194    
  -3.37107491       3.37107491     -0.246999994       2923.80908       1.55146194    
  -3.96396494       2.64863706     -0.246999994       2923.80908       1.55146194    
  -4.56476784       3.05008101     -0.157000005       2923.80908       1.55146194    
  -3.05008101       4.56476784     -0.157000005       3603.37939       1.55561507    
  -2.64863706       3.96396494     -0.246999994       3603.37939       1.55561507    
  -3.37107491       3.37107491     -0.246999994       3603.37939       1.55561507    
  -3.88201594       3.88201594     -0.157000005       3603.37939       1.55561507    
  -2.10093188       5.07209921     -0.157000005       4063.15576       1.55118883    
  -1.82441294       4.40452194     -0.246999994       4063.15576       1.55118883    
  -2.64863706       3.96396494     -0.246999994       4063.15576       1.55118883    
  -3.05008101       4.56476784     -0.157000005       4063.15576       1.55118883    
  -1.07104599       5.38451099     -0.157000005       4457.83203       1.55555642    
 -0.930077016       4.67581606     -0.246999994       4457.83203       1.55555642    
  -1.82441294       4.40452194     -0.246999994       4457.83203       1.55555642    
  -2.10093188       5.07209921     -0.157000005       4457.83203       1.55555642    
   0.00000000       5.48999977     -0.157000005       4585.13135       1.55134523    
   0.00000000       4.76741982     -0.246999994       4585.13135       1.55134523    
 -0.930077016       4.67581606     -0.246999994       4585.13135       1.55134523    
  -1.07104599       5.38451099     -0.157000005       4585.13135       1.55134523    
   1.07104599       5.38451099     -0.157000005       4634.49170       1.55535197    
  0.930077016       4.67581606     -0.246999994       4634.49170       1.55535197    
   0.00000000       4.76741982     -0.246999994       4634.49170       1.55535197    
   0.00000000       5.48999977     -0.157000005       4634.49170       1.55535197    
   2.10093188       5.07209921     -0.157000005       4404.32715       1.55137610    
   1.82441294       4.40452194     -0.246999994       4404.32715       1.55137610    
  0.930077016       4.67581606     -0.246999994       4404.32715       1.55137610    
   1.07104599       5.38451099     -0.157000005       4404.32715       1.55137610    
   3.05008101       4.56476784     -0.157000005       4056.16479       1.55107045    
   2.64863706       3.96396494     -0.246999994       4056.16479       1.55107045    
   1.82441294       4.40452194     -0.246999994       4056.16479       1.55107045    
   2.10093188       5.07209921     -0.157000005       4056.16479       1.55107045    
   3.88201594       3.88201594     -0.157000005       3598.17847       1.55527449    
   3.37107491       3.37107491     -0.246999994       3598.17847       1.55527449    
   2.64863706       3.96396494     -0.246999994       3598.17847       1.55527449    
   3.05008101       4.56476784     -0.157000005       3598.17847       1.55527449    
   4.56476784       3.05008101     -0.157000005       2933.58691       1.55268228    
   3.96396494       2.64863706     -0.246999994       2933.58691       1.55268228    
   3.37107491       3.37107491     -0.246999994       2933.58691       1.55268228    
   3.88201594       3.88201594     -0.157000005       2933.58691       1.55268228    
   5.07209921       2.10093188     -0.157000005       2189.79688       1.55544209    
   4.40452194       1.82441294     -0.246999994       2189.79688       1.55544209    
   3.96396494       2.64863706     -0.246999994       2189.79688       1.55544209    
   4.56476784       3.05008101     -0.157000005       2189.79688       1.55544209    
   5.38451099       1.07104599     -0.157000005       1334.61377       1.55052304    
   4.67581606      0.930077016     -0.246999994       1334.61377       1.55052304    
   4.40452194       1.82441294     -0.246999994       1334.61377       1.55052304    
   5.07209921       2.10093188     -0.157000005       1334.61377       1.55052304    
   5.48999977       0.00000000     -0.157000005       449.407318       1.55108905    
   4.76741982       0.00000000     -0.246999994       449.407318       1.55108905    
   4.67581606      0.930077016     -0.246999994       449.407318       1.55108905    
   5.38451099       1.07104599     -0.157000005       449.407318       1.55108905    
   5.38451099      -1.07104599     -0.157000005       453.409851      -1.59178257    
   4.67581606     -0.930077016     -0.246999994       453.409851      -1.59178257    
   4.76741982       0.00000000     -0.246999994       453.409851      -1.59178257    
   5.48999977       0.00000000     -0.157000005       453.409851      -1.59178257    
   5.07209921      -2.10093188     -0.157000005       1336.34692      -1.59039974    
   4.40452194      -1.82441294     -0.246999994       1336.34692      -1.59039974    
   4.67581606     -0.930077016     -0.246999994       1336.34692      -1.59039974    
   5.38451099      -1.07104599     -0.157000005       1336.34692      -1.59039974    
   4.56476784      -3.05008101     -0.157000005       2168.12305      -1.59068298    
   3.96396494      -2.64863706     -0.246999994       2168.12305      -1.59068298    
   4.40452194      -1.82441294     -0.246999994       2168.12305      -1.59068298    
   5.07209921      -2.10093188     -0.157000005       2168.12305      -1.59068298    
   3.88201594      -3.88201594     -0.157000005       2920.27637      -1.59068012    
   3.37107491      -3.37107491     -0.246999994       2920.27637      -1.59068012    
   3.96396494      -2.64863706     -0.246999994       2920.27637      -1.59068012    
   4.56476784      -3.05008101     -0.157000005       2920.27637      -1.59068012    
   3.05008101      -4.56476784     -0.157000005       3602.13379      -1.58608854    
   2.64863706      -3.96396494     -0.246999994       3602.13379      -1.58608854    
   3.37107491      -3.37107491     -0.246999994       3602.13379      -1.58608854    
   3.88201594      -3.88201594     -0.157000005       3602.13379      -1.58608854    
   2.10093188      -5.07209921     -0.157000005       4059.74316      -1.59050894    
   1.82441294      -4.40452194     -0.246999994       4059.74316      -1.59050894    
   2.64863706      -3.96396494     -0.246999994       4059.74316      -1.59050894    
   3.05008101      -4.56476784     -0.157000005       4059.74316      -1.59050894    
   1.07104599      -5.38451099     -0.157000005       4398.81641      -1.59078670    
  0.930077016      -4.67581606     -0.246999994       4398.81641      -1.59078670    
   1.82441294      -4.40452194     -0.246999994       4398.81641      -1.59078670    
   2.10093188      -5.07209921     -0.157000005       4398.81641      -1.59078670    
   0.00000000      -1.87709999     -0.606999993       2501.54126      -1.57071757    
   0.00000000      -1.36500001     -0.606999993       2501.54126      -1.57071757    
  0.266297996      -1.33877206     -0.606999993       2501.54126      -1.57071757    
  0.366203994      -1.84103203     -0.606999993       2501.54126      -1.57071757    
   0.00000000      -1.87709999     -0.606999993       1289.08655      -1.57099545    
   0.00000000      -2.59967995     -0.517000020       1289.08655      -1.57099545    
 -0.507171988      -2.54972792     -0.517000020       1289.08655      -1.57099545    
 -0.366203994      -1.84103203     -0.606999993       1289.08655      -1.57099545    
 -0.366203994      -1.84103203     -0.606999993       2501.25659      -1.57071662    
 -0.266297996      -1.33877206     -0.606999993       2501.25659      -1.57071662    
   0.00000000      -1.36500001     -0.606999993       2501.25659      -1.57071662    
   0.00000000      -1.87709999     -0.606999993       2501.25659      -1.57071662    
 -0.366203994      -1.84103203     -0.606999993       1236.79309      -1.57092261    
 -0.507171988      -2.54972792     -0.517000020       1236.79309      -1.57092261    
 -0.994853973      -2.40179110     -0.517000020       1236.79309      -1.57092261    
 -0.718334973      -1.73421395     -0.606999993       1236.79309      -1.57092261    
 -0.718334973      -1.73421395     -0.606999993       2403.92749      -1.57072008    
 -0.522363007      -1.26109600     -0.606999993       2403.92749      -1.57072008    
 -0.266297996      -1.33877206     -0.606999993       2403.92749      -1.57072008    
 -0.366203994      -1.84103203     -0.606999993       2403.92749      -1.57072008    
 -0.718334973      -1.73421395     -0.606999993       1138.26514      -1.57085192    
 -0.994853973      -2.40179110     -0.517000020       1138.26514      -1.57085192    
  -1.44430494      -2.16155505     -0.517000020       1138.26514      -1.57085192    
  -1.04286098      -1.56075203     -0.606999993       1138.26514      -1.57085192    
  -1.04286098      -1.56075203     -0.606999993       2214.79590      -1.57069790    
 -0.758352995      -1.13495600     -0.606999993       2214.79590      -1.57069790    
 -0.522363007      -1.26109600     -0.606999993       2214.79590      -1.57069790    
 -0.718334973      -1.73421395     -0.606999993       2214.79590      -1.57069790    
  -1.04286098      -1.56075203     -0.606999993       999.176575      -1.57084322    
  -1.44430494      -2.16155505     -0.517000020       999.176575      -1.57084322    
  -1.83825099      -1.83825099     -0.517000020       999.176575      -1.57084322    
  -1.32730997      -1.32730997     -0.606999993       999.176575      -1.57084322    
  -1.32730997      -1.32730997     -0.606999993       1941.52954      -1.57070816    
 -0.965201020     -0.965201020     -0.606999993       1941.52954      -1.57070816    
 -0.758352995      -1.13495600     -0.606999993       1941.52954      -1.57070816    
  -1.04286098      -1.56075203     -0.606999993       1941.52954      -1.57070816    
  -1.32730997      -1.32730997     -0.606999993       822.393677      -1.57089782    
  -1.83825099      -1.83825099     -0.517000020       822.393677      -1.57089782    
  -2.16155505      -1.44430494     -0.517000020       822.393677      -1.57089782    
  -1.56075203      -1.04286098     -0.606999993       822.393677      -1.57089782    
  -1.56075203      -1.04286098     -0.606999993       1593.59070      -1.57072580    
  -1.13495600     -0.758352995     -0.606999993       1593.59070      -1.57072580    
 -0.965201020     -0.965201020     -0.606999993       1593.59070      -1.57072580    
  -1.32730997      -1.32730997     -0.606999993       1593.59070      -1.57072580    
  -1.56075203      -1.04286098     -0.606999993       611.674011      -1.57098544    
  -2.16155505      -1.44430494     -0.517000020       611.674011      -1.57098544    
  -2.40179110     -0.994853973     -0.517000020       611.674011      -1.57098544    
  -1.73421395     -0.718334973     -0.606999993       611.674011      -1.57098544    
  -1.73421395     -0.718334973     -0.606999993       1183.33826      -1.57076216    
  -1.26109600     -0.522363007     -0.606999993       1183.33826      -1.57076216    
  -1.13495600     -0.758352995     -0.606999993       1183.33826      -1.57076216    
  -1.56075203      -1.04286098     -0.606999993       1183.33826      -1.57076216    
  -1.73421395     -0.718334973     -0.606999993       375.431549      -1.57108426    
  -2.40179110     -0.994853973     -0.517000020       375.431549      -1.57108426    
  -2.54972792     -0.507171988     -0.517000020       375.431549      -1.57108426    
  -1.84103203     -0.366203994     -0.606999993       375.431549      -1.57108426    
  -1.84103203     -0.366203994     -0.606999993       726.560852      -1.57085514    
  -1.33877206     -0.266297996     -0.606999993       726.560852      -1.57085514    
  -1.26109600     -0.522363007     -0.606999993       726.560852      -1.57085514    
  -1.73421395     -0.718334973     -0.606999993       726.560852      -1.57085514    
  -1.84103203     -0.366203994     -0.606999993       125.597069      -1.57140052    
  -2.54972792     -0.507171988     -0.517000020       125.597069      -1.57140052    
  -2.59967995       0.00000000     -0.517000020       125.597069      -1.57140052    
  -1.87709999       0.00000000     -0.606999993       125.597069      -1.57140052    
  -1.87709999       0.00000000     -0.606999993       241.751831      -1.57131445    
  -1.36500001       0.00000000     -0.606999993       241.751831      -1.57131445    
  -1.33877206     -0.266297996     -0.606999993       241.751831      -1.57131445    
  -1.84103203     -0.366203994     -0.606999993       241.751831      -1.57131445    
  -1.87709999       0.00000000     -0.606999993       127.556953       1.57102609    
  -2.59967995       0.00000000     -0.517000020       127.556953       1.57102609    
  -2.54972792      0.507171988     -0.517000020       127.556953       1.57102609    
  -1.84103203      0.366203994     -0.606999993       127.556953       1.57102609    
  -1.84103203      0.366203994     -0.606999993       251.920334       1.57158363    
  -1.33877206      0.266297996     -0.606999993       251.920334       1.57158363    
  -1.36500001       0.00000000     -0.606999993       251.920334       1.57158363    
  -1.87709999       0.00000000     -0.606999993       251.920334       1.57158363    
  -1.84103203      0.366203994     -0.606999993       376.733734       1.57074428    
  -2.54972792      0.507171988     -0.517000020       376.733734       1.57074428    
  -2.40179110      0.994853973     -0.517000020       376.733734       1.57074428    
  -1.73421395      0.718334973     -0.606999993       376.733734       1.57074428    
  -1.73421395      0.718334973     -0.606999993       735.927368       1.57116675    
  -1.26109600      0.522363007     -0.606999993       735.927368       1.57116675    
  -1.33877206      0.266297996     -0.606999993       735.927368       1.57116675    
  -1.84103203      0.366203994     -0.606999993       735.927368       1.57116675    
  -1.73421395      0.718334973     -0.606999993       612.675903       1.57070911    
  -2.40179110      0.994853973     -0.517000020       612.675903       1.57070911    
  -2.16155505       1.44430494     -0.517000020       612.675903       1.57070911    
  -1.56075203       1.04286098     -0.606999993       612.675903       1.57070911    
  -1.56075203       1.04286098     -0.606999993       1191.62695       1.57108390    
  -1.13495600      0.758352995     -0.606999993       1191.62695       1.57108390    
  -1.26109600      0.522363007     -0.606999993       1191.62695       1.57108390    
  -1.73421395      0.718334973     -0.606999993       1191.62695       1.57108390    
  -1.56075203       1.04286098     -0.606999993       823.629761       1.57075369    
  -2.16155505       1.44430494     -0.517000020       823.629761       1.57075369    
  -1.83825099       1.83825099     -0.517000020       823.629761       1.57075369    
  -1.32730997       1.32730997     -0.606999993       823.629761       1.57075369    
  -1.32730997       1.32730997     -0.606999993       1600.71558       1.57106137    
 -0.965201020      0.965201020     -0.606999993       1600.71558       1.57106137    
  -1.13495600      0.758352995     -0.606999993       1600.71558       1.57106137    
  -1.56075203       1.04286098     -0.606999993       1600.71558       1.57106137    
  -1.32730997       1.32730997     -0.606999993       1000.57312       1.57080293    
  -1.83825099       1.83825099     -0.517000020       1000.57312       1.57080293    
  -1.44430494       2.16155505     -0.517000020       1000.57312       1.57080293    
  -1.04286098       1.56075203     -0.606999993       1000.57312       1.57080293    
  -1.04286098       1.56075203     -0.606999993       1947.28369       1.57105243    
 -0.758352995       1.13495600     -0.606999993       1947.28369       1.57105243    
 -0.965201020      0.965201020     -0.606999993       1947.28369       1.57105243    
  -1.32730997       1.32730997     -0.606999993       1947.28369       1.57105243    
  -1.04286098       1.56075203     -0.606999993       1139.51355       1.57081079    
  -1.44430494       2.16155505     -0.517000020       1139.51355       1.57081079    
 -0.994853973       2.40179110     -0.517000020       1139.51355       1.57081079    
 -0.718334973       1.73421395     -0.606999993       1139.51355       1.57081079    
 -0.718334973       1.73421395     -0.606999993       2219.27148       1.57104492    
 -0.522363007       1.26109600     -0.606999993       2219.27148       1.57104492    
 -0.758352995       1.13495600     -0.606999993       2219.27148       1.57104492    
  -1.04286098       1.56075203     -0.606999993       2219.27148       1.57104492    
 -0.718334973       1.73421395     -0.606999993       1237.75256       1.57075334    
 -0.994853973       2.40179110     -0.517000020       1237.75256       1.57075334    
 -0.507171988       2.54972792     -0.517000020       1237.75256       1.57075334    
 -0.366203994       1.84103203     -0.606999993       1237.75256       1.57075334    
 -0.366203994       1.84103203     -0.606999993       2407.18872       1.57103193    
 -0.266297996       1.33877206     -0.606999993       2407.18872       1.57103193    
 -0.522363007       1.26109600     -0.606999993       2407.18872       1.57103193    
 -0.718334973       1.73421395     -0.606999993       2407.18872       1.57103193    
 -0.366203994       1.84103203     -0.606999993       1289.86853       1.57069182    
 -0.507171988       2.54972792     -0.517000020       1289.86853       1.57069182    
   0.00000000       2.59967995     -0.517000020       1289.86853       1.57069182    
   0.00000000       1.87709999     -0.606999993       1289.86853       1.57069182    
   0.00000000       1.87709999     -0.606999993       2503.26636       1.57102358    
   0.00000000       1.36500001     -0.606999993       2503.26636       1.57102358    
 -0.266297996       1.33877206     -0.606999993       2503.26636       1.57102358    
 -0.366203994       1.84103203     -0.606999993       2503.26636       1.57102358    
   0.00000000       1.87709999     -0.606999993       1289.67822       1.57069385    
   0.00000000       2.59967995     -0.517000020       1289.67822       1.57069385    
  0.507171988       2.54972792     -0.517000020       1289.67822       1.57069385    
  0.366203994       1.84103203     -0.606999993       1289.67822       1.57069385    
  0.366203994       1.84103203     -0.606999993       2502.25513       1.57102525    
  0.266297996       1.33877206     -0.606999993       2502.25513       1.57102525    
   0.00000000       1.36500001     -0.606999993       2502.25513       1.57102525    
   0.00000000       1.87709999     -0.606999993       2502.25513       1.57102525    
  0.366203994       1.84103203     -0.606999993       1237.24182       1.57076395    
  0.507171988       2.54972792     -0.517000020       1237.24182       1.57076395    
  0.994853973       2.40179110     -0.517000020       1237.24182       1.57076395    
  0.718334973       1.73421395     -0.606999993       1237.24182       1.57076395    
  0.718334973       1.73421395     -0.606999993       2404.29492       1.57102334    
  0.522363007       1.26109600     -0.606999993       2404.29492       1.57102334    
  0.266297996       1.33877206     -0.606999993       2404.29492       1.57102334    
  0.366203994       1.84103203     -0.606999993       2404.29492       1.57102334    
  0.718334973       1.73421395     -0.606999993       1138.78296       1.57082570    
  0.994853973       2.40179110     -0.517000020       1138.78296       1.57082570    
   1.44430494       2.16155505     -0.517000020       1138.78296       1.57082570    
   1.04286098       1.56075203     -0.606999993       1138.78296       1.57082570    
   1.04286098       1.56075203     -0.606999993       2214.78882       1.57104993    
  0.758352995       1.13495600     -0.606999993       2214.78882       1.57104993    
  0.522363007       1.26109600     -0.606999993       2214.78882       1.57104993    
  0.718334973       1.73421395     -0.606999993       2214.78882       1.57104993    
   1.04286098       1.56075203     -0.606999993       999.732483       1.57084012    
   1.44430494       2.16155505     -0.517000020       999.732483       1.57084012    
   1.83825099       1.83825099     -0.517000020       999.732483       1.57084012    
   1.32730997       1.32730997     -0.606999993       999.732483       1.57084012    
   1.32730997       1.32730997     -0.606999993       1941.48364       1.57106662    
  0.965201020      0.965201020     -0.606999993       1941.48364       1.57106662    
  0.758352995       1.13495600     -0.606999993       1941.48364       1.57106662    
   1.04286098       1.56075203     -0.606999993       1941.48364       1.57106662    
   1.32730997       1.32730997     -0.606999993       822.641785       1.57079828    
   1.83825099       1.83825099     -0.517000020       822.641785       1.57079828    
   2.16155505       1.44430494     -0.517000020       822.641785       1.57079828    
   1.56075203       1.04286098     -0.606999993       822.641785       1.57079828    
   1.56075203       1.04286098     -0.606999993       1593.80701       1.57107925    
   1.13495600      0.758352995     -0.606999993       1593.80701       1.57107925    
  0.965201020      0.965201020     -0.606999993       1593.80701       1.57107925    
   1.32730997       1.32730997     -0.606999993       1593.80701       1.57107925    
   1.56075203       1.04286098     -0.606999993       611.362671       1.57077742    
   2.16155505       1.44430494     -0.517000020       611.362671       1.57077742    
   2.40179110      0.994853973     -0.517000020       611.362671       1.57077742    
   1.73421395      0.718334973     -0.606999993       611.362671       1.57077742    
   1.73421395      0.718334973     -0.606999993       1183.22571       1.57110810    
   1.26109600      0.522363007     -0.606999993       1183.22571       1.57110810    
   1.13495600      0.758352995     -0.606999993       1183.22571       1.57110810    
   1.56075203       1.04286098     -0.606999993       1183.22571       1.57110810    
   1.73421395      0.718334973     -0.606999993       374.984009       1.57084477    
   2.40179110      0.994853973     -0.517000020       374.984009       1.57084477    
   2.54972792      0.507171988     -0.517000020       374.984009       1.57084477    
   1.84103203      0.366203994     -0.606999993       374.984009       1.57084477    
   1.84103203      0.366203994     -0.606999993       725.981628       1.57120955    
   1.33877206      0.266297996     -0.606999993       725.981628       1.57120955    
   1.26109600      0.522363007     -0.606999993       725.981628       1.57120955    
   1.73421395      0.718334973     -0.606999993       725.981628       1.57120955    
   1.84103203      0.366203994     -0.606999993       125.571754       1.57142782    
   2.54972792      0.507171988     -0.517000020       125.571754       1.57142782    
   2.59967995       0.00000000     -0.517000020       125.571754       1.57142782    
   1.87709999       0.00000000     -0.606999993       125.571754       1.57142782    
   1.87709999       0.00000000     -0.606999993       241.208908       1.57174623    
   1.36500001       0.00000000     -0.606999993       241.208908       1.57174623    
   1.33877206      0.266297996     -0.606999993       241.208908       1.57174623    
   1.84103203      0.366203994     -0.606999993       241.208908       1.57174623    
   1.87709999       0.00000000     -0.606999993       127.538345      -1.57179463    
   2.59967995       0.00000000     -0.517000020       127.538345      -1.57179463    
   2.54972792     -0.507171988     -0.517000020       127.538345      -1.57179463    
   1.84103203     -0.366203994     -0.606999993       127.538345      -1.57179463    
   1.84103203     -0.366203994     -0.606999993       252.331451      -1.57139242    
   1.33877206     -0.266297996     -0.606999993       252.331451      -1.57139242    
   1.36500001       0.00000000     -0.606999993       252.331451      -1.57139242    
   1.87709999       0.00000000     -0.606999993       252.331451      -1.57139242    
   1.84103203     -0.366203994     -0.606999993       377.007019      -1.57122815    
   2.54972792     -0.507171988     -0.517000020       377.007019      -1.57122815    
   2.40179110     -0.994853973     -0.517000020       377.007019      -1.57122815    
   1.73421395     -0.718334973     -0.606999993       377.007019      -1.57122815    
   1.73421395     -0.718334973     -0.606999993       736.181152      -1.57087994    
   1.26109600     -0.522363007     -0.606999993       736.181152      -1.57087994    
   1.33877206     -0.266297996     -0.606999993       736.181152      -1.57087994    
   1.84103203     -0.366203994     -0.606999993       736.181152      -1.57087994    
   1.73421395     -0.718334973     -0.606999993       612.659973      -1.57106948    
   2.40179110     -0.994853973     -0.517000020       612.659973      -1.57106948    
   2.16155505      -1.44430494     -0.517000020       612.659973      -1.57106948    
   1.56075203      -1.04286098     -0.606999993       612.659973      -1.57106948    
   1.56075203      -1.04286098     -0.606999993       1191.38794      -1.57078290    
   1.13495600     -0.758352995     -0.606999993       1191.38794      -1.57078290    
   1.26109600     -0.522363007     -0.606999993       1191.38794      -1.57078290    