 VARIABLES="X" "Y" "Z" "abs(p) (Pa)" "angle(p) (rad)"
ZONE N=   2709,E =    2358, F=FEPOINT, ET=QUADRILATERAL
   0.00000000      -5.48999977     -0.157000005       775.438782       1.58214343    
   0.00000000      -4.76741982     -0.246999994       775.438782       1.58214343    
  0.930077016      -4.67581606     -0.246999994       775.438782       1.58214343    
   1.07104599      -5.38451099     -0.157000005       775.438782       1.58214343    
  -1.07104599      -5.38451099     -0.157000005       775.295105       1.58132470    
 -0.930077016      -4.67581606     -0.246999994       775.295105       1.58132470    
   0.00000000      -4.76741982     -0.246999994       775.295105       1.58132470    
   0.00000000      -5.48999977     -0.157000005       775.295105       1.58132470    
  -2.10093188      -5.07209921     -0.157000005       783.304565       1.58678651    
  -1.82441294      -4.40452194     -0.246999994       783.304565       1.58678651    
 -0.930077016      -4.67581606     -0.246999994       783.304565       1.58678651    
  -1.07104599      -5.38451099     -0.157000005       783.304565       1.58678651    
  -3.05008101      -4.56476784     -0.157000005       775.686157       1.58089674    
  -2.64863706      -3.96396494     -0.246999994       775.686157       1.58089674    
  -1.82441294      -4.40452194     -0.246999994       775.686157       1.58089674    
  -2.10093188      -5.07209921     -0.157000005       775.686157       1.58089674    
  -3.88201594      -3.88201594     -0.157000005       775.765015       1.58347607    
  -3.37107491      -3.37107491     -0.246999994       775.765015       1.58347607    
  -2.64863706      -3.96396494     -0.246999994       775.765015       1.58347607    
  -3.05008101      -4.56476784     -0.157000005       775.765015       1.58347607    
  -4.56476784      -3.05008101     -0.157000005       781.986511       1.58304036    
  -3.96396494      -2.64863706     -0.246999994       781.986511       1.58304036    
  -3.37107491      -3.37107491     -0.246999994       781.986511       1.58304036    
  -3.88201594      -3.88201594     -0.157000005       781.986511       1.58304036    
  -5.07209921      -2.10093188     -0.157000005       776.355835       1.58266807    
  -4.40452194      -1.82441294     -0.246999994       776.355835       1.58266807    
  -3.96396494      -2.64863706     -0.246999994       776.355835       1.58266807    
  -4.56476784      -3.05008101     -0.157000005       776.355835       1.58266807    
  -5.38451099      -1.07104599     -0.157000005       775.045227       1.58157945    
  -4.67581606     -0.930077016     -0.246999994       775.045227       1.58157945    
  -4.40452194      -1.82441294     -0.246999994       775.045227       1.58157945    
  -5.07209921      -2.10093188     -0.157000005       775.045227       1.58157945    
  -5.48999977       0.00000000     -0.157000005       783.372559       1.58582056    
  -4.76741982       0.00000000     -0.246999994       783.372559       1.58582056    
  -4.67581606     -0.930077016     -0.246999994       783.372559       1.58582056    
  -5.38451099      -1.07104599     -0.157000005       783.372559       1.58582056    
  -5.38451099       1.07104599     -0.157000005       784.211365       1.58547080    
  -4.67581606      0.930077016     -0.246999994       784.211365       1.58547080    
  -4.76741982       0.00000000     -0.246999994       784.211365       1.58547080    
  -5.48999977       0.00000000     -0.157000005       784.211365       1.58547080    
  -5.07209921       2.10093188     -0.157000005       782.940063       1.58523369    
  -4.40452194       1.82441294     -0.246999994       782.940063       1.58523369    
  -4.67581606      0.930077016     -0.246999994       782.940063       1.58523369    
  -5.38451099       1.07104599     -0.157000005       782.940063       1.58523369    
  -4.56476784       3.05008101     -0.157000005       784.910828       1.58648312    
  -3.96396494       2.64863706     -0.246999994       784.910828       1.58648312    
  -4.40452194       1.82441294     -0.246999994       784.910828       1.58648312    
  -5.07209921       2.10093188     -0.157000005       784.910828       1.58648312    
  -3.88201594       3.88201594     -0.157000005       774.949097       1.58114529    
  -3.37107491       3.37107491     -0.246999994       774.949097       1.58114529    
  -3.96396494       2.64863706     -0.246999994       774.949097       1.58114529    
  -4.56476784       3.05008101     -0.157000005       774.949097       1.58114529    
  -3.05008101       4.56476784     -0.157000005       784.565857       1.58710527    
  -2.64863706       3.96396494     -0.246999994       784.565857       1.58710527    
  -3.37107491       3.37107491     -0.246999994       784.565857       1.58710527    
  -3.88201594       3.88201594     -0.157000005       784.565857       1.58710527    
  -2.10093188       5.07209921     -0.157000005       774.986938       1.58078849    
  -1.82441294       4.40452194     -0.246999994       774.986938       1.58078849    
  -2.64863706       3.96396494     -0.246999994       774.986938       1.58078849    
  -3.05008101       4.56476784     -0.157000005       774.986938       1.58078849    
  -1.07104599       5.38451099     -0.157000005       784.169312       1.58707428    
 -0.930077016       4.67581606     -0.246999994       784.169312       1.58707428    
  -1.82441294       4.40452194     -0.246999994       784.169312       1.58707428    
  -2.10093188       5.07209921     -0.157000005       784.169312       1.58707428    
   0.00000000       5.48999977     -0.157000005       775.432861       1.58124363    
   0.00000000       4.76741982     -0.246999994       775.432861       1.58124363    
 -0.930077016       4.67581606     -0.246999994       775.432861       1.58124363    
  -1.07104599       5.38451099     -0.157000005       775.432861       1.58124363    
   1.07104599       5.38451099     -0.157000005       783.471558       1.58599126    
  0.930077016       4.67581606     -0.246999994       783.471558       1.58599126    
   0.00000000       4.76741982     -0.246999994       783.471558       1.58599126    
   0.00000000       5.48999977     -0.157000005       783.471558       1.58599126    
   2.10093188       5.07209921     -0.157000005       775.849670       1.58262920    
   1.82441294       4.40452194     -0.246999994       775.849670       1.58262920    
  0.930077016       4.67581606     -0.246999994       775.849670       1.58262920    
   1.07104599       5.38451099     -0.157000005       775.849670       1.58262920    
   3.05008101       4.56476784     -0.157000005       775.535156       1.58092558    
   2.64863706       3.96396494     -0.246999994       775.535156       1.58092558    
   1.82441294       4.40452194     -0.246999994       775.535156       1.58092558    
   2.10093188       5.07209921     -0.157000005       775.535156       1.58092558    
   3.88201594       3.88201594     -0.157000005       783.329895       1.58750939    
   3.37107491       3.37107491     -0.246999994       783.329895       1.58750939    
   2.64863706       3.96396494     -0.246999994       783.329895       1.58750939    
   3.05008101       4.56476784     -0.157000005       783.329895       1.58750939    
   4.56476784       3.05008101     -0.157000005       780.054321       1.58077455    
   3.96396494       2.64863706     -0.246999994       780.054321       1.58077455    
   3.37107491       3.37107491     -0.246999994       780.054321       1.58077455    
   3.88201594       3.88201594     -0.157000005       780.054321       1.58077455    
   5.07209921       2.10093188     -0.157000005       783.434387       1.58718216    
   4.40452194       1.82441294     -0.246999994       783.434387       1.58718216    
   3.96396494       2.64863706     -0.246999994       783.434387       1.58718216    
   4.56476784       3.05008101     -0.157000005       783.434387       1.58718216    
   5.38451099       1.07104599     -0.157000005       775.348328       1.58108675    
   4.67581606      0.930077016     -0.246999994       775.348328       1.58108675    
   4.40452194       1.82441294     -0.246999994       775.348328       1.58108675    
   5.07209921       2.10093188     -0.157000005       775.348328       1.58108675    
   5.48999977       0.00000000     -0.157000005       775.842102       1.58268011    
   4.76741982       0.00000000     -0.246999994       775.842102       1.58268011    
   4.67581606      0.930077016     -0.246999994       775.842102       1.58268011    
   5.38451099       1.07104599     -0.157000005       775.842102       1.58268011    
   5.38451099      -1.07104599     -0.157000005       774.995667       1.58207393    
   4.67581606     -0.930077016     -0.246999994       774.995667       1.58207393    
   4.76741982       0.00000000     -0.246999994       774.995667       1.58207393    
   5.48999977       0.00000000     -0.157000005       774.995667       1.58207393    
   5.07209921      -2.10093188     -0.157000005       775.461121       1.58148801    
   4.40452194      -1.82441294     -0.246999994       775.461121       1.58148801    
   4.67581606     -0.930077016     -0.246999994       775.461121       1.58148801    
   5.38451099      -1.07104599     -0.157000005       775.461121       1.58148801    
   4.56476784      -3.05008101     -0.157000005       775.369080       1.58312273    
   3.96396494      -2.64863706     -0.246999994       775.369080       1.58312273    
   4.40452194      -1.82441294     -0.246999994       775.369080       1.58312273    
   5.07209921      -2.10093188     -0.157000005       775.369080       1.58312273    
   3.88201594      -3.88201594     -0.157000005       775.328064       1.58064377    
   3.37107491      -3.37107491     -0.246999994       775.328064       1.58064377    
   3.96396494      -2.64863706     -0.246999994       775.328064       1.58064377    
   4.56476784      -3.05008101     -0.157000005       775.328064       1.58064377    
   3.05008101      -4.56476784     -0.157000005       783.169006       1.58710539    
   2.64863706      -3.96396494     -0.246999994       783.169006       1.58710539    
   3.37107491      -3.37107491     -0.246999994       783.169006       1.58710539    
   3.88201594      -3.88201594     -0.157000005       783.169006       1.58710539    
   2.10093188      -5.07209921     -0.157000005       775.797729       1.58113551    
   1.82441294      -4.40452194     -0.246999994       775.797729       1.58113551    
   2.64863706      -3.96396494     -0.246999994       775.797729       1.58113551    
   3.05008101      -4.56476784     -0.157000005       775.797729       1.58113551    
   1.07104599      -5.38451099     -0.157000005       775.417847       1.58266771    
  0.930077016      -4.67581606     -0.246999994       775.417847       1.58266771    
   1.82441294      -4.40452194     -0.246999994       775.417847       1.58266771    
   2.10093188      -5.07209921     -0.157000005       775.417847       1.58266771    
   0.00000000      -1.87709999     -0.606999993       748.274231       1.57059026    
   0.00000000      -1.36500001     -0.606999993       748.274231       1.57059026    
  0.266297996      -1.33877206     -0.606999993       748.274231       1.57059026    
  0.366203994      -1.84103203     -0.606999993       748.274231       1.57059026    
   0.00000000      -1.87709999     -0.606999993       366.131683      -1.57107544    
   0.00000000      -2.59967995     -0.517000020       366.131683      -1.57107544    
 -0.507171988      -2.54972792     -0.517000020       366.131683      -1.57107544    
 -0.366203994      -1.84103203     -0.606999993       366.131683      -1.57107544    
 -0.366203994      -1.84103203     -0.606999993       747.485474       1.57059085    
 -0.266297996      -1.33877206     -0.606999993       747.485474       1.57059085    
   0.00000000      -1.36500001     -0.606999993       747.485474       1.57059085    
   0.00000000      -1.87709999     -0.606999993       747.485474       1.57059085    
 -0.366203994      -1.84103203     -0.606999993       366.437225      -1.57106984    
 -0.507171988      -2.54972792     -0.517000020       366.437225      -1.57106984    
 -0.994853973      -2.40179110     -0.517000020       366.437225      -1.57106984    
 -0.718334973      -1.73421395     -0.606999993       366.437225      -1.57106984    
 -0.718334973      -1.73421395     -0.606999993       746.180908       1.57058144    
 -0.522363007      -1.26109600     -0.606999993       746.180908       1.57058144    
 -0.266297996      -1.33877206     -0.606999993       746.180908       1.57058144    
 -0.366203994      -1.84103203     -0.606999993       746.180908       1.57058144    
 -0.718334973      -1.73421395     -0.606999993       366.817291      -1.57106483    
 -0.994853973      -2.40179110     -0.517000020       366.817291      -1.57106483    
  -1.44430494      -2.16155505     -0.517000020       366.817291      -1.57106483    
  -1.04286098      -1.56075203     -0.606999993       366.817291      -1.57106483    
  -1.04286098      -1.56075203     -0.606999993       744.773071       1.57059443    
 -0.758352995      -1.13495600     -0.606999993       744.773071       1.57059443    
 -0.522363007      -1.26109600     -0.606999993       744.773071       1.57059443    
 -0.718334973      -1.73421395     -0.606999993       744.773071       1.57059443    
  -1.04286098      -1.56075203     -0.606999993       367.342834      -1.57108152    
  -1.44430494      -2.16155505     -0.517000020       367.342834      -1.57108152    
  -1.83825099      -1.83825099     -0.517000020       367.342834      -1.57108152    
  -1.32730997      -1.32730997     -0.606999993       367.342834      -1.57108152    
  -1.32730997      -1.32730997     -0.606999993       743.565063       1.57060540    
 -0.965201020     -0.965201020     -0.606999993       743.565063       1.57060540    
 -0.758352995      -1.13495600     -0.606999993       743.565063       1.57060540    
  -1.04286098      -1.56075203     -0.606999993       743.565063       1.57060540    
  -1.32730997      -1.32730997     -0.606999993       367.758911      -1.57109344    
  -1.83825099      -1.83825099     -0.517000020       367.758911      -1.57109344    
  -2.16155505      -1.44430494     -0.517000020       367.758911      -1.57109344    
  -1.56075203      -1.04286098     -0.606999993       367.758911      -1.57109344    
  -1.56075203      -1.04286098     -0.606999993       743.058044       1.57061827    
  -1.13495600     -0.758352995     -0.606999993       743.058044       1.57061827    
 -0.965201020     -0.965201020     -0.606999993       743.058044       1.57061827    
  -1.32730997      -1.32730997     -0.606999993       743.058044       1.57061827    
  -1.56075203      -1.04286098     -0.606999993       367.654114      -1.57109809    
  -2.16155505      -1.44430494     -0.517000020       367.654114      -1.57109809    
  -2.40179110     -0.994853973     -0.517000020       367.654114      -1.57109809    
  -1.73421395     -0.718334973     -0.606999993       367.654114      -1.57109809    
  -1.73421395     -0.718334973     -0.606999993       743.748230       1.57062709    
  -1.26109600     -0.522363007     -0.606999993       743.748230       1.57062709    
  -1.13495600     -0.758352995     -0.606999993       743.748230       1.57062709    
  -1.56075203      -1.04286098     -0.606999993       743.748230       1.57062709    
  -1.73421395     -0.718334973     -0.606999993       366.851807      -1.57108629    
  -2.40179110     -0.994853973     -0.517000020       366.851807      -1.57108629    
  -2.54972792     -0.507171988     -0.517000020       366.851807      -1.57108629    
  -1.84103203     -0.366203994     -0.606999993       366.851807      -1.57108629    
  -1.84103203     -0.366203994     -0.606999993       745.351257       1.57062268    
  -1.33877206     -0.266297996     -0.606999993       745.351257       1.57062268    
  -1.26109600     -0.522363007     -0.606999993       745.351257       1.57062268    
  -1.73421395     -0.718334973     -0.606999993       745.351257       1.57062268    
  -1.84103203     -0.366203994     -0.606999993       365.837128      -1.57106149    
  -2.54972792     -0.507171988     -0.517000020       365.837128      -1.57106149    
  -2.59967995       0.00000000     -0.517000020       365.837128      -1.57106149    
  -1.87709999       0.00000000     -0.606999993       365.837128      -1.57106149    
  -1.87709999       0.00000000     -0.606999993       747.031860       1.57060444    
  -1.36500001       0.00000000     -0.606999993       747.031860       1.57060444    
  -1.33877206     -0.266297996     -0.606999993       747.031860       1.57060444    
  -1.84103203     -0.366203994     -0.606999993       747.031860       1.57060444    
  -1.87709999       0.00000000     -0.606999993       365.305542      -1.57104111    
  -2.59967995       0.00000000     -0.517000020       365.305542      -1.57104111    
  -2.54972792      0.507171988     -0.517000020       365.305542      -1.57104111    
  -1.84103203      0.366203994     -0.606999993       365.305542      -1.57104111    
  -1.84103203      0.366203994     -0.606999993       748.029358       1.57058764    
  -1.33877206      0.266297996     -0.606999993       748.029358       1.57058764    
  -1.36500001       0.00000000     -0.606999993       748.029358       1.57058764    
  -1.87709999       0.00000000     -0.606999993       748.029358       1.57058764    
  -1.84103203      0.366203994     -0.606999993       365.536469      -1.57103181    
  -2.54972792      0.507171988     -0.517000020       365.536469      -1.57103181    
  -2.40179110      0.994853973     -0.517000020       365.536469      -1.57103181    
  -1.73421395      0.718334973     -0.606999993       365.536469      -1.57103181    
  -1.73421395      0.718334973     -0.606999993       747.930115       1.57057822    
  -1.26109600      0.522363007     -0.606999993       747.930115       1.57057822    
  -1.33877206      0.266297996     -0.606999993       747.930115       1.57057822    
  -1.84103203      0.366203994     -0.606999993       747.930115       1.57057822    
  -1.73421395      0.718334973     -0.606999993       366.227020      -1.57102406    
  -2.40179110      0.994853973     -0.517000020       366.227020      -1.57102406    
  -2.16155505       1.44430494     -0.517000020       366.227020      -1.57102406    
  -1.56075203       1.04286098     -0.606999993       366.227020      -1.57102406    
  -1.56075203       1.04286098     -0.606999993       746.816772       1.57056749    
  -1.13495600      0.758352995     -0.606999993       746.816772       1.57056749    
  -1.26109600      0.522363007     -0.606999993       746.816772       1.57056749    
  -1.73421395      0.718334973     -0.606999993       746.816772       1.57056749    
  -1.56075203       1.04286098     -0.606999993       366.873474      -1.57102025    
  -2.16155505       1.44430494     -0.517000020       366.873474      -1.57102025    
  -1.83825099       1.83825099     -0.517000020       366.873474      -1.57102025    
  -1.32730997       1.32730997     -0.606999993       366.873474      -1.57102025    
  -1.32730997       1.32730997     -0.606999993       745.071533       1.57056606    
 -0.965201020      0.965201020     -0.606999993       745.071533       1.57056606    
  -1.13495600      0.758352995     -0.606999993       745.071533       1.57056606    
  -1.56075203       1.04286098     -0.606999993       745.071533       1.57056606    
  -1.32730997       1.32730997     -0.606999993       367.435242      -1.57101953    
  -1.83825099       1.83825099     -0.517000020       367.435242      -1.57101953    
  -1.44430494       2.16155505     -0.517000020       367.435242      -1.57101953    
  -1.04286098       1.56075203     -0.606999993       367.435242      -1.57101953    
  -1.04286098       1.56075203     -0.606999993       743.145752       1.57056403    
 -0.758352995       1.13495600     -0.606999993       743.145752       1.57056403    
 -0.965201020      0.965201020     -0.606999993       743.145752       1.57056403    
  -1.32730997       1.32730997     -0.606999993       743.145752       1.57056403    
  -1.04286098       1.56075203     -0.606999993       368.091522      -1.57102132    
  -1.44430494       2.16155505     -0.517000020       368.091522      -1.57102132    
 -0.994853973       2.40179110     -0.517000020       368.091522      -1.57102132    
 -0.718334973       1.73421395     -0.606999993       368.091522      -1.57102132    
 -0.718334973       1.73421395     -0.606999993       741.462280       1.57057035    
 -0.522363007       1.26109600     -0.606999993       741.462280       1.57057035    
 -0.758352995       1.13495600     -0.606999993       741.462280       1.57057035    
  -1.04286098       1.56075203     -0.606999993       741.462280       1.57057035    
 -0.718334973       1.73421395     -0.606999993       368.740906      -1.57104945    
 -0.994853973       2.40179110     -0.517000020       368.740906      -1.57104945    
 -0.507171988       2.54972792     -0.517000020       368.740906      -1.57104945    
 -0.366203994       1.84103203     -0.606999993       368.740906      -1.57104945    
 -0.366203994       1.84103203     -0.606999993       740.506836       1.57058585    
 -0.266297996       1.33877206     -0.606999993       740.506836       1.57058585    
 -0.522363007       1.26109600     -0.606999993       740.506836       1.57058585    
 -0.718334973       1.73421395     -0.606999993       740.506836       1.57058585    
 -0.366203994       1.84103203     -0.606999993       369.008881      -1.57107425    
 -0.507171988       2.54972792     -0.517000020       369.008881      -1.57107425    
   0.00000000       2.59967995     -0.517000020       369.008881      -1.57107425    
   0.00000000       1.87709999     -0.606999993       369.008881      -1.57107425    
   0.00000000       1.87709999     -0.606999993       740.632446       1.57059729    
   0.00000000       1.36500001     -0.606999993       740.632446       1.57059729    
 -0.266297996       1.33877206     -0.606999993       740.632446       1.57059729    
 -0.366203994       1.84103203     -0.606999993       740.632446       1.57059729    
   0.00000000       1.87709999     -0.606999993       368.388184      -1.57107794    
   0.00000000       2.59967995     -0.517000020       368.388184      -1.57107794    
  0.507171988       2.54972792     -0.517000020       368.388184      -1.57107794    
  0.366203994       1.84103203     -0.606999993       368.388184      -1.57107794    
  0.366203994       1.84103203     -0.606999993       741.971069       1.57059836    
  0.266297996       1.33877206     -0.606999993       741.971069       1.57059836    
   0.00000000       1.36500001     -0.606999993       741.971069       1.57059836    
   0.00000000       1.87709999     -0.606999993       741.971069       1.57059836    
  0.366203994       1.84103203     -0.606999993       367.073395      -1.57107067    
  0.507171988       2.54972792     -0.517000020       367.073395      -1.57107067    
  0.994853973       2.40179110     -0.517000020       367.073395      -1.57107067    
  0.718334973       1.73421395     -0.606999993       367.073395      -1.57107067    
  0.718334973       1.73421395     -0.606999993       744.163879       1.57058430    
  0.522363007       1.26109600     -0.606999993       744.163879       1.57058430    
  0.266297996       1.33877206     -0.606999993       744.163879       1.57058430    
  0.366203994       1.84103203     -0.606999993       744.163879       1.57058430    
  0.718334973       1.73421395     -0.606999993       365.769531      -1.57105660    
  0.994853973       2.40179110     -0.517000020       365.769531      -1.57105660    
   1.44430494       2.16155505     -0.517000020       365.769531      -1.57105660    
   1.04286098       1.56075203     -0.606999993       365.769531      -1.57105660    
   1.04286098       1.56075203     -0.606999993       746.489014       1.57057977    
  0.758352995       1.13495600     -0.606999993       746.489014       1.57057977    
  0.522363007       1.26109600     -0.606999993       746.489014       1.57057977    
  0.718334973       1.73421395     -0.606999993       746.489014       1.57057977    
   1.04286098       1.56075203     -0.606999993       365.071350      -1.57106173    
   1.44430494       2.16155505     -0.517000020       365.071350      -1.57106173    
   1.83825099       1.83825099     -0.517000020       365.071350      -1.57106173    
   1.32730997       1.32730997     -0.606999993       365.071350      -1.57106173    
   1.32730997       1.32730997     -0.606999993       748.144836       1.57057595    
  0.965201020      0.965201020     -0.606999993       748.144836       1.57057595    
  0.758352995       1.13495600     -0.606999993       748.144836       1.57057595    
   1.04286098       1.56075203     -0.606999993       748.144836       1.57057595    
   1.32730997       1.32730997     -0.606999993       365.175629      -1.57106650    
   1.83825099       1.83825099     -0.517000020       365.175629      -1.57106650    
   2.16155505       1.44430494     -0.517000020       365.175629      -1.57106650    
   1.56075203       1.04286098     -0.606999993       365.175629      -1.57106650    
   1.56075203       1.04286098     -0.606999993       748.623230       1.57057381    
   1.13495600      0.758352995     -0.606999993       748.623230       1.57057381    
  0.965201020      0.965201020     -0.606999993       748.623230       1.57057381    
   1.32730997       1.32730997     -0.606999993       748.623230       1.57057381    
   1.56075203       1.04286098     -0.606999993       365.832336      -1.57107127    
   2.16155505       1.44430494     -0.517000020       365.832336      -1.57107127    
   2.40179110      0.994853973     -0.517000020       365.832336      -1.57107127    
   1.73421395      0.718334973     -0.606999993       365.832336      -1.57107127    
   1.73421395      0.718334973     -0.606999993       747.368774       1.57057559    
   1.26109600      0.522363007     -0.606999993       747.368774       1.57057559    
   1.13495600      0.758352995     -0.606999993       747.368774       1.57057559    
   1.56075203       1.04286098     -0.606999993       747.368774       1.57057559    
   1.73421395      0.718334973     -0.606999993       366.670807      -1.57106197    
   2.40179110      0.994853973     -0.517000020       366.670807      -1.57106197    
   2.54972792      0.507171988     -0.517000020       366.670807      -1.57106197    
   1.84103203      0.366203994     -0.606999993       366.670807      -1.57106197    
   1.84103203      0.366203994     -0.606999993       745.078735       1.57057858    
   1.33877206      0.266297996     -0.606999993       745.078735       1.57057858    
   1.26109600      0.522363007     -0.606999993       745.078735       1.57057858    
   1.73421395      0.718334973     -0.606999993       745.078735       1.57057858    
   1.84103203      0.366203994     -0.606999993       367.555786      -1.57107210    
   2.54972792      0.507171988     -0.517000020       367.555786      -1.57107210    
   2.59967995       0.00000000     -0.517000020       367.555786      -1.57107210    
   1.87709999       0.00000000     -0.606999993       367.555786      -1.57107210    
   1.87709999       0.00000000     -0.606999993       742.821960       1.57059169    
   1.36500001       0.00000000     -0.606999993       742.821960       1.57059169    
   1.33877206      0.266297996     -0.606999993       742.821960       1.57059169    
   1.84103203      0.366203994     -0.606999993       742.821960       1.57059169    
   1.87709999       0.00000000     -0.606999993       368.457977      -1.57109189    
   2.59967995       0.00000000     -0.517000020       368.457977      -1.57109189    
   2.54972792     -0.507171988     -0.517000020       368.457977      -1.57109189    
   1.84103203     -0.366203994     -0.606999993       368.457977      -1.57109189    
   1.84103203     -0.366203994     -0.606999993       741.131714       1.57060754    
   1.33877206     -0.266297996     -0.606999993       741.131714       1.57060754    
   1.36500001       0.00000000     -0.606999993       741.131714       1.57060754    
   1.87709999       0.00000000     -0.606999993       741.131714       1.57060754    
   1.84103203     -0.366203994     -0.606999993       369.041595      -1.57110810    
   2.54972792     -0.507171988     -0.517000020       369.041595      -1.57110810    
   2.40179110     -0.994853973     -0.517000020       369.041595      -1.57110810    
   1.73421395     -0.718334973     -0.606999993       369.041595      -1.57110810    
   1.73421395     -0.718334973     -0.606999993       740.476074       1.57062280    
   1.26109600     -0.522363007     -0.606999993       740.476074       1.57062280    
   1.33877206     -0.266297996     -0.606999993       740.476074       1.57062280    
   1.84103203     -0.366203994     -0.606999993       740.476074       1.57062280    
   1.73421395     -0.718334973     -0.606999993       368.883514      -1.57111824    
   2.40179110     -0.994853973     -0.517000020       368.883514      -1.57111824    
   2.16155505      -1.44430494     -0.517000020       368.883514      -1.57111824    
   1.56075203      -1.04286098     -0.606999993       368.883514      -1.57111824    
   1.56075203      -1.04286098     -0.606999993       741.137207       1.57062817    
   1.13495600     -0.758352995     -0.606999993       741.137207       1.57062817    
   1.26109600     -0.522363007     -0.606999993       741.137207       1.57062817    