 VARIABLES="X" "Y" "Z" "abs(p) (Pa)" "angle(p) (rad)"
ZONE N=   2709,E =    2358, F=FEPOINT, ET=QUADRILATERAL
   0.00000000      -5.48999977     -0.157000005       1.25510693      -1.31313527    
   0.00000000      -4.76741982     -0.246999994       1.25510693      -1.31313527    
  0.930077016      -4.67581606     -0.246999994       1.25510693      -1.31313527    
   1.07104599      -5.38451099     -0.157000005       1.25510693      -1.31313527    
  -1.07104599      -5.38451099     -0.157000005       1.33305621       1.79578626    
 -0.930077016      -4.67581606     -0.246999994       1.33305621       1.79578626    
   0.00000000      -4.76741982     -0.246999994       1.33305621       1.79578626    
   0.00000000      -5.48999977     -0.157000005       1.33305621       1.79578626    
  -2.10093188      -5.07209921     -0.157000005       2.64635205       1.77799833    
  -1.82441294      -4.40452194     -0.246999994       2.64635205       1.77799833    
 -0.930077016      -4.67581606     -0.246999994       2.64635205       1.77799833    
  -1.07104599      -5.38451099     -0.157000005       2.64635205       1.77799833    
  -3.05008101      -4.56476784     -0.157000005       1.34873509       1.76677239    
  -2.64863706      -3.96396494     -0.246999994       1.34873509       1.76677239    
  -1.82441294      -4.40452194     -0.246999994       1.34873509       1.76677239    
  -2.10093188      -5.07209921     -0.157000005       1.34873509       1.76677239    
  -3.88201594      -3.88201594     -0.157000005      0.898696780      -1.22717655    
  -3.37107491      -3.37107491     -0.246999994      0.898696780      -1.22717655    
  -2.64863706      -3.96396494     -0.246999994      0.898696780      -1.22717655    
  -3.05008101      -4.56476784     -0.157000005      0.898696780      -1.22717655    
  -4.56476784      -3.05008101     -0.157000005       2.16494656      -1.36202562    
  -3.96396494      -2.64863706     -0.246999994       2.16494656      -1.36202562    
  -3.37107491      -3.37107491     -0.246999994       2.16494656      -1.36202562    
  -3.88201594      -3.88201594     -0.157000005       2.16494656      -1.36202562    
  -5.07209921      -2.10093188     -0.157000005       1.40696764      -1.47067511    
  -4.40452194      -1.82441294     -0.246999994       1.40696764      -1.47067511    
  -3.96396494      -2.64863706     -0.246999994       1.40696764      -1.47067511    
  -4.56476784      -3.05008101     -0.157000005       1.40696764      -1.47067511    
  -5.38451099      -1.07104599     -0.157000005      0.446297318      -2.18540859    
  -4.67581606     -0.930077016     -0.246999994      0.446297318      -2.18540859    
  -4.40452194      -1.82441294     -0.246999994      0.446297318      -2.18540859    
  -5.07209921      -2.10093188     -0.157000005      0.446297318      -2.18540859    
  -5.48999977       0.00000000     -0.157000005      0.646887302      -1.84799230    
  -4.76741982       0.00000000     -0.246999994      0.646887302      -1.84799230    
  -4.67581606     -0.930077016     -0.246999994      0.646887302      -1.84799230    
  -5.38451099      -1.07104599     -0.157000005      0.646887302      -1.84799230    
  -5.38451099       1.07104599     -0.157000005       1.73396945      -1.43785524    
  -4.67581606      0.930077016     -0.246999994       1.73396945      -1.43785524    
  -4.76741982       0.00000000     -0.246999994       1.73396945      -1.43785524    
  -5.48999977       0.00000000     -0.157000005       1.73396945      -1.43785524    
  -5.07209921       2.10093188     -0.157000005       2.01482010      -1.36059380    
  -4.40452194       1.82441294     -0.246999994       2.01482010      -1.36059380    
  -4.67581606      0.930077016     -0.246999994       2.01482010      -1.36059380    
  -5.38451099       1.07104599     -0.157000005       2.01482010      -1.36059380    
  -4.56476784       3.05008101     -0.157000005      0.426875859      -1.35774803    
  -3.96396494       2.64863706     -0.246999994      0.426875859      -1.35774803    
  -4.40452194       1.82441294     -0.246999994      0.426875859      -1.35774803    
  -5.07209921       2.10093188     -0.157000005      0.426875859      -1.35774803    
  -3.88201594       3.88201594     -0.157000005       1.38237321       1.87331903    
  -3.37107491       3.37107491     -0.246999994       1.38237321       1.87331903    
  -3.96396494       2.64863706     -0.246999994       1.38237321       1.87331903    
  -4.56476784       3.05008101     -0.157000005       1.38237321       1.87331903    
  -3.05008101       4.56476784     -0.157000005       1.70117474       1.80170178    
  -2.64863706       3.96396494     -0.246999994       1.70117474       1.80170178    
  -3.37107491       3.37107491     -0.246999994       1.70117474       1.80170178    
  -3.88201594       3.88201594     -0.157000005       1.70117474       1.80170178    
  -2.10093188       5.07209921     -0.157000005      0.486259162      -1.38742208    
  -1.82441294       4.40452194     -0.246999994      0.486259162      -1.38742208    
  -2.64863706       3.96396494     -0.246999994      0.486259162      -1.38742208    
  -3.05008101       4.56476784     -0.157000005      0.486259162      -1.38742208    
  -1.07104599       5.38451099     -0.157000005       2.21038723      -1.36853385    
 -0.930077016       4.67581606     -0.246999994       2.21038723      -1.36853385    
  -1.82441294       4.40452194     -0.246999994       2.21038723      -1.36853385    
  -2.10093188       5.07209921     -0.157000005       2.21038723      -1.36853385    
   0.00000000       5.48999977     -0.157000005      0.978993058      -1.27457297    
   0.00000000       4.76741982     -0.246999994      0.978993058      -1.27457297    
 -0.930077016       4.67581606     -0.246999994      0.978993058      -1.27457297    
  -1.07104599       5.38451099     -0.157000005      0.978993058      -1.27457297    
   1.07104599       5.38451099     -0.157000005       1.02992070       1.80318105    
  0.930077016       4.67581606     -0.246999994       1.02992070       1.80318105    
   0.00000000       4.76741982     -0.246999994       1.02992070       1.80318105    
   0.00000000       5.48999977     -0.157000005       1.02992070       1.80318105    
   2.10093188       5.07209921     -0.157000005       2.12113047       1.80526757    
   1.82441294       4.40452194     -0.246999994       2.12113047       1.80526757    
  0.930077016       4.67581606     -0.246999994       2.12113047       1.80526757    
   1.07104599       5.38451099     -0.157000005       2.12113047       1.80526757    
   3.05008101       4.56476784     -0.157000005      0.395783156       1.85761178    
   2.64863706       3.96396494     -0.246999994      0.395783156       1.85761178    
   1.82441294       4.40452194     -0.246999994      0.395783156       1.85761178    
   2.10093188       5.07209921     -0.157000005      0.395783156       1.85761178    
   3.88201594       3.88201594     -0.157000005       1.80897391      -1.36141479    
   3.37107491       3.37107491     -0.246999994       1.80897391      -1.36141479    
   2.64863706       3.96396494     -0.246999994       1.80897391      -1.36141479    
   3.05008101       4.56476784     -0.157000005       1.80897391      -1.36141479    
   4.56476784       3.05008101     -0.157000005       1.44325578      -1.27718186    
   3.96396494       2.64863706     -0.246999994       1.44325578      -1.27718186    
   3.37107491       3.37107491     -0.246999994       1.44325578      -1.27718186    
   3.88201594       3.88201594     -0.157000005       1.44325578      -1.27718186    
   5.07209921       2.10093188     -0.157000005      0.444944888       1.69242585    
   4.40452194       1.82441294     -0.246999994      0.444944888       1.69242585    
   3.96396494       2.64863706     -0.246999994      0.444944888       1.69242585    
   4.56476784       3.05008101     -0.157000005      0.444944888       1.69242585    
   5.38451099       1.07104599     -0.157000005       1.94435072       1.81041217    
   4.67581606      0.930077016     -0.246999994       1.94435072       1.81041217    
   4.40452194       1.82441294     -0.246999994       1.94435072       1.81041217    
   5.07209921       2.10093188     -0.157000005       1.94435072       1.81041217    
   5.48999977       0.00000000     -0.157000005       1.63576543       1.75143576    
   4.76741982       0.00000000     -0.246999994       1.63576543       1.75143576    
   4.67581606      0.930077016     -0.246999994       1.63576543       1.75143576    
   5.38451099       1.07104599     -0.157000005       1.63576543       1.75143576    
   5.38451099      -1.07104599     -0.157000005      0.578148723       1.28073168    
   4.67581606     -0.930077016     -0.246999994      0.578148723       1.28073168    
   4.76741982       0.00000000     -0.246999994      0.578148723       1.28073168    
   5.48999977       0.00000000     -0.157000005      0.578148723       1.28073168    
   5.07209921      -2.10093188     -0.157000005      0.475157738      0.953610182    
   4.40452194      -1.82441294     -0.246999994      0.475157738      0.953610182    
   4.67581606     -0.930077016     -0.246999994      0.475157738      0.953610182    
   5.38451099      -1.07104599     -0.157000005      0.475157738      0.953610182    
   4.56476784      -3.05008101     -0.157000005       1.46628320       1.65027106    
   3.96396494      -2.64863706     -0.246999994       1.46628320       1.65027106    
   4.40452194      -1.82441294     -0.246999994       1.46628320       1.65027106    
   5.07209921      -2.10093188     -0.157000005       1.46628320       1.65027106    
   3.88201594      -3.88201594     -0.157000005       2.14282203       1.79885876    
   3.37107491      -3.37107491     -0.246999994       2.14282203       1.79885876    
   3.96396494      -2.64863706     -0.246999994       2.14282203       1.79885876    
   4.56476784      -3.05008101     -0.157000005       2.14282203       1.79885876    
   3.05008101      -4.56476784     -0.157000005      0.903644025       1.89743233    
   2.64863706      -3.96396494     -0.246999994      0.903644025       1.89743233    
   3.37107491      -3.37107491     -0.246999994      0.903644025       1.89743233    
   3.88201594      -3.88201594     -0.157000005      0.903644025       1.89743233    
   2.10093188      -5.07209921     -0.157000005       1.36106825      -1.37568069    
   1.82441294      -4.40452194     -0.246999994       1.36106825      -1.37568069    
   2.64863706      -3.96396494     -0.246999994       1.36106825      -1.37568069    
   3.05008101      -4.56476784     -0.157000005       1.36106825      -1.37568069    
   1.07104599      -5.38451099     -0.157000005       2.55128193      -1.33191741    
  0.930077016      -4.67581606     -0.246999994       2.55128193      -1.33191741    
   1.82441294      -4.40452194     -0.246999994       2.55128193      -1.33191741    
   2.10093188      -5.07209921     -0.157000005       2.55128193      -1.33191741    
   0.00000000      -1.87709999     -0.606999993       8.21193409      -1.56716692    
   0.00000000      -1.36500001     -0.606999993       8.21193409      -1.56716692    
  0.266297996      -1.33877206     -0.606999993       8.21193409      -1.56716692    
  0.366203994      -1.84103203     -0.606999993       8.21193409      -1.56716692    
   0.00000000      -1.87709999     -0.606999993       16.3062019       1.57114077    
   0.00000000      -2.59967995     -0.517000020       16.3062019       1.57114077    
 -0.507171988      -2.54972792     -0.517000020       16.3062019       1.57114077    
 -0.366203994      -1.84103203     -0.606999993       16.3062019       1.57114077    
 -0.366203994      -1.84103203     -0.606999993       7.19276905       1.57240820    
 -0.266297996      -1.33877206     -0.606999993       7.19276905       1.57240820    
   0.00000000      -1.36500001     -0.606999993       7.19276905       1.57240820    
   0.00000000      -1.87709999     -0.606999993       7.19276905       1.57240820    
 -0.366203994      -1.84103203     -0.606999993       31.7697220       1.57153141    
 -0.507171988      -2.54972792     -0.517000020       31.7697220       1.57153141    
 -0.994853973      -2.40179110     -0.517000020       31.7697220       1.57153141    
 -0.718334973      -1.73421395     -0.606999993       31.7697220       1.57153141    
 -0.718334973      -1.73421395     -0.606999993       14.6361933       1.57409394    
 -0.522363007      -1.26109600     -0.606999993       14.6361933       1.57409394    
 -0.266297996      -1.33877206     -0.606999993       14.6361933       1.57409394    
 -0.366203994      -1.84103203     -0.606999993       14.6361933       1.57409394    
 -0.718334973      -1.73421395     -0.606999993       13.9719915       1.57311296    
 -0.994853973      -2.40179110     -0.517000020       13.9719915       1.57311296    
  -1.44430494      -2.16155505     -0.517000020       13.9719915       1.57311296    
  -1.04286098      -1.56075203     -0.606999993       13.9719915       1.57311296    
  -1.04286098      -1.56075203     -0.606999993       6.77713823       1.58141255    
 -0.758352995      -1.13495600     -0.606999993       6.77713823       1.58141255    
 -0.522363007      -1.26109600     -0.606999993       6.77713823       1.58141255    
 -0.718334973      -1.73421395     -0.606999993       6.77713823       1.58141255    
  -1.04286098      -1.56075203     -0.606999993       16.3914719      -1.57271230    
  -1.44430494      -2.16155505     -0.517000020       16.3914719      -1.57271230    
  -1.83825099      -1.83825099     -0.517000020       16.3914719      -1.57271230    
  -1.32730997      -1.32730997     -0.606999993       16.3914719      -1.57271230    
  -1.32730997      -1.32730997     -0.606999993       7.68859816      -1.58099580    
 -0.965201020     -0.965201020     -0.606999993       7.68859816      -1.58099580    
 -0.758352995      -1.13495600     -0.606999993       7.68859816      -1.58099580    
  -1.04286098      -1.56075203     -0.606999993       7.68859816      -1.58099580    
  -1.32730997      -1.32730997     -0.606999993       27.3327427      -1.57162571    
  -1.83825099      -1.83825099     -0.517000020       27.3327427      -1.57162571    
  -2.16155505      -1.44430494     -0.517000020       27.3327427      -1.57162571    
  -1.56075203      -1.04286098     -0.606999993       27.3327427      -1.57162571    
  -1.56075203      -1.04286098     -0.606999993       14.4662542      -1.57556522    
  -1.13495600     -0.758352995     -0.606999993       14.4662542      -1.57556522    
 -0.965201020     -0.965201020     -0.606999993       14.4662542      -1.57556522    
  -1.32730997      -1.32730997     -0.606999993       14.4662542      -1.57556522    
  -1.56075203      -1.04286098     -0.606999993       10.9434299      -1.57182252    
  -2.16155505      -1.44430494     -0.517000020       10.9434299      -1.57182252    
  -2.40179110     -0.994853973     -0.517000020       10.9434299      -1.57182252    
  -1.73421395     -0.718334973     -0.606999993       10.9434299      -1.57182252    
  -1.73421395     -0.718334973     -0.606999993       9.15120697      -1.57616055    
  -1.26109600     -0.522363007     -0.606999993       9.15120697      -1.57616055    
  -1.13495600     -0.758352995     -0.606999993       9.15120697      -1.57616055    
  -1.56075203      -1.04286098     -0.606999993       9.15120697      -1.57616055    
  -1.73421395     -0.718334973     -0.606999993       9.11615753       1.57091224    
  -2.40179110     -0.994853973     -0.517000020       9.11615753       1.57091224    
  -2.54972792     -0.507171988     -0.517000020       9.11615753       1.57091224    
  -1.84103203     -0.366203994     -0.606999993       9.11615753       1.57091224    
  -1.84103203     -0.366203994     -0.606999993       1.00131702      -1.59524822    
  -1.33877206     -0.266297996     -0.606999993       1.00131702      -1.59524822    
  -1.26109600     -0.522363007     -0.606999993       1.00131702      -1.59524822    
  -1.73421395     -0.718334973     -0.606999993       1.00131702      -1.59524822    
  -1.84103203     -0.366203994     -0.606999993       7.27691174       1.56991374    
  -2.54972792     -0.507171988     -0.517000020       7.27691174       1.56991374    
  -2.59967995       0.00000000     -0.517000020       7.27691174       1.56991374    
  -1.87709999       0.00000000     -0.606999993       7.27691174       1.56991374    
  -1.87709999       0.00000000     -0.606999993      0.384083301      -1.57248783    
  -1.36500001       0.00000000     -0.606999993      0.384083301      -1.57248783    
  -1.33877206     -0.266297996     -0.606999993      0.384083301      -1.57248783    
  -1.84103203     -0.366203994     -0.606999993      0.384083301      -1.57248783    
  -1.87709999       0.00000000     -0.606999993       11.8772831      -1.56986129    
  -2.59967995       0.00000000     -0.517000020       11.8772831      -1.56986129    
  -2.54972792      0.507171988     -0.517000020       11.8772831      -1.56986129    
  -1.84103203      0.366203994     -0.606999993       11.8772831      -1.56986129    
  -1.84103203      0.366203994     -0.606999993       6.11864328      -1.56763232    
  -1.33877206      0.266297996     -0.606999993       6.11864328      -1.56763232    
  -1.36500001       0.00000000     -0.606999993       6.11864328      -1.56763232    
  -1.87709999       0.00000000     -0.606999993       6.11864328      -1.56763232    
  -1.84103203      0.366203994     -0.606999993       19.7836380      -1.57017720    
  -2.54972792      0.507171988     -0.517000020       19.7836380      -1.57017720    
  -2.40179110      0.994853973     -0.517000020       19.7836380      -1.57017720    
  -1.73421395      0.718334973     -0.606999993       19.7836380      -1.57017720    
  -1.73421395      0.718334973     -0.606999993       7.79319715      -1.56641996    
  -1.26109600      0.522363007     -0.606999993       7.79319715      -1.56641996    
  -1.33877206      0.266297996     -0.606999993       7.79319715      -1.56641996    
  -1.84103203      0.366203994     -0.606999993       7.79319715      -1.56641996    
  -1.73421395      0.718334973     -0.606999993       2.39946055      -1.56609666    
  -2.40179110      0.994853973     -0.517000020       2.39946055      -1.56609666    
  -2.16155505       1.44430494     -0.517000020       2.39946055      -1.56609666    
  -1.56075203       1.04286098     -0.606999993       2.39946055      -1.56609666    
  -1.56075203       1.04286098     -0.606999993      0.522585571      -1.48729730    
  -1.13495600      0.758352995     -0.606999993      0.522585571      -1.48729730    
  -1.26109600      0.522363007     -0.606999993      0.522585571      -1.48729730    
  -1.73421395      0.718334973     -0.606999993      0.522585571      -1.48729730    
  -1.56075203       1.04286098     -0.606999993       19.9957867       1.57024372    
  -2.16155505       1.44430494     -0.517000020       19.9957867       1.57024372    
  -1.83825099       1.83825099     -0.517000020       19.9957867       1.57024372    
  -1.32730997       1.32730997     -0.606999993       19.9957867       1.57024372    
  -1.32730997       1.32730997     -0.606999993       7.98121881       1.56472337    
 -0.965201020      0.965201020     -0.606999993       7.98121881       1.56472337    
  -1.13495600      0.758352995     -0.606999993       7.98121881       1.56472337    
  -1.56075203       1.04286098     -0.606999993       7.98121881       1.56472337    
  -1.32730997       1.32730997     -0.606999993       18.9205303       1.57014394    
  -1.83825099       1.83825099     -0.517000020       18.9205303       1.57014394    
  -1.44430494       2.16155505     -0.517000020       18.9205303       1.57014394    
  -1.04286098       1.56075203     -0.606999993       18.9205303       1.57014394    
  -1.04286098       1.56075203     -0.606999993       6.87048388       1.56375206    
 -0.758352995       1.13495600     -0.606999993       6.87048388       1.56375206    
 -0.965201020      0.965201020     -0.606999993       6.87048388       1.56375206    
  -1.32730997       1.32730997     -0.606999993       6.87048388       1.56375206    
  -1.04286098       1.56075203     -0.606999993       5.64022350      -1.56853473    
  -1.44430494       2.16155505     -0.517000020       5.64022350      -1.56853473    
 -0.994853973       2.40179110     -0.517000020       5.64022350      -1.56853473    
 -0.718334973       1.73421395     -0.606999993       5.64022350      -1.56853473    
 -0.718334973       1.73421395     -0.606999993       3.18425703      -1.55742443    
 -0.522363007       1.26109600     -0.606999993       3.18425703      -1.55742443    
 -0.758352995       1.13495600     -0.606999993       3.18425703      -1.55742443    
  -1.04286098       1.56075203     -0.606999993       3.18425703      -1.55742443    
 -0.718334973       1.73421395     -0.606999993       23.9929886      -1.57039142    
 -0.994853973       2.40179110     -0.517000020       23.9929886      -1.57039142    
 -0.507171988       2.54972792     -0.517000020       23.9929886      -1.57039142    
 -0.366203994       1.84103203     -0.606999993       23.9929886      -1.57039142    
 -0.366203994       1.84103203     -0.606999993       10.3389902      -1.56790268    
 -0.266297996       1.33877206     -0.606999993       10.3389902      -1.56790268    
 -0.522363007       1.26109600     -0.606999993       10.3389902      -1.56790268    
 -0.718334973       1.73421395     -0.606999993       10.3389902      -1.56790268    
 -0.366203994       1.84103203     -0.606999993       13.3582344      -1.57051528    
 -0.507171988       2.54972792     -0.517000020       13.3582344      -1.57051528    
   0.00000000       2.59967995     -0.517000020       13.3582344      -1.57051528    
   0.00000000       1.87709999     -0.606999993       13.3582344      -1.57051528    
   0.00000000       1.87709999     -0.606999993       5.59223270      -1.56862211    
   0.00000000       1.36500001     -0.606999993       5.59223270      -1.56862211    
 -0.266297996       1.33877206     -0.606999993       5.59223270      -1.56862211    
 -0.366203994       1.84103203     -0.606999993       5.59223270      -1.56862211    
   0.00000000       1.87709999     -0.606999993       13.4438248       1.57103646    
   0.00000000       2.59967995     -0.517000020       13.4438248       1.57103646    
  0.507171988       2.54972792     -0.517000020       13.4438248       1.57103646    
  0.366203994       1.84103203     -0.606999993       13.4438248       1.57103646    
  0.366203994       1.84103203     -0.606999993       5.69903278       1.57214046    
  0.266297996       1.33877206     -0.606999993       5.69903278       1.57214046    
   0.00000000       1.36500001     -0.606999993       5.69903278       1.57214046    
   0.00000000       1.87709999     -0.606999993       5.69903278       1.57214046    
  0.366203994       1.84103203     -0.606999993       24.0076752       1.57118273    
  0.507171988       2.54972792     -0.517000020       24.0076752       1.57118273    
  0.994853973       2.40179110     -0.517000020       24.0076752       1.57118273    
  0.718334973       1.73421395     -0.606999993       24.0076752       1.57118273    
  0.718334973       1.73421395     -0.606999993       10.2652035       1.57331824    
  0.522363007       1.26109600     -0.606999993       10.2652035       1.57331824    
  0.266297996       1.33877206     -0.606999993       10.2652035       1.57331824    
  0.366203994       1.84103203     -0.606999993       10.2652035       1.57331824    
  0.718334973       1.73421395     -0.606999993       5.49097919       1.57305253    
  0.994853973       2.40179110     -0.517000020       5.49097919       1.57305253    
   1.44430494       2.16155505     -0.517000020       5.49097919       1.57305253    
   1.04286098       1.56075203     -0.606999993       5.49097919       1.57305253    
   1.04286098       1.56075203     -0.606999993       2.82970810       1.58478940    
  0.758352995       1.13495600     -0.606999993       2.82970810       1.58478940    
  0.522363007       1.26109600     -0.606999993       2.82970810       1.58478940    
  0.718334973       1.73421395     -0.606999993       2.82970810       1.58478940    
   1.04286098       1.56075203     -0.606999993       19.2831593      -1.57143950    
   1.44430494       2.16155505     -0.517000020       19.2831593      -1.57143950    
   1.83825099       1.83825099     -0.517000020       19.2831593      -1.57143950    
   1.32730997       1.32730997     -0.606999993       19.2831593      -1.57143950    
   1.32730997       1.32730997     -0.606999993       7.52198219      -1.57707441    
  0.965201020      0.965201020     -0.606999993       7.52198219      -1.57707441    
  0.758352995       1.13495600     -0.606999993       7.52198219      -1.57707441    
   1.04286098       1.56075203     -0.606999993       7.52198219      -1.57707441    
   1.32730997       1.32730997     -0.606999993       20.5252190      -1.57135093    
   1.83825099       1.83825099     -0.517000020       20.5252190      -1.57135093    
   2.16155505       1.44430494     -0.517000020       20.5252190      -1.57135093    
   1.56075203       1.04286098     -0.606999993       20.5252190      -1.57135093    
   1.56075203       1.04286098     -0.606999993       8.85220051      -1.57634592    
   1.13495600      0.758352995     -0.606999993       8.85220051      -1.57634592    
  0.965201020      0.965201020     -0.606999993       8.85220051      -1.57634592    
   1.32730997       1.32730997     -0.606999993       8.85220051      -1.57634592    
   1.56075203       1.04286098     -0.606999993       1.84606242       1.57727945    
   2.16155505       1.44430494     -0.517000020       1.84606242       1.57727945    
   2.40179110      0.994853973     -0.517000020       1.84606242       1.57727945    
   1.73421395      0.718334973     -0.606999993       1.84606242       1.57727945    
   1.73421395      0.718334973     -0.606999993      0.500784576      -1.66271532    
   1.26109600      0.522363007     -0.606999993      0.500784576      -1.66271532    
   1.13495600      0.758352995     -0.606999993      0.500784576      -1.66271532    
   1.56075203       1.04286098     -0.606999993      0.500784576      -1.66271532    
   1.73421395      0.718334973     -0.606999993       19.2940292       1.57149327    
   2.40179110      0.994853973     -0.517000020       19.2940292       1.57149327    
   2.54972792      0.507171988     -0.517000020       19.2940292       1.57149327    
   1.84103203      0.366203994     -0.606999993       19.2940292       1.57149327    
   1.84103203      0.366203994     -0.606999993       6.70462513       1.57638288    
   1.33877206      0.266297996     -0.606999993       6.70462513       1.57638288    
   1.26109600      0.522363007     -0.606999993       6.70462513       1.57638288    
   1.73421395      0.718334973     -0.606999993       6.70462513       1.57638288    
   1.84103203      0.366203994     -0.606999993       11.4798546       1.57190430    
   2.54972792      0.507171988     -0.517000020       11.4798546       1.57190430    
   2.59967995       0.00000000     -0.517000020       11.4798546       1.57190430    
   1.87709999       0.00000000     -0.606999993       11.4798546       1.57190430    
   1.87709999       0.00000000     -0.606999993       5.03815651       1.57533145    
   1.36500001       0.00000000     -0.606999993       5.03815651       1.57533145    
   1.33877206      0.266297996     -0.606999993       5.03815651       1.57533145    
   1.84103203      0.366203994     -0.606999993       5.03815651       1.57533145    
   1.87709999       0.00000000     -0.606999993       7.58995914      -1.57185030    
   2.59967995       0.00000000     -0.517000020       7.58995914      -1.57185030    
   2.54972792     -0.507171988     -0.517000020       7.58995914      -1.57185030    
   1.84103203     -0.366203994     -0.606999993       7.58995914      -1.57185030    
   1.84103203     -0.366203994     -0.606999993      0.619080663      -1.57432938    
   1.33877206     -0.266297996     -0.606999993      0.619080663      -1.57432938    
   1.36500001       0.00000000     -0.606999993      0.619080663      -1.57432938    
   1.87709999       0.00000000     -0.606999993      0.619080663      -1.57432938    
   1.84103203     -0.366203994     -0.606999993       9.32062340      -1.57072592    
   2.54972792     -0.507171988     -0.517000020       9.32062340      -1.57072592    
   2.40179110     -0.994853973     -0.517000020       9.32062340      -1.57072592    
   1.73421395     -0.718334973     -0.606999993       9.32062340      -1.57072592    
   1.73421395     -0.718334973     -0.606999993       8.49031061E-02   1.28974760    
   1.26109600     -0.522363007     -0.606999993       8.49031061E-02   1.28974760    
   1.33877206     -0.266297996     -0.606999993       8.49031061E-02   1.28974760    
   1.84103203     -0.366203994     -0.606999993       8.49031061E-02   1.28974760    
   1.73421395     -0.718334973     -0.606999993       10.8291979       1.56968355    
   2.40179110     -0.994853973     -0.517000020       10.8291979       1.56968355    
   2.16155505      -1.44430494     -0.517000020       10.8291979       1.56968355    
   1.56075203      -1.04286098     -0.606999993       10.8291979       1.56968355    
   1.56075203      -1.04286098     -0.606999993       8.24236107       1.56459630    
   1.13495600     -0.758352995     -0.606999993       8.24236107       1.56459630    
   1.26109600     -0.522363007     -0.606999993       8.24236107       1.56459630    