 VARIABLES="X" "Y" "Z" "abs(p) (Pa)" "angle(p) (rad)"
ZONE N=   2709,E =    2358, F=FEPOINT, ET=QUADRILATERAL
   0.00000000      -5.48999977     -0.157000005       4049.30615      -1.39537430    
   0.00000000      -4.76741982     -0.246999994       4049.30615      -1.39537430    
  0.930077016      -4.67581606     -0.246999994       4049.30615      -1.39537430    
   1.07104599      -5.38451099     -0.157000005       4049.30615      -1.39537430    
  -1.07104599      -5.38451099     -0.157000005       4053.01660      -1.39548838    
 -0.930077016      -4.67581606     -0.246999994       4053.01660      -1.39548838    
   0.00000000      -4.76741982     -0.246999994       4053.01660      -1.39548838    
   0.00000000      -5.48999977     -0.157000005       4053.01660      -1.39548838    
  -2.10093188      -5.07209921     -0.157000005       3950.48267      -1.39946175    
  -1.82441294      -4.40452194     -0.246999994       3950.48267      -1.39946175    
 -0.930077016      -4.67581606     -0.246999994       3950.48267      -1.39946175    
  -1.07104599      -5.38451099     -0.157000005       3950.48267      -1.39946175    
  -3.05008101      -4.56476784     -0.157000005       3597.85083      -1.39456666    
  -2.64863706      -3.96396494     -0.246999994       3597.85083      -1.39456666    
  -1.82441294      -4.40452194     -0.246999994       3597.85083      -1.39456666    
  -2.10093188      -5.07209921     -0.157000005       3597.85083      -1.39456666    
  -3.88201594      -3.88201594     -0.157000005       3157.59351      -1.39393961    
  -3.37107491      -3.37107491     -0.246999994       3157.59351      -1.39393961    
  -2.64863706      -3.96396494     -0.246999994       3157.59351      -1.39393961    
  -3.05008101      -4.56476784     -0.157000005       3157.59351      -1.39393961    
  -4.56476784      -3.05008101     -0.157000005       2640.80444      -1.39934611    
  -3.96396494      -2.64863706     -0.246999994       2640.80444      -1.39934611    
  -3.37107491      -3.37107491     -0.246999994       2640.80444      -1.39934611    
  -3.88201594      -3.88201594     -0.157000005       2640.80444      -1.39934611    
  -5.07209921      -2.10093188     -0.157000005       1935.61658      -1.39404464    
  -4.40452194      -1.82441294     -0.246999994       1935.61658      -1.39404464    
  -3.96396494      -2.64863706     -0.246999994       1935.61658      -1.39404464    
  -4.56476784      -3.05008101     -0.157000005       1935.61658      -1.39404464    
  -5.38451099      -1.07104599     -0.157000005       1182.87488      -1.39131773    
  -4.67581606     -0.930077016     -0.246999994       1182.87488      -1.39131773    
  -4.40452194      -1.82441294     -0.246999994       1182.87488      -1.39131773    
  -5.07209921      -2.10093188     -0.157000005       1182.87488      -1.39131773    
  -5.48999977       0.00000000     -0.157000005       396.127289      -1.39040589    
  -4.76741982       0.00000000     -0.246999994       396.127289      -1.39040589    
  -4.67581606     -0.930077016     -0.246999994       396.127289      -1.39040589    
  -5.38451099      -1.07104599     -0.157000005       396.127289      -1.39040589    
  -5.38451099       1.07104599     -0.157000005       417.795776       1.73814297    
  -4.67581606      0.930077016     -0.246999994       417.795776       1.73814297    
  -4.76741982       0.00000000     -0.246999994       417.795776       1.73814297    
  -5.48999977       0.00000000     -0.157000005       417.795776       1.73814297    
  -5.07209921       2.10093188     -0.157000005       1215.83691       1.74155521    
  -4.40452194       1.82441294     -0.246999994       1215.83691       1.74155521    
  -4.67581606      0.930077016     -0.246999994       1215.83691       1.74155521    
  -5.38451099       1.07104599     -0.157000005       1215.83691       1.74155521    
  -4.56476784       3.05008101     -0.157000005       1963.19592       1.74225032    
  -3.96396494       2.64863706     -0.246999994       1963.19592       1.74225032    
  -4.40452194       1.82441294     -0.246999994       1963.19592       1.74225032    
  -5.07209921       2.10093188     -0.157000005       1963.19592       1.74225032    
  -3.88201594       3.88201594     -0.157000005       2601.08301       1.74630916    
  -3.37107491       3.37107491     -0.246999994       2601.08301       1.74630916    
  -3.96396494       2.64863706     -0.246999994       2601.08301       1.74630916    
  -4.56476784       3.05008101     -0.157000005       2601.08301       1.74630916    
  -3.05008101       4.56476784     -0.157000005       3203.10400       1.74157989    
  -2.64863706       3.96396494     -0.246999994       3203.10400       1.74157989    
  -3.37107491       3.37107491     -0.246999994       3203.10400       1.74157989    
  -3.88201594       3.88201594     -0.157000005       3203.10400       1.74157989    
  -2.10093188       5.07209921     -0.157000005       3605.54346       1.74512923    
  -1.82441294       4.40452194     -0.246999994       3605.54346       1.74512923    
  -2.64863706       3.96396494     -0.246999994       3605.54346       1.74512923    
  -3.05008101       4.56476784     -0.157000005       3605.54346       1.74512923    
  -1.07104599       5.38451099     -0.157000005       3955.47241       1.74094200    
 -0.930077016       4.67581606     -0.246999994       3955.47241       1.74094200    
  -1.82441294       4.40452194     -0.246999994       3955.47241       1.74094200    
  -2.10093188       5.07209921     -0.157000005       3955.47241       1.74094200    
   0.00000000       5.48999977     -0.157000005       4062.10962       1.74513066    
   0.00000000       4.76741982     -0.246999994       4062.10962       1.74513066    
 -0.930077016       4.67581606     -0.246999994       4062.10962       1.74513066    
  -1.07104599       5.38451099     -0.157000005       4062.10962       1.74513066    
   1.07104599       5.38451099     -0.157000005       4108.84668       1.74179423    
  0.930077016       4.67581606     -0.246999994       4108.84668       1.74179423    
   0.00000000       4.76741982     -0.246999994       4108.84668       1.74179423    
   0.00000000       5.48999977     -0.157000005       4108.84668       1.74179423    
   2.10093188       5.07209921     -0.157000005       3901.89795       1.74699271    
   1.82441294       4.40452194     -0.246999994       3901.89795       1.74699271    
  0.930077016       4.67581606     -0.246999994       3901.89795       1.74699271    
   1.07104599       5.38451099     -0.157000005       3901.89795       1.74699271    
   3.05008101       4.56476784     -0.157000005       3597.56567       1.74822330    
   2.64863706       3.96396494     -0.246999994       3597.56567       1.74822330    
   1.82441294       4.40452194     -0.246999994       3597.56567       1.74822330    
   2.10093188       5.07209921     -0.157000005       3597.56567       1.74822330    
   3.88201594       3.88201594     -0.157000005       3206.78442       1.74403858    
   3.37107491       3.37107491     -0.246999994       3206.78442       1.74403858    
   2.64863706       3.96396494     -0.246999994       3206.78442       1.74403858    
   3.05008101       4.56476784     -0.157000005       3206.78442       1.74403858    
   4.56476784       3.05008101     -0.157000005       2632.36133       1.74545956    
   3.96396494       2.64863706     -0.246999994       2632.36133       1.74545956    
   3.37107491       3.37107491     -0.246999994       2632.36133       1.74545956    
   3.88201594       3.88201594     -0.157000005       2632.36133       1.74545956    
   5.07209921       2.10093188     -0.157000005       1966.24316       1.74486995    
   4.40452194       1.82441294     -0.246999994       1966.24316       1.74486995    
   3.96396494       2.64863706     -0.246999994       1966.24316       1.74486995    
   4.56476784       3.05008101     -0.157000005       1966.24316       1.74486995    
   5.38451099       1.07104599     -0.157000005       1189.30249       1.75219905    
   4.67581606      0.930077016     -0.246999994       1189.30249       1.75219905    
   4.40452194       1.82441294     -0.246999994       1189.30249       1.75219905    
   5.07209921       2.10093188     -0.157000005       1189.30249       1.75219905    
   5.48999977       0.00000000     -0.157000005       394.632935       1.76074529    
   4.76741982       0.00000000     -0.246999994       394.632935       1.76074529    
   4.67581606      0.930077016     -0.246999994       394.632935       1.76074529    
   5.38451099       1.07104599     -0.157000005       394.632935       1.76074529    
   5.38451099      -1.07104599     -0.157000005       407.881256      -1.39966226    
   4.67581606     -0.930077016     -0.246999994       407.881256      -1.39966226    
   4.76741982       0.00000000     -0.246999994       407.881256      -1.39966226    
   5.48999977       0.00000000     -0.157000005       407.881256      -1.39966226    
   5.07209921      -2.10093188     -0.157000005       1192.37659      -1.39378178    
   4.40452194      -1.82441294     -0.246999994       1192.37659      -1.39378178    
   4.67581606     -0.930077016     -0.246999994       1192.37659      -1.39378178    
   5.38451099      -1.07104599     -0.157000005       1192.37659      -1.39378178    
   4.56476784      -3.05008101     -0.157000005       1929.76172      -1.39327204    
   3.96396494      -2.64863706     -0.246999994       1929.76172      -1.39327204    
   4.40452194      -1.82441294     -0.246999994       1929.76172      -1.39327204    
   5.07209921      -2.10093188     -0.157000005       1929.76172      -1.39327204    
   3.88201594      -3.88201594     -0.157000005       2595.45459      -1.39417267    
   3.37107491      -3.37107491     -0.246999994       2595.45459      -1.39417267    
   3.96396494      -2.64863706     -0.246999994       2595.45459      -1.39417267    
   4.56476784      -3.05008101     -0.157000005       2595.45459      -1.39417267    
   3.05008101      -4.56476784     -0.157000005       3200.18652      -1.39936721    
   2.64863706      -3.96396494     -0.246999994       3200.18652      -1.39936721    
   3.37107491      -3.37107491     -0.246999994       3200.18652      -1.39936721    
   3.88201594      -3.88201594     -0.157000005       3200.18652      -1.39936721    
   2.10093188      -5.07209921     -0.157000005       3598.08032      -1.39544094    
   1.82441294      -4.40452194     -0.246999994       3598.08032      -1.39544094    
   2.64863706      -3.96396494     -0.246999994       3598.08032      -1.39544094    
   3.05008101      -4.56476784     -0.157000005       3598.08032      -1.39544094    
   1.07104599      -5.38451099     -0.157000005       3895.32739      -1.39529169    
  0.930077016      -4.67581606     -0.246999994       3895.32739      -1.39529169    
   1.82441294      -4.40452194     -0.246999994       3895.32739      -1.39529169    
   2.10093188      -5.07209921     -0.157000005       3895.32739      -1.39529169    
   0.00000000      -1.87709999     -0.606999993       3822.37061      -1.53669250    
   0.00000000      -1.36500001     -0.606999993       3822.37061      -1.53669250    
  0.266297996      -1.33877206     -0.606999993       3822.37061      -1.53669250    
  0.366203994      -1.84103203     -0.606999993       3822.37061      -1.53669250    
   0.00000000      -1.87709999     -0.606999993       4074.91138      -1.53190589    
   0.00000000      -2.59967995     -0.517000020       4074.91138      -1.53190589    
 -0.507171988      -2.54972792     -0.517000020       4074.91138      -1.53190589    
 -0.366203994      -1.84103203     -0.606999993       4074.91138      -1.53190589    
 -0.366203994      -1.84103203     -0.606999993       3823.91748      -1.53670108    
 -0.266297996      -1.33877206     -0.606999993       3823.91748      -1.53670108    
   0.00000000      -1.36500001     -0.606999993       3823.91748      -1.53670108    
   0.00000000      -1.87709999     -0.606999993       3823.91748      -1.53670108    
 -0.366203994      -1.84103203     -0.606999993       3907.95532      -1.53173769    
 -0.507171988      -2.54972792     -0.517000020       3907.95532      -1.53173769    
 -0.994853973      -2.40179110     -0.517000020       3907.95532      -1.53173769    
 -0.718334973      -1.73421395     -0.606999993       3907.95532      -1.53173769    
 -0.718334973      -1.73421395     -0.606999993       3673.46826      -1.53657019    
 -0.522363007      -1.26109600     -0.606999993       3673.46826      -1.53657019    
 -0.266297996      -1.33877206     -0.606999993       3673.46826      -1.53657019    
 -0.366203994      -1.84103203     -0.606999993       3673.46826      -1.53657019    
 -0.718334973      -1.73421395     -0.606999993       3593.35962      -1.53149891    
 -0.994853973      -2.40179110     -0.517000020       3593.35962      -1.53149891    
  -1.44430494      -2.16155505     -0.517000020       3593.35962      -1.53149891    
  -1.04286098      -1.56075203     -0.606999993       3593.35962      -1.53149891    
  -1.04286098      -1.56075203     -0.606999993       3382.47339      -1.53639376    
 -0.758352995      -1.13495600     -0.606999993       3382.47339      -1.53639376    
 -0.522363007      -1.26109600     -0.606999993       3382.47339      -1.53639376    
 -0.718334973      -1.73421395     -0.606999993       3382.47339      -1.53639376    
  -1.04286098      -1.56075203     -0.606999993       3151.19189      -1.53127599    
  -1.44430494      -2.16155505     -0.517000020       3151.19189      -1.53127599    
  -1.83825099      -1.83825099     -0.517000020       3151.19189      -1.53127599    
  -1.32730997      -1.32730997     -0.606999993       3151.19189      -1.53127599    
  -1.32730997      -1.32730997     -0.606999993       2965.72900      -1.53623235    
 -0.965201020     -0.965201020     -0.606999993       2965.72900      -1.53623235    
 -0.758352995      -1.13495600     -0.606999993       2965.72900      -1.53623235    
  -1.04286098      -1.56075203     -0.606999993       2965.72900      -1.53623235    
  -1.32730997      -1.32730997     -0.606999993       2593.29883      -1.53122640    
  -1.83825099      -1.83825099     -0.517000020       2593.29883      -1.53122640    
  -2.16155505      -1.44430494     -0.517000020       2593.29883      -1.53122640    
  -1.56075203      -1.04286098     -0.606999993       2593.29883      -1.53122640    
  -1.56075203      -1.04286098     -0.606999993       2437.56641      -1.53615606    
  -1.13495600     -0.758352995     -0.606999993       2437.56641      -1.53615606    
 -0.965201020     -0.965201020     -0.606999993       2437.56641      -1.53615606    
  -1.32730997      -1.32730997     -0.606999993       2437.56641      -1.53615606    
  -1.56075203      -1.04286098     -0.606999993       1931.60132      -1.53137410    
  -2.16155505      -1.44430494     -0.517000020       1931.60132      -1.53137410    
  -2.40179110     -0.994853973     -0.517000020       1931.60132      -1.53137410    
  -1.73421395     -0.718334973     -0.606999993       1931.60132      -1.53137410    
  -1.73421395     -0.718334973     -0.606999993       1814.05017      -1.53616250    
  -1.26109600     -0.522363007     -0.606999993       1814.05017      -1.53616250    
  -1.13495600     -0.758352995     -0.606999993       1814.05017      -1.53616250    
  -1.56075203      -1.04286098     -0.606999993       1814.05017      -1.53616250    
  -1.73421395     -0.718334973     -0.606999993       1188.69946      -1.53153670    
  -2.40179110     -0.994853973     -0.517000020       1188.69946      -1.53153670    
  -2.54972792     -0.507171988     -0.517000020       1188.69946      -1.53153670    
  -1.84103203     -0.366203994     -0.606999993       1188.69946      -1.53153670    
  -1.84103203     -0.366203994     -0.606999993       1117.10706      -1.53608501    
  -1.33877206     -0.266297996     -0.606999993       1117.10706      -1.53608501    
  -1.26109600     -0.522363007     -0.606999993       1117.10706      -1.53608501    
  -1.73421395     -0.718334973     -0.606999993       1117.10706      -1.53608501    
  -1.84103203     -0.366203994     -0.606999993       398.517639      -1.53086364    
  -2.54972792     -0.507171988     -0.517000020       398.517639      -1.53086364    
  -2.59967995       0.00000000     -0.517000020       398.517639      -1.53086364    
  -1.87709999       0.00000000     -0.606999993       398.517639      -1.53086364    
  -1.87709999       0.00000000     -0.606999993       374.966644      -1.53474343    
  -1.36500001       0.00000000     -0.606999993       374.966644      -1.53474343    
  -1.33877206     -0.266297996     -0.606999993       374.966644      -1.53474343    
  -1.84103203     -0.366203994     -0.606999993       374.966644      -1.53474343    
  -1.87709999       0.00000000     -0.606999993       405.761078       1.60767162    
  -2.59967995       0.00000000     -0.517000020       405.761078       1.60767162    
  -2.54972792      0.507171988     -0.517000020       405.761078       1.60767162    
  -1.84103203      0.366203994     -0.606999993       405.761078       1.60767162    
  -1.84103203      0.366203994     -0.606999993       382.090881       1.60222459    
  -1.33877206      0.266297996     -0.606999993       382.090881       1.60222459    
  -1.36500001       0.00000000     -0.606999993       382.090881       1.60222459    
  -1.87709999       0.00000000     -0.606999993       382.090881       1.60222459    
  -1.84103203      0.366203994     -0.606999993       1195.95105       1.60882080    
  -2.54972792      0.507171988     -0.517000020       1195.95105       1.60882080    
  -2.40179110      0.994853973     -0.517000020       1195.95105       1.60882080    
  -1.73421395      0.718334973     -0.606999993       1195.95105       1.60882080    
  -1.73421395      0.718334973     -0.606999993       1124.45300       1.60381353    
  -1.26109600      0.522363007     -0.606999993       1124.45300       1.60381353    
  -1.33877206      0.266297996     -0.606999993       1124.45300       1.60381353    
  -1.84103203      0.366203994     -0.606999993       1124.45300       1.60381353    
  -1.73421395      0.718334973     -0.606999993       1940.41064       1.60933399    
  -2.40179110      0.994853973     -0.517000020       1940.41064       1.60933399    
  -2.16155505       1.44430494     -0.517000020       1940.41064       1.60933399    
  -1.56075203       1.04286098     -0.606999993       1940.41064       1.60933399    
  -1.56075203       1.04286098     -0.606999993       1822.38794       1.60426486    
  -1.13495600      0.758352995     -0.606999993       1822.38794       1.60426486    
  -1.26109600      0.522363007     -0.606999993       1822.38794       1.60426486    
  -1.73421395      0.718334973     -0.606999993       1822.38794       1.60426486    
  -1.56075203       1.04286098     -0.606999993       2604.41870       1.60967898    
  -2.16155505       1.44430494     -0.517000020       2604.41870       1.60967898    
  -1.83825099       1.83825099     -0.517000020       2604.41870       1.60967898    
  -1.32730997       1.32730997     -0.606999993       2604.41870       1.60967898    
  -1.32730997       1.32730997     -0.606999993       2447.51147       1.60453653    
 -0.965201020      0.965201020     -0.606999993       2447.51147       1.60453653    
  -1.13495600      0.758352995     -0.606999993       2447.51147       1.60453653    
  -1.56075203       1.04286098     -0.606999993       2447.51147       1.60453653    
  -1.32730997       1.32730997     -0.606999993       3163.46973       1.60979700    
  -1.83825099       1.83825099     -0.517000020       3163.46973       1.60979700    
  -1.44430494       2.16155505     -0.517000020       3163.46973       1.60979700    
  -1.04286098       1.56075203     -0.606999993       3163.46973       1.60979700    
  -1.04286098       1.56075203     -0.606999993       2977.10083       1.60465527    
 -0.758352995       1.13495600     -0.606999993       2977.10083       1.60465527    
 -0.965201020      0.965201020     -0.606999993       2977.10083       1.60465527    
  -1.32730997       1.32730997     -0.606999993       2977.10083       1.60465527    
  -1.04286098       1.56075203     -0.606999993       3605.51416       1.60972011    
  -1.44430494       2.16155505     -0.517000020       3605.51416       1.60972011    
 -0.994853973       2.40179110     -0.517000020       3605.51416       1.60972011    
 -0.718334973       1.73421395     -0.606999993       3605.51416       1.60972011    
 -0.718334973       1.73421395     -0.606999993       3395.00439       1.60465288    
 -0.522363007       1.26109600     -0.606999993       3395.00439       1.60465288    
 -0.758352995       1.13495600     -0.606999993       3395.00439       1.60465288    
  -1.04286098       1.56075203     -0.606999993       3395.00439       1.60465288    
 -0.718334973       1.73421395     -0.606999993       3919.69360       1.60957122    
 -0.994853973       2.40179110     -0.517000020       3919.69360       1.60957122    
 -0.507171988       2.54972792     -0.517000020       3919.69360       1.60957122    
 -0.366203994       1.84103203     -0.606999993       3919.69360       1.60957122    
 -0.366203994       1.84103203     -0.606999993       3687.19263       1.60458708    
 -0.266297996       1.33877206     -0.606999993       3687.19263       1.60458708    
 -0.522363007       1.26109600     -0.606999993       3687.19263       1.60458708    
 -0.718334973       1.73421395     -0.606999993       3687.19263       1.60458708    
 -0.366203994       1.84103203     -0.606999993       4086.82593       1.60948348    
 -0.507171988       2.54972792     -0.517000020       4086.82593       1.60948348    
   0.00000000       2.59967995     -0.517000020       4086.82593       1.60948348    
   0.00000000       1.87709999     -0.606999993       4086.82593       1.60948348    
   0.00000000       1.87709999     -0.606999993       3839.04688       1.60456097    
   0.00000000       1.36500001     -0.606999993       3839.04688       1.60456097    
 -0.266297996       1.33877206     -0.606999993       3839.04688       1.60456097    
 -0.366203994       1.84103203     -0.606999993       3839.04688       1.60456097    
   0.00000000       1.87709999     -0.606999993       4087.01929       1.60955107    
   0.00000000       2.59967995     -0.517000020       4087.01929       1.60955107    
  0.507171988       2.54972792     -0.517000020       4087.01929       1.60955107    
  0.366203994       1.84103203     -0.606999993       4087.01929       1.60955107    
  0.366203994       1.84103203     -0.606999993       3839.34717       1.60463595    
  0.266297996       1.33877206     -0.606999993       3839.34717       1.60463595    
   0.00000000       1.36500001     -0.606999993       3839.34717       1.60463595    
   0.00000000       1.87709999     -0.606999993       3839.34717       1.60463595    
  0.366203994       1.84103203     -0.606999993       3920.31836       1.60975742    
  0.507171988       2.54972792     -0.517000020       3920.31836       1.60975742    
  0.994853973       2.40179110     -0.517000020       3920.31836       1.60975742    
  0.718334973       1.73421395     -0.606999993       3920.31836       1.60975742    
  0.718334973       1.73421395     -0.606999993       3688.21973       1.60479808    
  0.522363007       1.26109600     -0.606999993       3688.21973       1.60479808    
  0.266297996       1.33877206     -0.606999993       3688.21973       1.60479808    
  0.366203994       1.84103203     -0.606999993       3688.21973       1.60479808    
  0.718334973       1.73421395     -0.606999993       3606.70312       1.61003041    
  0.994853973       2.40179110     -0.517000020       3606.70312       1.61003041    
   1.44430494       2.16155505     -0.517000020       3606.70312       1.61003041    
   1.04286098       1.56075203     -0.606999993       3606.70312       1.61003041    
   1.04286098       1.56075203     -0.606999993       3397.03613       1.60499310    
  0.758352995       1.13495600     -0.606999993       3397.03613       1.60499310    
  0.522363007       1.26109600     -0.606999993       3397.03613       1.60499310    
  0.718334973       1.73421395     -0.606999993       3397.03613       1.60499310    
   1.04286098       1.56075203     -0.606999993       3165.38062       1.61021638    
   1.44430494       2.16155505     -0.517000020       3165.38062       1.61021638    
   1.83825099       1.83825099     -0.517000020       3165.38062       1.61021638    
   1.32730997       1.32730997     -0.606999993       3165.38062       1.61021638    
   1.32730997       1.32730997     -0.606999993       2980.24658       1.60513365    
  0.965201020      0.965201020     -0.606999993       2980.24658       1.60513365    
  0.758352995       1.13495600     -0.606999993       2980.24658       1.60513365    
   1.04286098       1.56075203     -0.606999993       2980.24658       1.60513365    
   1.32730997       1.32730997     -0.606999993       2606.97021       1.61020422    
   1.83825099       1.83825099     -0.517000020       2606.97021       1.61020422    
   2.16155505       1.44430494     -0.517000020       2606.97021       1.61020422    
   1.56075203       1.04286098     -0.606999993       2606.97021       1.61020422    
   1.56075203       1.04286098     -0.606999993       2451.82080       1.60514402    
   1.13495600      0.758352995     -0.606999993       2451.82080       1.60514402    
  0.965201020      0.965201020     -0.606999993       2451.82080       1.60514402    
   1.32730997       1.32730997     -0.606999993       2451.82080       1.60514402    
   1.56075203       1.04286098     -0.606999993       1943.39502       1.60999262    
   2.16155505       1.44430494     -0.517000020       1943.39502       1.60999262    
   2.40179110      0.994853973     -0.517000020       1943.39502       1.60999262    
   1.73421395      0.718334973     -0.606999993       1943.39502       1.60999262    
   1.73421395      0.718334973     -0.606999993       1827.66284       1.60507333    
   1.26109600      0.522363007     -0.606999993       1827.66284       1.60507333    
   1.13495600      0.758352995     -0.606999993       1827.66284       1.60507333    
   1.56075203       1.04286098     -0.606999993       1827.66284       1.60507333    
   1.73421395      0.718334973     -0.606999993       1199.16479       1.60975969    
   2.40179110      0.994853973     -0.517000020       1199.16479       1.60975969    
   2.54972792      0.507171988     -0.517000020       1199.16479       1.60975969    
   1.84103203      0.366203994     -0.606999993       1199.16479       1.60975969    
   1.84103203      0.366203994     -0.606999993       1130.51880       1.60492849    
   1.33877206      0.266297996     -0.606999993       1130.51880       1.60492849    
   1.26109600      0.522363007     -0.606999993       1130.51880       1.60492849    
   1.73421395      0.718334973     -0.606999993       1130.51880       1.60492849    
   1.84103203      0.366203994     -0.606999993       409.254578       1.60987198    
   2.54972792      0.507171988     -0.517000020       409.254578       1.60987198    
   2.59967995       0.00000000     -0.517000020       409.254578       1.60987198    
   1.87709999       0.00000000     -0.606999993       409.254578       1.60987198    
   1.87709999       0.00000000     -0.606999993       389.012787       1.60484183    
   1.36500001       0.00000000     -0.606999993       389.012787       1.60484183    
   1.33877206      0.266297996     -0.606999993       389.012787       1.60484183    
   1.84103203      0.366203994     -0.606999993       389.012787       1.60484183    
   1.87709999       0.00000000     -0.606999993       394.614380      -1.53250945    
   2.59967995       0.00000000     -0.517000020       394.614380      -1.53250945    
   2.54972792     -0.507171988     -0.517000020       394.614380      -1.53250945    
   1.84103203     -0.366203994     -0.606999993       394.614380      -1.53250945    
   1.84103203     -0.366203994     -0.606999993       367.174225      -1.53663623    
   1.33877206     -0.266297996     -0.606999993       367.174225      -1.53663623    
   1.36500001       0.00000000     -0.606999993       367.174225      -1.53663623    
   1.87709999       0.00000000     -0.606999993       367.174225      -1.53663623    
   1.84103203     -0.366203994     -0.606999993       1184.30640      -1.53188920    
   2.54972792     -0.507171988     -0.517000020       1184.30640      -1.53188920    
   2.40179110     -0.994853973     -0.517000020       1184.30640      -1.53188920    
   1.73421395     -0.718334973     -0.606999993       1184.30640      -1.53188920    
   1.73421395     -0.718334973     -0.606999993       1108.54993      -1.53646696    
   1.26109600     -0.522363007     -0.606999993       1108.54993      -1.53646696    
   1.33877206     -0.266297996     -0.606999993       1108.54993      -1.53646696    
   1.84103203     -0.366203994     -0.606999993       1108.54993      -1.53646696    
   1.73421395     -0.718334973     -0.606999993       1926.77881      -1.53150117    
   2.40179110     -0.994853973     -0.517000020       1926.77881      -1.53150117    
   2.16155505      -1.44430494     -0.517000020       1926.77881      -1.53150117    
   1.56075203      -1.04286098     -0.606999993       1926.77881      -1.53150117    
   1.56075203      -1.04286098     -0.606999993       1805.01782      -1.53628862    
   1.13495600     -0.758352995     -0.606999993       1805.01782      -1.53628862    
   1.26109600     -0.522363007     -0.606999993       1805.01782      -1.53628862    