 VARIABLES="X" "Y" "Z" "abs(p) (Pa)" "angle(p) (rad)"
ZONE N=   2709,E =    2358, F=FEPOINT, ET=QUADRILATERAL
   0.00000000      -5.48999977     -0.157000005       805.626343      -3.64391953E-02
   0.00000000      -4.76741982     -0.246999994       805.626343      -3.64391953E-02
  0.930077016      -4.67581606     -0.246999994       805.626343      -3.64391953E-02
   1.07104599      -5.38451099     -0.157000005       805.626343      -3.64391953E-02
  -1.07104599      -5.38451099     -0.157000005       805.559937      -3.72673646E-02
 -0.930077016      -4.67581606     -0.246999994       805.559937      -3.72673646E-02
   0.00000000      -4.76741982     -0.246999994       805.559937      -3.72673646E-02
   0.00000000      -5.48999977     -0.157000005       805.559937      -3.72673646E-02
  -2.10093188      -5.07209921     -0.157000005       765.760620      -5.71207181E-02
  -1.82441294      -4.40452194     -0.246999994       765.760620      -5.71207181E-02
 -0.930077016      -4.67581606     -0.246999994       765.760620      -5.71207181E-02
  -1.07104599      -5.38451099     -0.157000005       765.760620      -5.71207181E-02
  -3.05008101      -4.56476784     -0.157000005       720.061707      -3.92860174E-02
  -2.64863706      -3.96396494     -0.246999994       720.061707      -3.92860174E-02
  -1.82441294      -4.40452194     -0.246999994       720.061707      -3.92860174E-02
  -2.10093188      -5.07209921     -0.157000005       720.061707      -3.92860174E-02
  -3.88201594      -3.88201594     -0.157000005       635.781433      -5.53887151E-02
  -3.37107491      -3.37107491     -0.246999994       635.781433      -5.53887151E-02
  -2.64863706      -3.96396494     -0.246999994       635.781433      -5.53887151E-02
  -3.05008101      -4.56476784     -0.157000005       635.781433      -5.53887151E-02
  -4.56476784      -3.05008101     -0.157000005       516.207581      -9.52287242E-02
  -3.96396494      -2.64863706     -0.246999994       516.207581      -9.52287242E-02
  -3.37107491      -3.37107491     -0.246999994       516.207581      -9.52287242E-02
  -3.88201594      -3.88201594     -0.157000005       516.207581      -9.52287242E-02
  -5.07209921      -2.10093188     -0.157000005       393.045502      -6.62537888E-02
  -4.40452194      -1.82441294     -0.246999994       393.045502      -6.62537888E-02
  -3.96396494      -2.64863706     -0.246999994       393.045502      -6.62537888E-02
  -4.56476784      -3.05008101     -0.157000005       393.045502      -6.62537888E-02
  -5.38451099      -1.07104599     -0.157000005       247.575195      -3.26073244E-02
  -4.67581606     -0.930077016     -0.246999994       247.575195      -3.26073244E-02
  -4.40452194      -1.82441294     -0.246999994       247.575195      -3.26073244E-02
  -5.07209921      -2.10093188     -0.157000005       247.575195      -3.26073244E-02
  -5.48999977       0.00000000     -0.157000005       88.5138702      -2.15075705E-02
  -4.76741982       0.00000000     -0.246999994       88.5138702      -2.15075705E-02
  -4.67581606     -0.930077016     -0.246999994       88.5138702      -2.15075705E-02
  -5.38451099      -1.07104599     -0.157000005       88.5138702      -2.15075705E-02
  -5.38451099       1.07104599     -0.157000005       71.9493637       3.12964606    
  -4.67581606      0.930077016     -0.246999994       71.9493637       3.12964606    
  -4.76741982       0.00000000     -0.246999994       71.9493637       3.12964606    
  -5.48999977       0.00000000     -0.157000005       71.9493637       3.12964606    
  -5.07209921       2.10093188     -0.157000005       230.366699       3.10388255    
  -4.40452194       1.82441294     -0.246999994       230.366699       3.10388255    
  -4.67581606      0.930077016     -0.246999994       230.366699       3.10388255    
  -5.38451099       1.07104599     -0.157000005       230.366699       3.10388255    
  -4.56476784       3.05008101     -0.157000005       381.034912       3.07307410    
  -3.96396494       2.64863706     -0.246999994       381.034912       3.07307410    
  -4.40452194       1.82441294     -0.246999994       381.034912       3.07307410    
  -5.07209921       2.10093188     -0.157000005       381.034912       3.07307410    
  -3.88201594       3.88201594     -0.157000005       523.312195       3.07493472    
  -3.37107491       3.37107491     -0.246999994       523.312195       3.07493472    
  -3.96396494       2.64863706     -0.246999994       523.312195       3.07493472    
  -4.56476784       3.05008101     -0.157000005       523.312195       3.07493472    
  -3.05008101       4.56476784     -0.157000005       628.048462       3.06173444    
  -2.64863706       3.96396494     -0.246999994       628.048462       3.06173444    
  -3.37107491       3.37107491     -0.246999994       628.048462       3.06173444    
  -3.88201594       3.88201594     -0.157000005       628.048462       3.06173444    
  -2.10093188       5.07209921     -0.157000005       723.311523       3.09770083    
  -1.82441294       4.40452194     -0.246999994       723.311523       3.09770083    
  -2.64863706       3.96396494     -0.246999994       723.311523       3.09770083    
  -3.05008101       4.56476784     -0.157000005       723.311523       3.09770083    
  -1.07104599       5.38451099     -0.157000005       771.656433       3.08506656    
 -0.930077016       4.67581606     -0.246999994       771.656433       3.08506656    
  -1.82441294       4.40452194     -0.246999994       771.656433       3.08506656    
  -2.10093188       5.07209921     -0.157000005       771.656433       3.08506656    
   0.00000000       5.48999977     -0.157000005       812.777527       3.10410047    
   0.00000000       4.76741982     -0.246999994       812.777527       3.10410047    
 -0.930077016       4.67581606     -0.246999994       812.777527       3.10410047    
  -1.07104599       5.38451099     -0.157000005       812.777527       3.10410047    
   1.07104599       5.38451099     -0.157000005       803.107788       3.08735895    
  0.930077016       4.67581606     -0.246999994       803.107788       3.08735895    
   0.00000000       4.76741982     -0.246999994       803.107788       3.08735895    
   0.00000000       5.48999977     -0.157000005       803.107788       3.08735895    
   2.10093188       5.07209921     -0.157000005       786.849121       3.10486150    
   1.82441294       4.40452194     -0.246999994       786.849121       3.10486150    
  0.930077016       4.67581606     -0.246999994       786.849121       3.10486150    
   1.07104599       5.38451099     -0.157000005       786.849121       3.10486150    
   3.05008101       4.56476784     -0.157000005       729.325012       3.09994745    
   2.64863706       3.96396494     -0.246999994       729.325012       3.09994745    
   1.82441294       4.40452194     -0.246999994       729.325012       3.09994745    
   2.10093188       5.07209921     -0.157000005       729.325012       3.09994745    
   3.88201594       3.88201594     -0.157000005       631.526611       3.05825353    
   3.37107491       3.37107491     -0.246999994       631.526611       3.05825353    
   2.64863706       3.96396494     -0.246999994       631.526611       3.05825353    
   3.05008101       4.56476784     -0.157000005       631.526611       3.05825353    
   4.56476784       3.05008101     -0.157000005       520.215271       3.05467939    
   3.96396494       2.64863706     -0.246999994       520.215271       3.05467939    
   3.37107491       3.37107491     -0.246999994       520.215271       3.05467939    
   3.88201594       3.88201594     -0.157000005       520.215271       3.05467939    
   5.07209921       2.10093188     -0.157000005       383.144897       3.06736350    
   4.40452194       1.82441294     -0.246999994       383.144897       3.06736350    
   3.96396494       2.64863706     -0.246999994       383.144897       3.06736350    
   4.56476784       3.05008101     -0.157000005       383.144897       3.06736350    
   5.38451099       1.07104599     -0.157000005       238.845993       3.13076043    
   4.67581606      0.930077016     -0.246999994       238.845993       3.13076043    
   4.40452194       1.82441294     -0.246999994       238.845993       3.13076043    
   5.07209921       2.10093188     -0.157000005       238.845993       3.13076043    
   5.48999977       0.00000000     -0.157000005       79.1624603      -3.07707524    
   4.76741982       0.00000000     -0.246999994       79.1624603      -3.07707524    
   4.67581606      0.930077016     -0.246999994       79.1624603      -3.07707524    
   5.38451099       1.07104599     -0.157000005       79.1624603      -3.07707524    
   5.38451099      -1.07104599     -0.157000005       85.0140686      -5.81398271E-02
   4.67581606     -0.930077016     -0.246999994       85.0140686      -5.81398271E-02
   4.76741982       0.00000000     -0.246999994       85.0140686      -5.81398271E-02
   5.48999977       0.00000000     -0.157000005       85.0140686      -5.81398271E-02
   5.07209921      -2.10093188     -0.157000005       244.771210      -4.12290134E-02
   4.40452194      -1.82441294     -0.246999994       244.771210      -4.12290134E-02
   4.67581606     -0.930077016     -0.246999994       244.771210      -4.12290134E-02
   5.38451099      -1.07104599     -0.157000005       244.771210      -4.12290134E-02
   4.56476784      -3.05008101     -0.157000005       393.900909      -5.92607781E-02
   3.96396494      -2.64863706     -0.246999994       393.900909      -5.92607781E-02
   4.40452194      -1.82441294     -0.246999994       393.900909      -5.92607781E-02
   5.07209921      -2.10093188     -0.157000005       393.900909      -5.92607781E-02
   3.88201594      -3.88201594     -0.157000005       525.187195      -6.74683377E-02
   3.37107491      -3.37107491     -0.246999994       525.187195      -6.74683377E-02
   3.96396494      -2.64863706     -0.246999994       525.187195      -6.74683377E-02
   4.56476784      -3.05008101     -0.157000005       525.187195      -6.74683377E-02
   3.05008101      -4.56476784     -0.157000005       624.766113      -7.35891163E-02
   2.64863706      -3.96396494     -0.246999994       624.766113      -7.35891163E-02
   3.37107491      -3.37107491     -0.246999994       624.766113      -7.35891163E-02
   3.88201594      -3.88201594     -0.157000005       624.766113      -7.35891163E-02
   2.10093188      -5.07209921     -0.157000005       717.958374      -3.91150899E-02
   1.82441294      -4.40452194     -0.246999994       717.958374      -3.91150899E-02
   2.64863706      -3.96396494     -0.246999994       717.958374      -3.91150899E-02
   3.05008101      -4.56476784     -0.157000005       717.958374      -3.91150899E-02
   1.07104599      -5.38451099     -0.157000005       776.433472      -3.73869911E-02
  0.930077016      -4.67581606     -0.246999994       776.433472      -3.73869911E-02
   1.82441294      -4.40452194     -0.246999994       776.433472      -3.73869911E-02
   2.10093188      -5.07209921     -0.157000005       776.433472      -3.73869911E-02
   0.00000000      -1.87709999     -0.606999993       13610.9160      -1.56041336    
   0.00000000      -1.36500001     -0.606999993       13610.9160      -1.56041336    
  0.266297996      -1.33877206     -0.606999993       13610.9160      -1.56041336    
  0.366203994      -1.84103203     -0.606999993       13610.9160      -1.56041336    
   0.00000000      -1.87709999     -0.606999993       6922.55518      -1.54796791    
   0.00000000      -2.59967995     -0.517000020       6922.55518      -1.54796791    
 -0.507171988      -2.54972792     -0.517000020       6922.55518      -1.54796791    
 -0.366203994      -1.84103203     -0.606999993       6922.55518      -1.54796791    
 -0.366203994      -1.84103203     -0.606999993       13617.6133      -1.56041169    
 -0.266297996      -1.33877206     -0.606999993       13617.6133      -1.56041169    
   0.00000000      -1.36500001     -0.606999993       13617.6133      -1.56041169    
   0.00000000      -1.87709999     -0.606999993       13617.6133      -1.56041169    
 -0.366203994      -1.84103203     -0.606999993       6736.03027      -1.54818988    
 -0.507171988      -2.54972792     -0.517000020       6736.03027      -1.54818988    
 -0.994853973      -2.40179110     -0.517000020       6736.03027      -1.54818988    
 -0.718334973      -1.73421395     -0.606999993       6736.03027      -1.54818988    
 -0.718334973      -1.73421395     -0.606999993       13160.6846      -1.56041896    
 -0.522363007      -1.26109600     -0.606999993       13160.6846      -1.56041896    
 -0.266297996      -1.33877206     -0.606999993       13160.6846      -1.56041896    
 -0.366203994      -1.84103203     -0.606999993       13160.6846      -1.56041896    
 -0.718334973      -1.73421395     -0.606999993       6325.85986      -1.54848766    
 -0.994853973      -2.40179110     -0.517000020       6325.85986      -1.54848766    
  -1.44430494      -2.16155505     -0.517000020       6325.85986      -1.54848766    
  -1.04286098      -1.56075203     -0.606999993       6325.85986      -1.54848766    
  -1.04286098      -1.56075203     -0.606999993       12221.5244      -1.56042707    
 -0.758352995      -1.13495600     -0.606999993       12221.5244      -1.56042707    
 -0.522363007      -1.26109600     -0.606999993       12221.5244      -1.56042707    
 -0.718334973      -1.73421395     -0.606999993       12221.5244      -1.56042707    
  -1.04286098      -1.56075203     -0.606999993       5640.56885      -1.54867148    
  -1.44430494      -2.16155505     -0.517000020       5640.56885      -1.54867148    
  -1.83825099      -1.83825099     -0.517000020       5640.56885      -1.54867148    
  -1.32730997      -1.32730997     -0.606999993       5640.56885      -1.54867148    
  -1.32730997      -1.32730997     -0.606999993       10784.5547      -1.56040537    
 -0.965201020     -0.965201020     -0.606999993       10784.5547      -1.56040537    
 -0.758352995      -1.13495600     -0.606999993       10784.5547      -1.56040537    
  -1.04286098      -1.56075203     -0.606999993       10784.5547      -1.56040537    
  -1.32730997      -1.32730997     -0.606999993       4651.15967      -1.54859018    
  -1.83825099      -1.83825099     -0.517000020       4651.15967      -1.54859018    
  -2.16155505      -1.44430494     -0.517000020       4651.15967      -1.54859018    
  -1.56075203      -1.04286098     -0.606999993       4651.15967      -1.54859018    
  -1.56075203      -1.04286098     -0.606999993       8876.94531      -1.56033206    
  -1.13495600     -0.758352995     -0.606999993       8876.94531      -1.56033206    
 -0.965201020     -0.965201020     -0.606999993       8876.94531      -1.56033206    
  -1.32730997      -1.32730997     -0.606999993       8876.94531      -1.56033206    
  -1.56075203      -1.04286098     -0.606999993       3403.58276      -1.54813504    
  -2.16155505      -1.44430494     -0.517000020       3403.58276      -1.54813504    
  -2.40179110     -0.994853973     -0.517000020       3403.58276      -1.54813504    
  -1.73421395     -0.718334973     -0.606999993       3403.58276      -1.54813504    
  -1.73421395     -0.718334973     -0.606999993       6588.83789      -1.56020272    
  -1.26109600     -0.522363007     -0.606999993       6588.83789      -1.56020272    
  -1.13495600     -0.758352995     -0.606999993       6588.83789      -1.56020272    
  -1.56075203      -1.04286098     -0.606999993       6588.83789      -1.56020272    
  -1.73421395     -0.718334973     -0.606999993       2043.58997      -1.54738235    
  -2.40179110     -0.994853973     -0.517000020       2043.58997      -1.54738235    
  -2.54972792     -0.507171988     -0.517000020       2043.58997      -1.54738235    
  -1.84103203     -0.366203994     -0.606999993       2043.58997      -1.54738235    
  -1.84103203     -0.366203994     -0.606999993       4059.17676      -1.55998445    
  -1.33877206     -0.266297996     -0.606999993       4059.17676      -1.55998445    
  -1.26109600     -0.522363007     -0.606999993       4059.17676      -1.55998445    
  -1.73421395     -0.718334973     -0.606999993       4059.17676      -1.55998445    
  -1.84103203     -0.366203994     -0.606999993       701.371399      -1.54626882    
  -2.54972792     -0.507171988     -0.517000020       701.371399      -1.54626882    
  -2.59967995       0.00000000     -0.517000020       701.371399      -1.54626882    
  -1.87709999       0.00000000     -0.606999993       701.371399      -1.54626882    
  -1.87709999       0.00000000     -0.606999993       1421.07275      -1.55918241    
  -1.36500001       0.00000000     -0.606999993       1421.07275      -1.55918241    
  -1.33877206     -0.266297996     -0.606999993       1421.07275      -1.55918241    
  -1.84103203     -0.366203994     -0.606999993       1421.07275      -1.55918241    
  -1.87709999       0.00000000     -0.606999993       592.194946       1.59395492    
  -2.59967995       0.00000000     -0.517000020       592.194946       1.59395492    
  -2.54972792      0.507171988     -0.517000020       592.194946       1.59395492    
  -1.84103203      0.366203994     -0.606999993       592.194946       1.59395492    
  -1.84103203      0.366203994     -0.606999993       1234.10999       1.58005929    
  -1.33877206      0.266297996     -0.606999993       1234.10999       1.58005929    
  -1.36500001       0.00000000     -0.606999993       1234.10999       1.58005929    
  -1.87709999       0.00000000     -0.606999993       1234.10999       1.58005929    
  -1.84103203      0.366203994     -0.606999993       1899.10413       1.59421575    
  -2.54972792      0.507171988     -0.517000020       1899.10413       1.59421575    
  -2.40179110      0.994853973     -0.517000020       1899.10413       1.59421575    
  -1.73421395      0.718334973     -0.606999993       1899.10413       1.59421575    
  -1.73421395      0.718334973     -0.606999993       3854.26611       1.58095515    
  -1.26109600      0.522363007     -0.606999993       3854.26611       1.58095515    
  -1.33877206      0.266297996     -0.606999993       3854.26611       1.58095515    
  -1.84103203      0.366203994     -0.606999993       3854.26611       1.58095515    
  -1.73421395      0.718334973     -0.606999993       3228.92676       1.59378147    
  -2.40179110      0.994853973     -0.517000020       3228.92676       1.59378147    
  -2.16155505       1.44430494     -0.517000020       3228.92676       1.59378147    
  -1.56075203       1.04286098     -0.606999993       3228.92676       1.59378147    
  -1.56075203       1.04286098     -0.606999993       6368.12891       1.58110487    
  -1.13495600      0.758352995     -0.606999993       6368.12891       1.58110487    
  -1.26109600      0.522363007     -0.606999993       6368.12891       1.58110487    
  -1.73421395      0.718334973     -0.606999993       6368.12891       1.58110487    
  -1.56075203       1.04286098     -0.606999993       4484.41846       1.59335387    
  -2.16155505       1.44430494     -0.517000020       4484.41846       1.59335387    
  -1.83825099       1.83825099     -0.517000020       4484.41846       1.59335387    
  -1.32730997       1.32730997     -0.606999993       4484.41846       1.59335387    
  -1.32730997       1.32730997     -0.606999993       8661.07910       1.58115172    
 -0.965201020      0.965201020     -0.606999993       8661.07910       1.58115172    
  -1.13495600      0.758352995     -0.606999993       8661.07910       1.58115172    
  -1.56075203       1.04286098     -0.606999993       8661.07910       1.58115172    
  -1.32730997       1.32730997     -0.606999993       5513.72266       1.59322631    
  -1.83825099       1.83825099     -0.517000020       5513.72266       1.59322631    
  -1.44430494       2.16155505     -0.517000020       5513.72266       1.59322631    
  -1.04286098       1.56075203     -0.606999993       5513.72266       1.59322631    
  -1.04286098       1.56075203     -0.606999993       10594.8057       1.58118951    
 -0.758352995       1.13495600     -0.606999993       10594.8057       1.58118951    
 -0.965201020      0.965201020     -0.606999993       10594.8057       1.58118951    
  -1.32730997       1.32730997     -0.606999993       10594.8057       1.58118951    
  -1.04286098       1.56075203     -0.606999993       6242.50293       1.59336782    
  -1.44430494       2.16155505     -0.517000020       6242.50293       1.59336782    
 -0.994853973       2.40179110     -0.517000020       6242.50293       1.59336782    
 -0.718334973       1.73421395     -0.606999993       6242.50293       1.59336782    
 -0.718334973       1.73421395     -0.606999993       12070.5215       1.58122933    
 -0.522363007       1.26109600     -0.606999993       12070.5215       1.58122933    
 -0.758352995       1.13495600     -0.606999993       12070.5215       1.58122933    
  -1.04286098       1.56075203     -0.606999993       12070.5215       1.58122933    
 -0.718334973       1.73421395     -0.606999993       6684.15283       1.59364140    
 -0.994853973       2.40179110     -0.517000020       6684.15283       1.59364140    
 -0.507171988       2.54972792     -0.517000020       6684.15283       1.59364140    
 -0.366203994       1.84103203     -0.606999993       6684.15283       1.59364140    
 -0.366203994       1.84103203     -0.606999993       13047.7324       1.58127749    
 -0.266297996       1.33877206     -0.606999993       13047.7324       1.58127749    
 -0.522363007       1.26109600     -0.606999993       13047.7324       1.58127749    
 -0.718334973       1.73421395     -0.606999993       13047.7324       1.58127749    
 -0.366203994       1.84103203     -0.606999993       6890.20264       1.59385240    
 -0.507171988       2.54972792     -0.517000020       6890.20264       1.59385240    
   0.00000000       2.59967995     -0.517000020       6890.20264       1.59385240    
   0.00000000       1.87709999     -0.606999993       6890.20264       1.59385240    
   0.00000000       1.87709999     -0.606999993       13533.8076       1.58130956    
   0.00000000       1.36500001     -0.606999993       13533.8076       1.58130956    
 -0.266297996       1.33877206     -0.606999993       13533.8076       1.58130956    
 -0.366203994       1.84103203     -0.606999993       13533.8076       1.58130956    
   0.00000000       1.87709999     -0.606999993       6896.01611       1.59385061    
   0.00000000       2.59967995     -0.517000020       6896.01611       1.59385061    
  0.507171988       2.54972792     -0.517000020       6896.01611       1.59385061    
  0.366203994       1.84103203     -0.606999993       6896.01611       1.59385061    
  0.366203994       1.84103203     -0.606999993       13543.2041       1.58131146    
  0.266297996       1.33877206     -0.606999993       13543.2041       1.58131146    
   0.00000000       1.36500001     -0.606999993       13543.2041       1.58131146    
   0.00000000       1.87709999     -0.606999993       13543.2041       1.58131146    
  0.366203994       1.84103203     -0.606999993       6701.47656       1.59362912    
  0.507171988       2.54972792     -0.517000020       6701.47656       1.59362912    
  0.994853973       2.40179110     -0.517000020       6701.47656       1.59362912    
  0.718334973       1.73421395     -0.606999993       6701.47656       1.59362912    
  0.718334973       1.73421395     -0.606999993       13075.1572       1.58128083    
  0.522363007       1.26109600     -0.606999993       13075.1572       1.58128083    
  0.266297996       1.33877206     -0.606999993       13075.1572       1.58128083    
  0.366203994       1.84103203     -0.606999993       13075.1572       1.58128083    
  0.718334973       1.73421395     -0.606999993       6270.86182       1.59333360    
  0.994853973       2.40179110     -0.517000020       6270.86182       1.59333360    
   1.44430494       2.16155505     -0.517000020       6270.86182       1.59333360    
   1.04286098       1.56075203     -0.606999993       6270.86182       1.59333360    
   1.04286098       1.56075203     -0.606999993       12114.2236       1.58123386    
  0.758352995       1.13495600     -0.606999993       12114.2236       1.58123386    
  0.522363007       1.26109600     -0.606999993       12114.2236       1.58123386    
  0.718334973       1.73421395     -0.606999993       12114.2236       1.58123386    
   1.04286098       1.56075203     -0.606999993       5552.22559       1.59316087    
   1.44430494       2.16155505     -0.517000020       5552.22559       1.59316087    
   1.83825099       1.83825099     -0.517000020       5552.22559       1.59316087    
   1.32730997       1.32730997     -0.606999993       5552.22559       1.59316087    
   1.32730997       1.32730997     -0.606999993       10652.8994       1.58119142    
  0.965201020      0.965201020     -0.606999993       10652.8994       1.58119142    
  0.758352995       1.13495600     -0.606999993       10652.8994       1.58119142    
   1.04286098       1.56075203     -0.606999993       10652.8994       1.58119142    
   1.32730997       1.32730997     -0.606999993       4530.95215       1.59324026    
   1.83825099       1.83825099     -0.517000020       4530.95215       1.59324026    
   2.16155505       1.44430494     -0.517000020       4530.95215       1.59324026    
   1.56075203       1.04286098     -0.606999993       4530.95215       1.59324026    
   1.56075203       1.04286098     -0.606999993       8729.75977       1.58115709    
   1.13495600      0.758352995     -0.606999993       8729.75977       1.58115709    
  0.965201020      0.965201020     -0.606999993       8729.75977       1.58115709    
   1.32730997       1.32730997     -0.606999993       8729.75977       1.58115709    
   1.56075203       1.04286098     -0.606999993       3280.07275       1.59358156    
   2.16155505       1.44430494     -0.517000020       3280.07275       1.59358156    
   2.40179110      0.994853973     -0.517000020       3280.07275       1.59358156    
   1.73421395      0.718334973     -0.606999993       3280.07275       1.59358156    
   1.73421395      0.718334973     -0.606999993       6441.35791       1.58110690    
   1.26109600      0.522363007     -0.606999993       6441.35791       1.58110690    
   1.13495600      0.758352995     -0.606999993       6441.35791       1.58110690    
   1.56075203       1.04286098     -0.606999993       6441.35791       1.58110690    
   1.73421395      0.718334973     -0.606999993       1951.58972       1.59387052    
   2.40179110      0.994853973     -0.517000020       1951.58972       1.59387052    
   2.54972792      0.507171988     -0.517000020       1951.58972       1.59387052    
   1.84103203      0.366203994     -0.606999993       1951.58972       1.59387052    
   1.84103203      0.366203994     -0.606999993       3927.74609       1.58095527    
   1.33877206      0.266297996     -0.606999993       3927.74609       1.58095527    
   1.26109600      0.522363007     -0.606999993       3927.74609       1.58095527    
   1.73421395      0.718334973     -0.606999993       3927.74609       1.58095527    
   1.84103203      0.366203994     -0.606999993       643.925415       1.59290469    
   2.54972792      0.507171988     -0.517000020       643.925415       1.59290469    
   2.59967995       0.00000000     -0.517000020       643.925415       1.59290469    
   1.87709999       0.00000000     -0.606999993       643.925415       1.59290469    
   1.87709999       0.00000000     -0.606999993       1305.63672       1.58015084    
   1.36500001       0.00000000     -0.606999993       1305.63672       1.58015084    
   1.33877206      0.266297996     -0.606999993       1305.63672       1.58015084    
   1.84103203      0.366203994     -0.606999993       1305.63672       1.58015084    
   1.87709999       0.00000000     -0.606999993       651.734436      -1.54516017    
   2.59967995       0.00000000     -0.517000020       651.734436      -1.54516017    
   2.54972792     -0.507171988     -0.517000020       651.734436      -1.54516017    
   1.84103203     -0.366203994     -0.606999993       651.734436      -1.54516017    
   1.84103203     -0.366203994     -0.606999993       1353.85229      -1.55911100    
   1.33877206     -0.266297996     -0.606999993       1353.85229      -1.55911100    
   1.36500001       0.00000000     -0.606999993       1353.85229      -1.55911100    
   1.87709999       0.00000000     -0.606999993       1353.85229      -1.55911100    
   1.84103203     -0.366203994     -0.606999993       1997.18823      -1.54703951    
   2.54972792     -0.507171988     -0.517000020       1997.18823      -1.54703951    
   2.40179110     -0.994853973     -0.517000020       1997.18823      -1.54703951    
   1.73421395     -0.718334973     -0.606999993       1997.18823      -1.54703951    
   1.73421395     -0.718334973     -0.606999993       3998.83838      -1.55997431    
   1.26109600     -0.522363007     -0.606999993       3998.83838      -1.55997431    
   1.33877206     -0.266297996     -0.606999993       3998.83838      -1.55997431    
   1.84103203     -0.366203994     -0.606999993       3998.83838      -1.55997431    
   1.73421395     -0.718334973     -0.606999993       3361.61475      -1.54794097    
   2.40179110     -0.994853973     -0.517000020       3361.61475      -1.54794097    
   2.16155505      -1.44430494     -0.517000020       3361.61475      -1.54794097    
   1.56075203      -1.04286098     -0.606999993       3361.61475      -1.54794097    
   1.56075203      -1.04286098     -0.606999993       6537.11426      -1.56020498    
   1.13495600     -0.758352995     -0.606999993       6537.11426      -1.56020498    
   1.26109600     -0.522363007     -0.606999993       6537.11426      -1.56020498    