 VARIABLES="X" "Y" "Z" "abs(p) (Pa)" "angle(p) (rad)"
ZONE N=   2709,E =    2358, F=FEPOINT, ET=QUADRILATERAL
   0.00000000      -5.48999977     -0.157000005      0.798573315     -0.265307486    
   0.00000000      -4.76741982     -0.246999994      0.798573315     -0.265307486    
  0.930077016      -4.67581606     -0.246999994      0.798573315     -0.265307486    
   1.07104599      -5.38451099     -0.157000005      0.798573315     -0.265307486    
  -1.07104599      -5.38451099     -0.157000005       1.19354165       2.08349037    
 -0.930077016      -4.67581606     -0.246999994       1.19354165       2.08349037    
   0.00000000      -4.76741982     -0.246999994       1.19354165       2.08349037    
   0.00000000      -5.48999977     -0.157000005       1.19354165       2.08349037    
  -2.10093188      -5.07209921     -0.157000005       2.01760674       1.28892291    
  -1.82441294      -4.40452194     -0.246999994       2.01760674       1.28892291    
 -0.930077016      -4.67581606     -0.246999994       2.01760674       1.28892291    
  -1.07104599      -5.38451099     -0.157000005       2.01760674       1.28892291    
  -3.05008101      -4.56476784     -0.157000005       4.41089630       2.32566333    
  -2.64863706      -3.96396494     -0.246999994       4.41089630       2.32566333    
  -1.82441294      -4.40452194     -0.246999994       4.41089630       2.32566333    
  -2.10093188      -5.07209921     -0.157000005       4.41089630       2.32566333    
  -3.88201594      -3.88201594     -0.157000005       5.92686892       2.34790826    
  -3.37107491      -3.37107491     -0.246999994       5.92686892       2.34790826    
  -2.64863706      -3.96396494     -0.246999994       5.92686892       2.34790826    
  -3.05008101      -4.56476784     -0.157000005       5.92686892       2.34790826    
  -4.56476784      -3.05008101     -0.157000005       2.66192293       2.08291149    
  -3.96396494      -2.64863706     -0.246999994       2.66192293       2.08291149    
  -3.37107491      -3.37107491     -0.246999994       2.66192293       2.08291149    
  -3.88201594      -3.88201594     -0.157000005       2.66192293       2.08291149    
  -5.07209921      -2.10093188     -0.157000005       8.01043320       2.37403059    
  -4.40452194      -1.82441294     -0.246999994       8.01043320       2.37403059    
  -3.96396494      -2.64863706     -0.246999994       8.01043320       2.37403059    
  -4.56476784      -3.05008101     -0.157000005       8.01043320       2.37403059    
  -5.38451099      -1.07104599     -0.157000005       8.75653648       2.39075327    
  -4.67581606     -0.930077016     -0.246999994       8.75653648       2.39075327    
  -4.40452194      -1.82441294     -0.246999994       8.75653648       2.39075327    
  -5.07209921      -2.10093188     -0.157000005       8.75653648       2.39075327    
  -5.48999977       0.00000000     -0.157000005       4.27802515       1.28997707    
  -4.76741982       0.00000000     -0.246999994       4.27802515       1.28997707    
  -4.67581606     -0.930077016     -0.246999994       4.27802515       1.28997707    
  -5.38451099      -1.07104599     -0.157000005       4.27802515       1.28997707    
  -5.38451099       1.07104599     -0.157000005       4.18058205       1.18527079    
  -4.67581606      0.930077016     -0.246999994       4.18058205       1.18527079    
  -4.76741982       0.00000000     -0.246999994       4.18058205       1.18527079    
  -5.48999977       0.00000000     -0.157000005       4.18058205       1.18527079    
  -5.07209921       2.10093188     -0.157000005       3.92980742       1.18199050    
  -4.40452194       1.82441294     -0.246999994       3.92980742       1.18199050    
  -4.67581606      0.930077016     -0.246999994       3.92980742       1.18199050    
  -5.38451099       1.07104599     -0.157000005       3.92980742       1.18199050    
  -4.56476784       3.05008101     -0.157000005       3.38666368       1.12071943    
  -3.96396494       2.64863706     -0.246999994       3.38666368       1.12071943    
  -4.40452194       1.82441294     -0.246999994       3.38666368       1.12071943    
  -5.07209921       2.10093188     -0.157000005       3.38666368       1.12071943    
  -3.88201594       3.88201594     -0.157000005       6.28619528       2.40264201    
  -3.37107491       3.37107491     -0.246999994       6.28619528       2.40264201    
  -3.96396494       2.64863706     -0.246999994       6.28619528       2.40264201    
  -4.56476784       3.05008101     -0.157000005       6.28619528       2.40264201    
  -3.05008101       4.56476784     -0.157000005       2.19127679       1.31601024    
  -2.64863706       3.96396494     -0.246999994       2.19127679       1.31601024    
  -3.37107491       3.37107491     -0.246999994       2.19127679       1.31601024    
  -3.88201594       3.88201594     -0.157000005       2.19127679       1.31601024    
  -2.10093188       5.07209921     -0.157000005       3.66218448       2.45591474    
  -1.82441294       4.40452194     -0.246999994       3.66218448       2.45591474    
  -2.64863706       3.96396494     -0.246999994       3.66218448       2.45591474    
  -3.05008101       4.56476784     -0.157000005       3.66218448       2.45591474    
  -1.07104599       5.38451099     -0.157000005      0.544008136       1.65816677    
 -0.930077016       4.67581606     -0.246999994      0.544008136       1.65816677    
  -1.82441294       4.40452194     -0.246999994      0.544008136       1.65816677    
  -2.10093188       5.07209921     -0.157000005      0.544008136       1.65816677    
   0.00000000       5.48999977     -0.157000005      0.521282673       2.89613223    
   0.00000000       4.76741982     -0.246999994      0.521282673       2.89613223    
 -0.930077016       4.67581606     -0.246999994      0.521282673       2.89613223    
  -1.07104599       5.38451099     -0.157000005      0.521282673       2.89613223    
   1.07104599       5.38451099     -0.157000005       1.41616261      -1.84668911    
  0.930077016       4.67581606     -0.246999994       1.41616261      -1.84668911    
   0.00000000       4.76741982     -0.246999994       1.41616261      -1.84668911    
   0.00000000       5.48999977     -0.157000005       1.41616261      -1.84668911    
   2.10093188       5.07209921     -0.157000005       2.77638388     -0.867817521    
   1.82441294       4.40452194     -0.246999994       2.77638388     -0.867817521    
  0.930077016       4.67581606     -0.246999994       2.77638388     -0.867817521    
   1.07104599       5.38451099     -0.157000005       2.77638388     -0.867817521    
   3.05008101       4.56476784     -0.157000005       4.55098438     -0.806650162    
   2.64863706       3.96396494     -0.246999994       4.55098438     -0.806650162    
   1.82441294       4.40452194     -0.246999994       4.55098438     -0.806650162    
   2.10093188       5.07209921     -0.157000005       4.55098438     -0.806650162    
   3.88201594       3.88201594     -0.157000005       3.51093316      -1.88691783    
   3.37107491       3.37107491     -0.246999994       3.51093316      -1.88691783    
   2.64863706       3.96396494     -0.246999994       3.51093316      -1.88691783    
   3.05008101       4.56476784     -0.157000005       3.51093316      -1.88691783    
   4.56476784       3.05008101     -0.157000005       5.38176107     -0.786158979    
   3.96396494       2.64863706     -0.246999994       5.38176107     -0.786158979    
   3.37107491       3.37107491     -0.246999994       5.38176107     -0.786158979    
   3.88201594       3.88201594     -0.157000005       5.38176107     -0.786158979    
   5.07209921       2.10093188     -0.157000005       4.32856750      -1.76442170    
   4.40452194       1.82441294     -0.246999994       4.32856750      -1.76442170    
   3.96396494       2.64863706     -0.246999994       4.32856750      -1.76442170    
   4.56476784       3.05008101     -0.157000005       4.32856750      -1.76442170    
   5.38451099       1.07104599     -0.157000005       8.57609463     -0.770229161    
   4.67581606      0.930077016     -0.246999994       8.57609463     -0.770229161    
   4.40452194       1.82441294     -0.246999994       8.57609463     -0.770229161    
   5.07209921       2.10093188     -0.157000005       8.57609463     -0.770229161    
   5.48999977       0.00000000     -0.157000005       9.10096455     -0.731318176    
   4.76741982       0.00000000     -0.246999994       9.10096455     -0.731318176    
   4.67581606      0.930077016     -0.246999994       9.10096455     -0.731318176    
   5.38451099       1.07104599     -0.157000005       9.10096455     -0.731318176    
   5.38451099      -1.07104599     -0.157000005       9.22268295     -0.735807002    
   4.67581606     -0.930077016     -0.246999994       9.22268295     -0.735807002    
   4.76741982       0.00000000     -0.246999994       9.22268295     -0.735807002    
   5.48999977       0.00000000     -0.157000005       9.22268295     -0.735807002    
   5.07209921      -2.10093188     -0.157000005       8.89591408     -0.711540997    
   4.40452194      -1.82441294     -0.246999994       8.89591408     -0.711540997    
   4.67581606     -0.930077016     -0.246999994       8.89591408     -0.711540997    
   5.38451099      -1.07104599     -0.157000005       8.89591408     -0.711540997    
   4.56476784      -3.05008101     -0.157000005       7.95290136     -0.710864663    
   3.96396494      -2.64863706     -0.246999994       7.95290136     -0.710864663    
   4.40452194      -1.82441294     -0.246999994       7.95290136     -0.710864663    
   5.07209921      -2.10093188     -0.157000005       7.95290136     -0.710864663    
   3.88201594      -3.88201594     -0.157000005       6.95539474     -0.704828143    
   3.37107491      -3.37107491     -0.246999994       6.95539474     -0.704828143    
   3.96396494      -2.64863706     -0.246999994       6.95539474     -0.704828143    
   4.56476784      -3.05008101     -0.157000005       6.95539474     -0.704828143    
   3.05008101      -4.56476784     -0.157000005       2.13770056      -1.66767621    
   2.64863706      -3.96396494     -0.246999994       2.13770056      -1.66767621    
   3.37107491      -3.37107491     -0.246999994       2.13770056      -1.66767621    
   3.88201594      -3.88201594     -0.157000005       2.13770056      -1.66767621    
   2.10093188      -5.07209921     -0.157000005       3.73869610     -0.694900513    
   1.82441294      -4.40452194     -0.246999994       3.73869610     -0.694900513    
   2.64863706      -3.96396494     -0.246999994       3.73869610     -0.694900513    
   3.05008101      -4.56476784     -0.157000005       3.73869610     -0.694900513    
   1.07104599      -5.38451099     -0.157000005       2.46779370     -0.584324896    
  0.930077016      -4.67581606     -0.246999994       2.46779370     -0.584324896    
   1.82441294      -4.40452194     -0.246999994       2.46779370     -0.584324896    
   2.10093188      -5.07209921     -0.157000005       2.46779370     -0.584324896    
   0.00000000      -1.87709999     -0.606999993       36.6961403       1.56869364    
   0.00000000      -1.36500001     -0.606999993       36.6961403       1.56869364    
  0.266297996      -1.33877206     -0.606999993       36.6961403       1.56869364    
  0.366203994      -1.84103203     -0.606999993       36.6961403       1.56869364    
   0.00000000      -1.87709999     -0.606999993       10.6645346      -1.56908953    
   0.00000000      -2.59967995     -0.517000020       10.6645346      -1.56908953    
 -0.507171988      -2.54972792     -0.517000020       10.6645346      -1.56908953    
 -0.366203994      -1.84103203     -0.606999993       10.6645346      -1.56908953    
 -0.366203994      -1.84103203     -0.606999993       36.8197365      -1.57142067    
 -0.266297996      -1.33877206     -0.606999993       36.8197365      -1.57142067    
   0.00000000      -1.36500001     -0.606999993       36.8197365      -1.57142067    
   0.00000000      -1.87709999     -0.606999993       36.8197365      -1.57142067    
 -0.366203994      -1.84103203     -0.606999993       33.1437454      -1.56920385    
 -0.507171988      -2.54972792     -0.517000020       33.1437454      -1.56920385    
 -0.994853973      -2.40179110     -0.517000020       33.1437454      -1.56920385    
 -0.718334973      -1.73421395     -0.606999993       33.1437454      -1.56920385    
 -0.718334973      -1.73421395     -0.606999993       108.715881      -1.57200933    
 -0.522363007      -1.26109600     -0.606999993       108.715881      -1.57200933    
 -0.266297996      -1.33877206     -0.606999993       108.715881      -1.57200933    
 -0.366203994      -1.84103203     -0.606999993       108.715881      -1.57200933    
 -0.718334973      -1.73421395     -0.606999993       54.3001328      -1.56905603    
 -0.994853973      -2.40179110     -0.517000020       54.3001328      -1.56905603    
  -1.44430494      -2.16155505     -0.517000020       54.3001328      -1.56905603    
  -1.04286098      -1.56075203     -0.606999993       54.3001328      -1.56905603    
  -1.04286098      -1.56075203     -0.606999993       176.343430      -1.57198739    
 -0.758352995      -1.13495600     -0.606999993       176.343430      -1.57198739    
 -0.522363007      -1.26109600     -0.606999993       176.343430      -1.57198739    
 -0.718334973      -1.73421395     -0.606999993       176.343430      -1.57198739    
  -1.04286098      -1.56075203     -0.606999993       73.4545364      -1.56895769    
  -1.44430494      -2.16155505     -0.517000020       73.4545364      -1.56895769    
  -1.83825099      -1.83825099     -0.517000020       73.4545364      -1.56895769    
  -1.32730997      -1.32730997     -0.606999993       73.4545364      -1.56895769    
  -1.32730997      -1.32730997     -0.606999993       237.241760      -1.57200396    
 -0.965201020     -0.965201020     -0.606999993       237.241760      -1.57200396    
 -0.758352995      -1.13495600     -0.606999993       237.241760      -1.57200396    
  -1.04286098      -1.56075203     -0.606999993       237.241760      -1.57200396    
  -1.32730997      -1.32730997     -0.606999993       89.9257507      -1.56891775    
  -1.83825099      -1.83825099     -0.517000020       89.9257507      -1.56891775    
  -2.16155505      -1.44430494     -0.517000020       89.9257507      -1.56891775    
  -1.56075203      -1.04286098     -0.606999993       89.9257507      -1.56891775    
  -1.56075203      -1.04286098     -0.606999993       289.144287      -1.57200766    
  -1.13495600     -0.758352995     -0.606999993       289.144287      -1.57200766    
 -0.965201020     -0.965201020     -0.606999993       289.144287      -1.57200766    
  -1.32730997      -1.32730997     -0.606999993       289.144287      -1.57200766    
  -1.56075203      -1.04286098     -0.606999993       102.969254      -1.56892729    
  -2.16155505      -1.44430494     -0.517000020       102.969254      -1.56892729    
  -2.40179110     -0.994853973     -0.517000020       102.969254      -1.56892729    
  -1.73421395     -0.718334973     -0.606999993       102.969254      -1.56892729    
  -1.73421395     -0.718334973     -0.606999993       330.023102      -1.57201016    
  -1.26109600     -0.522363007     -0.606999993       330.023102      -1.57201016    
  -1.13495600     -0.758352995     -0.606999993       330.023102      -1.57201016    
  -1.56075203      -1.04286098     -0.606999993       330.023102      -1.57201016    
  -1.73421395     -0.718334973     -0.606999993       111.940826      -1.56896245    
  -2.40179110     -0.994853973     -0.517000020       111.940826      -1.56896245    
  -2.54972792     -0.507171988     -0.517000020       111.940826      -1.56896245    
  -1.84103203     -0.366203994     -0.606999993       111.940826      -1.56896245    
  -1.84103203     -0.366203994     -0.606999993       358.306305      -1.57202148    
  -1.33877206     -0.266297996     -0.606999993       358.306305      -1.57202148    
  -1.26109600     -0.522363007     -0.606999993       358.306305      -1.57202148    
  -1.73421395     -0.718334973     -0.606999993       358.306305      -1.57202148    
  -1.84103203     -0.366203994     -0.606999993       116.558548      -1.56897604    
  -2.54972792     -0.507171988     -0.517000020       116.558548      -1.56897604    
  -2.59967995       0.00000000     -0.517000020       116.558548      -1.56897604    
  -1.87709999       0.00000000     -0.606999993       116.558548      -1.56897604    
  -1.87709999       0.00000000     -0.606999993       372.871948      -1.57202458    
  -1.36500001       0.00000000     -0.606999993       372.871948      -1.57202458    
  -1.33877206     -0.266297996     -0.606999993       372.871948      -1.57202458    
  -1.84103203     -0.366203994     -0.606999993       372.871948      -1.57202458    
  -1.87709999       0.00000000     -0.606999993       116.806389      -1.56896460    
  -2.59967995       0.00000000     -0.517000020       116.806389      -1.56896460    
  -2.54972792      0.507171988     -0.517000020       116.806389      -1.56896460    
  -1.84103203      0.366203994     -0.606999993       116.806389      -1.56896460    
  -1.84103203      0.366203994     -0.606999993       373.105438      -1.57202435    
  -1.33877206      0.266297996     -0.606999993       373.105438      -1.57202435    
  -1.36500001       0.00000000     -0.606999993       373.105438      -1.57202435    
  -1.87709999       0.00000000     -0.606999993       373.105438      -1.57202435    
  -1.84103203      0.366203994     -0.606999993       112.655716      -1.56894100    
  -2.54972792      0.507171988     -0.517000020       112.655716      -1.56894100    
  -2.40179110      0.994853973     -0.517000020       112.655716      -1.56894100    
  -1.73421395      0.718334973     -0.606999993       112.655716      -1.56894100    
  -1.73421395      0.718334973     -0.606999993       358.902191      -1.57200921    
  -1.26109600      0.522363007     -0.606999993       358.902191      -1.57200921    
  -1.33877206      0.266297996     -0.606999993       358.902191      -1.57200921    
  -1.84103203      0.366203994     -0.606999993       358.902191      -1.57200921    
  -1.73421395      0.718334973     -0.606999993       104.063202      -1.56891549    
  -2.40179110      0.994853973     -0.517000020       104.063202      -1.56891549    
  -2.16155505       1.44430494     -0.517000020       104.063202      -1.56891549    
  -1.56075203       1.04286098     -0.606999993       104.063202      -1.56891549    
  -1.56075203       1.04286098     -0.606999993       330.682556      -1.57199466    
  -1.13495600      0.758352995     -0.606999993       330.682556      -1.57199466    
  -1.26109600      0.522363007     -0.606999993       330.682556      -1.57199466    
  -1.73421395      0.718334973     -0.606999993       330.682556      -1.57199466    
  -1.56075203       1.04286098     -0.606999993       91.2215881      -1.56889248    
  -2.16155505       1.44430494     -0.517000020       91.2215881      -1.56889248    
  -1.83825099       1.83825099     -0.517000020       91.2215881      -1.56889248    
  -1.32730997       1.32730997     -0.606999993       91.2215881      -1.56889248    
  -1.32730997       1.32730997     -0.606999993       289.506226      -1.57197607    
 -0.965201020      0.965201020     -0.606999993       289.506226      -1.57197607    
  -1.13495600      0.758352995     -0.606999993       289.506226      -1.57197607    
  -1.56075203       1.04286098     -0.606999993       289.506226      -1.57197607    
  -1.32730997       1.32730997     -0.606999993       74.7654724      -1.56889772    
  -1.83825099       1.83825099     -0.517000020       74.7654724      -1.56889772    
  -1.44430494       2.16155505     -0.517000020       74.7654724      -1.56889772    
  -1.04286098       1.56075203     -0.606999993       74.7654724      -1.56889772    
  -1.04286098       1.56075203     -0.606999993       237.114746      -1.57196045    
 -0.758352995       1.13495600     -0.606999993       237.114746      -1.57196045    
 -0.965201020      0.965201020     -0.606999993       237.114746      -1.57196045    
  -1.32730997       1.32730997     -0.606999993       237.114746      -1.57196045    
  -1.04286098       1.56075203     -0.606999993       55.5503654      -1.56897712    
  -1.44430494       2.16155505     -0.517000020       55.5503654      -1.56897712    
 -0.994853973       2.40179110     -0.517000020       55.5503654      -1.56897712    
 -0.718334973       1.73421395     -0.606999993       55.5503654      -1.56897712    
 -0.718334973       1.73421395     -0.606999993       175.755203      -1.57193029    
 -0.522363007       1.26109600     -0.606999993       175.755203      -1.57193029    
 -0.758352995       1.13495600     -0.606999993       175.755203      -1.57193029    
  -1.04286098       1.56075203     -0.606999993       175.755203      -1.57193029    
 -0.718334973       1.73421395     -0.606999993       34.4127235      -1.56901526    
 -0.994853973       2.40179110     -0.517000020       34.4127235      -1.56901526    
 -0.507171988       2.54972792     -0.517000020       34.4127235      -1.56901526    
 -0.366203994       1.84103203     -0.606999993       34.4127235      -1.56901526    
 -0.366203994       1.84103203     -0.606999993       107.955681      -1.57181287    
 -0.266297996       1.33877206     -0.606999993       107.955681      -1.57181287    
 -0.522363007       1.26109600     -0.606999993       107.955681      -1.57181287    
 -0.718334973       1.73421395     -0.606999993       107.955681      -1.57181287    
 -0.366203994       1.84103203     -0.606999993       12.1155357      -1.56841147    
 -0.507171988       2.54972792     -0.517000020       12.1155357      -1.56841147    
   0.00000000       2.59967995     -0.517000020       12.1155357      -1.56841147    
   0.00000000       1.87709999     -0.606999993       12.1155357      -1.56841147    
   0.00000000       1.87709999     -0.606999993       36.3576851      -1.57117152    
   0.00000000       1.36500001     -0.606999993       36.3576851      -1.57117152    
 -0.266297996       1.33877206     -0.606999993       36.3576851      -1.57117152    
 -0.366203994       1.84103203     -0.606999993       36.3576851      -1.57117152    
   0.00000000       1.87709999     -0.606999993       10.5057392       1.57099771    
   0.00000000       2.59967995     -0.517000020       10.5057392       1.57099771    
  0.507171988       2.54972792     -0.517000020       10.5057392       1.57099771    
  0.366203994       1.84103203     -0.606999993       10.5057392       1.57099771    
  0.366203994       1.84103203     -0.606999993       36.2960358       1.56810582    
  0.266297996       1.33877206     -0.606999993       36.2960358       1.56810582    
   0.00000000       1.36500001     -0.606999993       36.2960358       1.56810582    
   0.00000000       1.87709999     -0.606999993       36.2960358       1.56810582    
  0.366203994       1.84103203     -0.606999993       32.6255302       1.57190430    
  0.507171988       2.54972792     -0.517000020       32.6255302       1.57190430    
  0.994853973       2.40179110     -0.517000020       32.6255302       1.57190430    
  0.718334973       1.73421395     -0.606999993       32.6255302       1.57190430    
  0.718334973       1.73421395     -0.606999993       107.364075       1.56884670    
  0.522363007       1.26109600     -0.606999993       107.364075       1.56884670    
  0.266297996       1.33877206     -0.606999993       107.364075       1.56884670    
  0.366203994       1.84103203     -0.606999993       107.364075       1.56884670    
  0.718334973       1.73421395     -0.606999993       53.4942245       1.57231247    
  0.994853973       2.40179110     -0.517000020       53.4942245       1.57231247    
   1.44430494       2.16155505     -0.517000020       53.4942245       1.57231247    
   1.04286098       1.56075203     -0.606999993       53.4942245       1.57231247    
   1.04286098       1.56075203     -0.606999993       174.293716       1.56915939    
  0.758352995       1.13495600     -0.606999993       174.293716       1.56915939    
  0.522363007       1.26109600     -0.606999993       174.293716       1.56915939    
  0.718334973       1.73421395     -0.606999993       174.293716       1.56915939    
   1.04286098       1.56075203     -0.606999993       72.4628296       1.57256186    
   1.44430494       2.16155505     -0.517000020       72.4628296       1.57256186    
   1.83825099       1.83825099     -0.517000020       72.4628296       1.57256186    
   1.32730997       1.32730997     -0.606999993       72.4628296       1.57256186    
   1.32730997       1.32730997     -0.606999993       234.720657       1.56927657    
  0.965201020      0.965201020     -0.606999993       234.720657       1.56927657    
  0.758352995       1.13495600     -0.606999993       234.720657       1.56927657    
   1.04286098       1.56075203     -0.606999993       234.720657       1.56927657    
   1.32730997       1.32730997     -0.606999993       88.8293457       1.57267189    
   1.83825099       1.83825099     -0.517000020       88.8293457       1.57267189    
   2.16155505       1.44430494     -0.517000020       88.8293457       1.57267189    
   1.56075203       1.04286098     -0.606999993       88.8293457       1.57267189    
   1.56075203       1.04286098     -0.606999993       286.422913       1.56934619    
   1.13495600      0.758352995     -0.606999993       286.422913       1.56934619    
  0.965201020      0.965201020     -0.606999993       286.422913       1.56934619    
   1.32730997       1.32730997     -0.606999993       286.422913       1.56934619    
   1.56075203       1.04286098     -0.606999993       101.832260       1.57266355    
   2.16155505       1.44430494     -0.517000020       101.832260       1.57266355    
   2.40179110      0.994853973     -0.517000020       101.832260       1.57266355    
   1.73421395      0.718334973     -0.606999993       101.832260       1.57266355    
   1.73421395      0.718334973     -0.606999993       327.370605       1.56939340    
   1.26109600      0.522363007     -0.606999993       327.370605       1.56939340    
   1.13495600      0.758352995     -0.606999993       327.370605       1.56939340    
   1.56075203       1.04286098     -0.606999993       327.370605       1.56939340    
   1.73421395      0.718334973     -0.606999993       110.882172       1.57261944    
   2.40179110      0.994853973     -0.517000020       110.882172       1.57261944    
   2.54972792      0.507171988     -0.517000020       110.882172       1.57261944    
   1.84103203      0.366203994     -0.606999993       110.882172       1.57261944    
   1.84103203      0.366203994     -0.606999993       355.909607       1.56941211    
   1.33877206      0.266297996     -0.606999993       355.909607       1.56941211    
   1.26109600      0.522363007     -0.606999993       355.909607       1.56941211    
   1.73421395      0.718334973     -0.606999993       355.909607       1.56941211    
   1.84103203      0.366203994     -0.606999993       115.758293       1.57260764    
   2.54972792      0.507171988     -0.517000020       115.758293       1.57260764    
   2.59967995       0.00000000     -0.517000020       115.758293       1.57260764    
   1.87709999       0.00000000     -0.606999993       115.758293       1.57260764    
   1.87709999       0.00000000     -0.606999993       370.977264       1.56944168    
   1.36500001       0.00000000     -0.606999993       370.977264       1.56944168    
   1.33877206      0.266297996     -0.606999993       370.977264       1.56944168    
   1.84103203      0.366203994     -0.606999993       370.977264       1.56944168    
   1.87709999       0.00000000     -0.606999993       116.391037       1.57263792    
   2.59967995       0.00000000     -0.517000020       116.391037       1.57263792    
   2.54972792     -0.507171988     -0.517000020       116.391037       1.57263792    
   1.84103203     -0.366203994     -0.606999993       116.391037       1.57263792    
   1.84103203     -0.366203994     -0.606999993       371.959229       1.56946874    
   1.33877206     -0.266297996     -0.606999993       371.959229       1.56946874    
   1.36500001       0.00000000     -0.606999993       371.959229       1.56946874    
   1.87709999       0.00000000     -0.606999993       371.959229       1.56946874    
   1.84103203     -0.366203994     -0.606999993       112.637360       1.57272017    
   2.54972792     -0.507171988     -0.517000020       112.637360       1.57272017    
   2.40179110     -0.994853973     -0.517000020       112.637360       1.57272017    
   1.73421395     -0.718334973     -0.606999993       112.637360       1.57272017    
   1.73421395     -0.718334973     -0.606999993       358.627136       1.56949949    
   1.26109600     -0.522363007     -0.606999993       358.627136       1.56949949    
   1.33877206     -0.266297996     -0.606999993       358.627136       1.56949949    
   1.84103203     -0.366203994     -0.606999993       358.627136       1.56949949    
   1.73421395     -0.718334973     -0.606999993       104.364983       1.57281005    
   2.40179110     -0.994853973     -0.517000020       104.364983       1.57281005    
   2.16155505      -1.44430494     -0.517000020       104.364983       1.57281005    
   1.56075203      -1.04286098     -0.606999993       104.364983       1.57281005    
   1.56075203      -1.04286098     -0.606999993       331.228882       1.56952310    
   1.13495600     -0.758352995     -0.606999993       331.228882       1.56952310    
   1.26109600     -0.522363007     -0.606999993       331.228882       1.56952310    