VARIABLES="X" "Y" "Z" "NX" "NY" "NZ" "A"
 ZONE N=        2720 , E=        2069  , F=FEPOINT,ET=QUADRILATERAL
  -0.7671160E+00  -0.1127764E+01   0.0000000E+00   0.0000000E+00   0.0000000E+00   0.0000000E+00   0.0000000E+00
  -0.7693550E+00  -0.1120021E+01  -0.3035240E+00   0.0000000E+00   0.0000000E+00   0.0000000E+00   0.0000000E+00
  -0.8961370E+00  -0.1020282E+01  -0.3034630E+00   0.0000000E+00   0.0000000E+00   0.0000000E+00   0.0000000E+00
  -0.8949080E+00  -0.1022889E+01   0.0000000E+00   0.0000000E+00   0.0000000E+00   0.0000000E+00   0.0000000E+00
  -0.6308890E+00  -0.1203087E+01   0.0000000E+00   0.0000000E+00   0.0000000E+00   0.0000000E+00   0.0000000E+00
  -0.6355280E+00  -0.1199582E+01  -0.3035410E+00   0.0000000E+00   0.0000000E+00   0.0000000E+00   0.0000000E+00
  -0.4953630E+00  -0.1266065E+01  -0.3035190E+00   0.0000000E+00   0.0000000E+00   0.0000000E+00   0.0000000E+00
  -0.4992980E+00  -0.1268092E+01  -0.6070000E+00   0.0000000E+00   0.0000000E+00   0.0000000E+00   0.0000000E+00
  -0.6401480E+00  -0.1198138E+01  -0.6069980E+00   0.0000000E+00   0.0000000E+00   0.0000000E+00   0.0000000E+00
  -0.7771060E+00  -0.1119566E+01  -0.6070000E+00   0.0000000E+00   0.0000000E+00   0.0000000E+00   0.0000000E+00
  -0.4944860E+00  -0.1269552E+01   0.0000000E+00   0.0000000E+00   0.0000000E+00   0.0000000E+00   0.0000000E+00
  -0.3463120E+00  -0.1314500E+01   0.0000000E+00   0.0000000E+00   0.0000000E+00   0.0000000E+00   0.0000000E+00
  -0.3467530E+00  -0.1313073E+01  -0.3035100E+00   0.0000000E+00   0.0000000E+00   0.0000000E+00   0.0000000E+00
  -0.1936080E+00  -0.1344260E+01  -0.3034950E+00   0.0000000E+00   0.0000000E+00   0.0000000E+00   0.0000000E+00
  -0.1950280E+00  -0.1345792E+01  -0.6070000E+00   0.0000000E+00   0.0000000E+00   0.0000000E+00   0.0000000E+00
  -0.3487510E+00  -0.1313760E+01  -0.6070000E+00   0.0000000E+00   0.0000000E+00   0.0000000E+00   0.0000000E+00
  -0.1933820E+00  -0.1345954E+01   0.0000000E+00   0.0000000E+00   0.0000000E+00   0.0000000E+00   0.0000000E+00
  -0.3751800E-01  -0.1361305E+01   0.0000000E+00   0.0000000E+00   0.0000000E+00   0.0000000E+00   0.0000000E+00
  -0.3739500E-01  -0.1358279E+01  -0.3035120E+00   0.0000000E+00   0.0000000E+00   0.0000000E+00   0.0000000E+00
   0.1195470E+00  -0.1352393E+01  -0.3034980E+00   0.0000000E+00   0.0000000E+00   0.0000000E+00   0.0000000E+00
   0.1191350E+00  -0.1353266E+01  -0.6070000E+00   0.0000000E+00   0.0000000E+00   0.0000000E+00   0.0000000E+00
  -0.3828400E-01  -0.1361229E+01  -0.6069990E+00   0.0000000E+00   0.0000000E+00   0.0000000E+00   0.0000000E+00
   0.1197890E+00  -0.1353202E+01   0.0000000E+00   0.0000000E+00   0.0000000E+00   0.0000000E+00   0.0000000E+00
   0.2765760E+00  -0.1335654E+01   0.0000000E+00   0.0000000E+00   0.0000000E+00   0.0000000E+00   0.0000000E+00
   0.2754350E+00  -0.1331916E+01  -0.3034960E+00   0.0000000E+00   0.0000000E+00   0.0000000E+00   0.0000000E+00
   0.4270770E+00  -0.1288980E+01  -0.3035070E+00   0.0000000E+00   0.0000000E+00   0.0000000E+00   0.0000000E+00
   0.4272420E+00  -0.1289950E+01  -0.6070000E+00   0.0000000E+00   0.0000000E+00   0.0000000E+00   0.0000000E+00
   0.2758310E+00  -0.1335880E+01  -0.6070000E+00   0.0000000E+00   0.0000000E+00   0.0000000E+00   0.0000000E+00
   0.4275100E+00  -0.1289869E+01   0.0000000E+00   0.0000000E+00   0.0000000E+00   0.0000000E+00   0.0000000E+00
   0.5746370E+00  -0.1233155E+01   0.0000000E+00   0.0000000E+00   0.0000000E+00   0.0000000E+00   0.0000000E+00
   0.5737070E+00  -0.1231368E+01  -0.3034860E+00   0.0000000E+00   0.0000000E+00   0.0000000E+00   0.0000000E+00
   0.7128550E+00  -0.1156880E+01  -0.3034970E+00   0.0000000E+00   0.0000000E+00   0.0000000E+00   0.0000000E+00
   0.7138090E+00  -0.1158766E+01  -0.6070000E+00   0.0000000E+00   0.0000000E+00   0.0000000E+00   0.0000000E+00
   0.5742830E+00  -0.1233343E+01  -0.6070000E+00   0.0000000E+00   0.0000000E+00   0.0000000E+00   0.0000000E+00
   0.7137410E+00  -0.1158802E+01   0.0000000E+00   0.0000000E+00   0.0000000E+00   0.0000000E+00   0.0000000E+00
   0.8419370E+00  -0.1066361E+01   0.0000000E+00   0.0000000E+00   0.0000000E+00   0.0000000E+00   0.0000000E+00
   0.8414980E+00  -0.1065734E+01  -0.3034860E+00   0.0000000E+00   0.0000000E+00   0.0000000E+00   0.0000000E+00
   0.9606390E+00  -0.9621050E+00  -0.3034710E+00   0.0000000E+00   0.0000000E+00   0.0000000E+00   0.0000000E+00
   0.9643560E+00  -0.9658940E+00  -0.6070000E+00   0.0000000E+00   0.0000000E+00   0.0000000E+00   0.0000000E+00
   0.8417970E+00  -0.1066476E+01  -0.6070000E+00   0.0000000E+00   0.0000000E+00   0.0000000E+00   0.0000000E+00
   0.9639330E+00  -0.9662420E+00   0.0000000E+00   0.0000000E+00   0.0000000E+00   0.0000000E+00   0.0000000E+00
   0.1065066E+01  -0.8435150E+00   0.0000000E+00   0.0000000E+00   0.0000000E+00   0.0000000E+00   0.0000000E+00
   0.1064287E+01  -0.8426820E+00  -0.3034820E+00   0.0000000E+00   0.0000000E+00   0.0000000E+00   0.0000000E+00
   0.1155916E+01  -0.7142110E+00  -0.3034850E+00   0.0000000E+00   0.0000000E+00   0.0000000E+00   0.0000000E+00
   0.1157888E+01  -0.7154490E+00  -0.6070000E+00   0.0000000E+00   0.0000000E+00   0.0000000E+00   0.0000000E+00
   0.1065378E+01  -0.8431350E+00  -0.6070000E+00   0.0000000E+00   0.0000000E+00   0.0000000E+00   0.0000000E+00
   0.1157925E+01  -0.7153820E+00   0.0000000E+00   0.0000000E+00   0.0000000E+00   0.0000000E+00   0.0000000E+00
   0.1232376E+01  -0.5760940E+00   0.0000000E+00   0.0000000E+00   0.0000000E+00   0.0000000E+00   0.0000000E+00
   0.1231209E+01  -0.5752520E+00  -0.3035140E+00   0.0000000E+00   0.0000000E+00   0.0000000E+00   0.0000000E+00
   0.1288441E+01  -0.4283450E+00  -0.3035130E+00   0.0000000E+00   0.0000000E+00   0.0000000E+00   0.0000000E+00
   0.1289525E+01  -0.4286430E+00  -0.6070000E+00   0.0000000E+00   0.0000000E+00   0.0000000E+00   0.0000000E+00
   0.1232527E+01  -0.5758100E+00  -0.6070000E+00   0.0000000E+00   0.0000000E+00   0.0000000E+00   0.0000000E+00
   0.1289477E+01  -0.4288010E+00   0.0000000E+00   0.0000000E+00   0.0000000E+00   0.0000000E+00   0.0000000E+00
   0.1335322E+01  -0.2776720E+00   0.0000000E+00   0.0000000E+00   0.0000000E+00   0.0000000E+00   0.0000000E+00
   0.1330765E+01  -0.2762040E+00  -0.3034920E+00   0.0000000E+00   0.0000000E+00   0.0000000E+00   0.0000000E+00
   0.1352292E+01  -0.1197100E+00  -0.3035140E+00   0.0000000E+00   0.0000000E+00   0.0000000E+00   0.0000000E+00
   0.1353220E+01  -0.1196090E+00  -0.6070000E+00   0.0000000E+00   0.0000000E+00   0.0000000E+00   0.0000000E+00
   0.1335491E+01  -0.2771130E+00  -0.6070000E+00   0.0000000E+00   0.0000000E+00   0.0000000E+00   0.0000000E+00
   0.1353191E+01  -0.1199000E+00   0.0000000E+00   0.0000000E+00   0.0000000E+00   0.0000000E+00   0.0000000E+00
   0.1361244E+01   0.3813900E-01   0.0000000E+00   0.0000000E+00   0.0000000E+00   0.0000000E+00   0.0000000E+00
   0.1358589E+01   0.3793500E-01  -0.3035010E+00   0.0000000E+00   0.0000000E+00   0.0000000E+00   0.0000000E+00
   0.1344641E+01   0.1953310E+00  -0.3034960E+00   0.0000000E+00   0.0000000E+00   0.0000000E+00   0.0000000E+00
   0.1345734E+01   0.1956160E+00  -0.6070000E+00   0.0000000E+00   0.0000000E+00   0.0000000E+00   0.0000000E+00
   0.1361268E+01   0.3789500E-01  -0.6070000E+00   0.0000000E+00   0.0000000E+00   0.0000000E+00   0.0000000E+00
   0.1345754E+01   0.1954060E+00   0.0000000E+00   0.0000000E+00   0.0000000E+00   0.0000000E+00   0.0000000E+00
   0.1313398E+01   0.3499450E+00   0.0000000E+00   0.0000000E+00   0.0000000E+00   0.0000000E+00   0.0000000E+00
   0.1312163E+01   0.3497260E+00  -0.3034870E+00   0.0000000E+00   0.0000000E+00   0.0000000E+00   0.0000000E+00
   0.1263420E+01   0.5000320E+00  -0.3034940E+00   0.0000000E+00   0.0000000E+00   0.0000000E+00   0.0000000E+00
   0.1267366E+01   0.5016920E+00  -0.6070000E+00   0.0000000E+00   0.0000000E+00   0.0000000E+00   0.0000000E+00
   0.1313332E+01   0.3501640E+00  -0.6070000E+00   0.0000000E+00   0.0000000E+00   0.0000000E+00   0.0000000E+00
   0.1267512E+01   0.5012100E+00   0.0000000E+00   0.0000000E+00   0.0000000E+00   0.0000000E+00   0.0000000E+00
   0.1196587E+01   0.6430510E+00   0.0000000E+00   0.0000000E+00   0.0000000E+00   0.0000000E+00   0.0000000E+00
   0.1195831E+01   0.6427840E+00  -0.3035050E+00   0.0000000E+00   0.0000000E+00   0.0000000E+00   0.0000000E+00
   0.1114956E+01   0.7784670E+00  -0.3034840E+00   0.0000000E+00   0.0000000E+00   0.0000000E+00   0.0000000E+00
   0.1117317E+01   0.7798470E+00  -0.6070000E+00   0.0000000E+00   0.0000000E+00   0.0000000E+00   0.0000000E+00
   0.1196533E+01   0.6431500E+00  -0.6070000E+00   0.0000000E+00   0.0000000E+00   0.0000000E+00   0.0000000E+00
   0.1117055E+01   0.7801660E+00   0.0000000E+00   0.0000000E+00   0.0000000E+00   0.0000000E+00   0.0000000E+00
   0.1016742E+01   0.9023980E+00   0.0000000E+00   0.0000000E+00   0.0000000E+00   0.0000000E+00   0.0000000E+00
   0.1015915E+01   0.9017380E+00  -0.3034780E+00   0.0000000E+00   0.0000000E+00   0.0000000E+00   0.0000000E+00
   0.9042040E+00   0.1013229E+01  -0.3034570E+00   0.0000000E+00   0.0000000E+00   0.0000000E+00   0.0000000E+00
   0.9051430E+00   0.1014489E+01  -0.6070000E+00   0.0000000E+00   0.0000000E+00   0.0000000E+00   0.0000000E+00
   0.1016598E+01   0.9025730E+00  -0.6070000E+00   0.0000000E+00   0.0000000E+00   0.0000000E+00   0.0000000E+00
   0.9053190E+00   0.1014344E+01   0.0000000E+00   0.0000000E+00   0.0000000E+00   0.0000000E+00   0.0000000E+00
   0.7829190E+00   0.1114795E+01   0.0000000E+00   0.0000000E+00   0.0000000E+00   0.0000000E+00   0.0000000E+00
   0.7806440E+00   0.1111956E+01  -0.3034850E+00   0.0000000E+00   0.0000000E+00   0.0000000E+00   0.0000000E+00
   0.6458250E+00   0.1194149E+01  -0.3035140E+00   0.0000000E+00   0.0000000E+00   0.0000000E+00   0.0000000E+00
   0.6461540E+00   0.1194928E+01  -0.6070000E+00   0.0000000E+00   0.0000000E+00   0.0000000E+00   0.0000000E+00
   0.7826110E+00   0.1115049E+01  -0.6070000E+00   0.0000000E+00   0.0000000E+00   0.0000000E+00   0.0000000E+00
   0.6463450E+00   0.1194826E+01   0.0000000E+00   0.0000000E+00   0.0000000E+00   0.0000000E+00   0.0000000E+00
   0.5049740E+00   0.1266370E+01   0.0000000E+00   0.0000000E+00   0.0000000E+00   0.0000000E+00   0.0000000E+00
   0.5037730E+00   0.1263150E+01  -0.3035220E+00   0.0000000E+00   0.0000000E+00   0.0000000E+00   0.0000000E+00
   0.3531310E+00   0.1311165E+01  -0.3035110E+00   0.0000000E+00   0.0000000E+00   0.0000000E+00   0.0000000E+00
   0.3533000E+00   0.1312380E+01  -0.6070000E+00   0.0000000E+00   0.0000000E+00   0.0000000E+00   0.0000000E+00
   0.5051840E+00   0.1266307E+01  -0.6070000E+00   0.0000000E+00   0.0000000E+00   0.0000000E+00   0.0000000E+00
   0.3534940E+00   0.1312321E+01   0.0000000E+00   0.0000000E+00   0.0000000E+00   0.0000000E+00   0.0000000E+00
   0.1990640E+00   0.1345394E+01   0.0000000E+00   0.0000000E+00   0.0000000E+00   0.0000000E+00   0.0000000E+00
   0.1987560E+00   0.1343600E+01  -0.3034960E+00   0.0000000E+00   0.0000000E+00   0.0000000E+00   0.0000000E+00
   0.4127700E-01   0.1358178E+01  -0.3035080E+00   0.0000000E+00   0.0000000E+00   0.0000000E+00   0.0000000E+00
   0.4124100E-01   0.1360938E+01  -0.6070000E+00   0.0000000E+00   0.0000000E+00   0.0000000E+00   0.0000000E+00
   0.1990250E+00   0.1345398E+01  -0.6070000E+00   0.0000000E+00   0.0000000E+00   0.0000000E+00   0.0000000E+00
   0.4177700E-01   0.1360885E+01   0.0000000E+00   0.0000000E+00   0.0000000E+00   0.0000000E+00   0.0000000E+00
  -0.1164100E+00   0.1353535E+01   0.0000000E+00   0.0000000E+00   0.0000000E+00   0.0000000E+00   0.0000000E+00
  -0.1164720E+00   0.1352711E+01  -0.3034970E+00   0.0000000E+00   0.0000000E+00   0.0000000E+00   0.0000000E+00
  -0.2730270E+00   0.1332292E+01  -0.3034960E+00   0.0000000E+00   0.0000000E+00   0.0000000E+00   0.0000000E+00
  -0.2738770E+00   0.1336473E+01  -0.6070000E+00   0.0000000E+00   0.0000000E+00   0.0000000E+00   0.0000000E+00
  -0.1167220E+00   0.1353504E+01  -0.6070000E+00   0.0000000E+00   0.0000000E+00   0.0000000E+00   0.0000000E+00
  -0.2740690E+00   0.1336415E+01   0.0000000E+00   0.0000000E+00   0.0000000E+00   0.0000000E+00   0.0000000E+00
  -0.4255890E+00   0.1290452E+01   0.0000000E+00   0.0000000E+00   0.0000000E+00   0.0000000E+00   0.0000000E+00
  -0.4252580E+00   0.1289538E+01  -0.3035070E+00   0.0000000E+00   0.0000000E+00   0.0000000E+00   0.0000000E+00
  -0.5723030E+00   0.1232069E+01  -0.3034860E+00   0.0000000E+00   0.0000000E+00   0.0000000E+00   0.0000000E+00
  -0.5730640E+00   0.1233995E+01  -0.6070000E+00   0.0000000E+00   0.0000000E+00   0.0000000E+00   0.0000000E+00
  -0.4256510E+00   0.1290433E+01  -0.6070000E+00   0.0000000E+00   0.0000000E+00   0.0000000E+00   0.0000000E+00
  -0.5731960E+00   0.1233925E+01   0.0000000E+00   0.0000000E+00   0.0000000E+00   0.0000000E+00   0.0000000E+00
  -0.7126550E+00   0.1159382E+01   0.0000000E+00   0.0000000E+00   0.0000000E+00   0.0000000E+00   0.0000000E+00
  -0.7118890E+00   0.1157490E+01  -0.3034960E+00   0.0000000E+00   0.0000000E+00   0.0000000E+00   0.0000000E+00
  -0.8408260E+00   0.1066292E+01  -0.3034860E+00   0.0000000E+00   0.0000000E+00   0.0000000E+00   0.0000000E+00
  -0.8413690E+00   0.1066827E+01  -0.6070000E+00   0.0000000E+00   0.0000000E+00   0.0000000E+00   0.0000000E+00
  -0.7129810E+00   0.1159208E+01  -0.6070000E+00   0.0000000E+00   0.0000000E+00   0.0000000E+00   0.0000000E+00
  -0.8411650E+00   0.1066994E+01   0.0000000E+00   0.0000000E+00   0.0000000E+00   0.0000000E+00   0.0000000E+00
  -0.9633200E+00   0.9667440E+00   0.0000000E+00   0.0000000E+00   0.0000000E+00   0.0000000E+00   0.0000000E+00
  -0.9600850E+00   0.9626150E+00  -0.3034710E+00   0.0000000E+00   0.0000000E+00   0.0000000E+00   0.0000000E+00
  -0.1063837E+01   0.8432380E+00  -0.3034820E+00   0.0000000E+00   0.0000000E+00   0.0000000E+00   0.0000000E+00
  -0.1064818E+01   0.8438170E+00  -0.6070000E+00   0.0000000E+00   0.0000000E+00   0.0000000E+00   0.0000000E+00
  -0.9638740E+00   0.9662900E+00  -0.6070000E+00   0.0000000E+00   0.0000000E+00   0.0000000E+00   0.0000000E+00
  -0.1064644E+01   0.8440290E+00   0.0000000E+00   0.0000000E+00   0.0000000E+00   0.0000000E+00   0.0000000E+00
  -0.1157694E+01   0.7158140E+00   0.0000000E+00   0.0000000E+00   0.0000000E+00   0.0000000E+00   0.0000000E+00
  -0.1155648E+01   0.7146800E+00  -0.3034840E+00   0.0000000E+00   0.0000000E+00   0.0000000E+00   0.0000000E+00
  -0.1231083E+01   0.5755360E+00  -0.3035140E+00   0.0000000E+00   0.0000000E+00   0.0000000E+00   0.0000000E+00
  -0.1232330E+01   0.5761800E+00  -0.6070000E+00   0.0000000E+00   0.0000000E+00   0.0000000E+00   0.0000000E+00
  -0.1157561E+01   0.7160630E+00  -0.6070000E+00   0.0000000E+00   0.0000000E+00   0.0000000E+00   0.0000000E+00
  -0.1232248E+01   0.5763320E+00   0.0000000E+00   0.0000000E+00   0.0000000E+00   0.0000000E+00   0.0000000E+00
  -0.1289486E+01   0.4287720E+00   0.0000000E+00   0.0000000E+00   0.0000000E+00   0.0000000E+00   0.0000000E+00
  -0.1288421E+01   0.4284050E+00  -0.3035130E+00   0.0000000E+00   0.0000000E+00   0.0000000E+00   0.0000000E+00
  -0.1330824E+01   0.2759600E+00  -0.3034920E+00   0.0000000E+00   0.0000000E+00   0.0000000E+00   0.0000000E+00
  -0.1335500E+01   0.2770840E+00  -0.6070000E+00   0.0000000E+00   0.0000000E+00   0.0000000E+00   0.0000000E+00
  -0.1289457E+01   0.4288680E+00  -0.6070000E+00   0.0000000E+00   0.0000000E+00   0.0000000E+00   0.0000000E+00
  -0.1335418E+01   0.2773550E+00   0.0000000E+00   0.0000000E+00   0.0000000E+00   0.0000000E+00   0.0000000E+00
  -0.1353266E+01   0.1191350E+00   0.0000000E+00   0.0000000E+00   0.0000000E+00   0.0000000E+00   0.0000000E+00
  -0.1352354E+01   0.1190530E+00  -0.3035140E+00   0.0000000E+00   0.0000000E+00   0.0000000E+00   0.0000000E+00
  -0.1358507E+01  -0.3911600E-01  -0.3035000E+00   0.0000000E+00   0.0000000E+00   0.0000000E+00   0.0000000E+00
  -0.1361174E+01  -0.3885100E-01  -0.6070000E+00   0.0000000E+00   0.0000000E+00   0.0000000E+00   0.0000000E+00
  -0.1353258E+01   0.1192150E+00  -0.6070000E+00   0.0000000E+00   0.0000000E+00   0.0000000E+00   0.0000000E+00
  -0.1361118E+01  -0.3941100E-01   0.0000000E+00   0.0000000E+00   0.0000000E+00   0.0000000E+00   0.0000000E+00
  -0.1345569E+01  -0.1972860E+00   0.0000000E+00   0.0000000E+00   0.0000000E+00   0.0000000E+00   0.0000000E+00
  -0.1344440E+01  -0.1970880E+00  -0.3034940E+00   0.0000000E+00   0.0000000E+00   0.0000000E+00   0.0000000E+00
  -0.1311530E+01  -0.3520630E+00  -0.3034820E+00   0.0000000E+00   0.0000000E+00   0.0000000E+00   0.0000000E+00
  -0.1312795E+01  -0.3519340E+00  -0.6070000E+00   0.0000000E+00   0.0000000E+00   0.0000000E+00   0.0000000E+00
  -0.1345588E+01  -0.1970940E+00  -0.6070000E+00   0.0000000E+00   0.0000000E+00   0.0000000E+00   0.0000000E+00
  -0.1312613E+01  -0.3525340E+00   0.0000000E+00   0.0000000E+00   0.0000000E+00   0.0000000E+00   0.0000000E+00
  -0.1266467E+01  -0.5046540E+00   0.0000000E+00   0.0000000E+00   0.0000000E+00   0.0000000E+00   0.0000000E+00
  -0.1262473E+01  -0.5032180E+00  -0.3034810E+00   0.0000000E+00   0.0000000E+00   0.0000000E+00   0.0000000E+00
  -0.1193617E+01  -0.6467140E+00  -0.3035050E+00   0.0000000E+00   0.0000000E+00   0.0000000E+00   0.0000000E+00
  -0.1194849E+01  -0.6463010E+00  -0.6070000E+00   0.0000000E+00   0.0000000E+00   0.0000000E+00   0.0000000E+00
  -0.1266619E+01  -0.5041540E+00  -0.6070000E+00   0.0000000E+00   0.0000000E+00   0.0000000E+00   0.0000000E+00
  -0.1194228E+01  -0.6474640E+00   0.0000000E+00   0.0000000E+00   0.0000000E+00   0.0000000E+00   0.0000000E+00
  -0.1113055E+01  -0.7850400E+00   0.0000000E+00   0.0000000E+00   0.0000000E+00   0.0000000E+00   0.0000000E+00
  -0.1111085E+01  -0.7830470E+00  -0.3034870E+00   0.0000000E+00   0.0000000E+00   0.0000000E+00   0.0000000E+00
  -0.1010839E+01  -0.9078810E+00  -0.3034790E+00   0.0000000E+00   0.0000000E+00   0.0000000E+00   0.0000000E+00
  -0.1013010E+01  -0.9069460E+00  -0.6070000E+00   0.0000000E+00   0.0000000E+00   0.0000000E+00   0.0000000E+00
  -0.1114416E+01  -0.7833820E+00  -0.6070000E+00   0.0000000E+00   0.0000000E+00   0.0000000E+00   0.0000000E+00
  -0.1011018E+01  -0.9093730E+00   0.0000000E+00   0.0000000E+00   0.0000000E+00   0.0000000E+00   0.0000000E+00
  -0.1253905E+01  -0.1118876E+01  -0.6051310E+00   0.0000000E+00   0.0000000E+00   0.0000000E+00   0.0000000E+00
  -0.1374800E+01  -0.9671560E+00  -0.6051780E+00   0.0000000E+00   0.0000000E+00   0.0000000E+00   0.0000000E+00
  -0.1479402E+01  -0.7983350E+00  -0.6050810E+00   0.0000000E+00   0.0000000E+00   0.0000000E+00   0.0000000E+00
  -0.1636873E+01  -0.1147250E+01  -0.5895930E+00   0.0000000E+00   0.0000000E+00   0.0000000E+00   0.0000000E+00
  -0.1759212E+01  -0.9492010E+00  -0.5886820E+00   0.0000000E+00   0.0000000E+00   0.0000000E+00   0.0000000E+00
  -0.1857812E+01  -0.7385680E+00  -0.5894000E+00   0.0000000E+00   0.0000000E+00   0.0000000E+00   0.0000000E+00
  -0.1563001E+01  -0.6184900E+00  -0.6051930E+00   0.0000000E+00   0.0000000E+00   0.0000000E+00   0.0000000E+00
  -0.1931160E+01  -0.5173190E+00  -0.5891860E+00   0.0000000E+00   0.0000000E+00   0.0000000E+00   0.0000000E+00
  -0.1623538E+01  -0.4351710E+00  -0.6051000E+00   0.0000000E+00   0.0000000E+00   0.0000000E+00   0.0000000E+00
  -0.1978575E+01  -0.2897990E+00  -0.5884540E+00   0.0000000E+00   0.0000000E+00   0.0000000E+00   0.0000000E+00
  -0.1663475E+01  -0.2417550E+00  -0.6051320E+00   0.0000000E+00   0.0000000E+00   0.0000000E+00   0.0000000E+00
  -0.1998825E+01  -0.5783400E-01  -0.5894770E+00   0.0000000E+00   0.0000000E+00   0.0000000E+00   0.0000000E+00
  -0.1680267E+01  -0.4993600E-01  -0.6051650E+00   0.0000000E+00   0.0000000E+00   0.0000000E+00   0.0000000E+00
  -0.1991808E+01   0.1748780E+00  -0.5891060E+00   0.0000000E+00   0.0000000E+00   0.0000000E+00   0.0000000E+00
  -0.1674406E+01   0.1485450E+00  -0.6050850E+00   0.0000000E+00   0.0000000E+00   0.0000000E+00   0.0000000E+00
  -0.1958308E+01   0.4046900E+00  -0.5889930E+00   0.0000000E+00   0.0000000E+00   0.0000000E+00   0.0000000E+00
  -0.1645379E+01   0.3434580E+00  -0.6052140E+00   0.0000000E+00   0.0000000E+00   0.0000000E+00   0.0000000E+00
  -0.1897919E+01   0.6296270E+00  -0.5891100E+00   0.0000000E+00   0.0000000E+00   0.0000000E+00   0.0000000E+00
  -0.1595320E+01   0.5294590E+00  -0.6050870E+00   0.0000000E+00   0.0000000E+00   0.0000000E+00   0.0000000E+00
  -0.1812873E+01   0.8454500E+00  -0.5889150E+00   0.0000000E+00   0.0000000E+00   0.0000000E+00   0.0000000E+00
  -0.1522352E+01   0.7128320E+00  -0.6051400E+00   0.0000000E+00   0.0000000E+00   0.0000000E+00   0.0000000E+00
  -0.1702680E+01   0.1050389E+01  -0.5891640E+00   0.0000000E+00   0.0000000E+00   0.0000000E+00   0.0000000E+00
  -0.1430818E+01   0.8822660E+00  -0.6051540E+00   0.0000000E+00   0.0000000E+00   0.0000000E+00   0.0000000E+00
  -0.1568756E+01   0.1240098E+01  -0.5889800E+00   0.0000000E+00   0.0000000E+00   0.0000000E+00   0.0000000E+00
  -0.1317289E+01   0.1043810E+01  -0.6050940E+00   0.0000000E+00   0.0000000E+00   0.0000000E+00   0.0000000E+00
  -0.1413480E+01   0.1413075E+01  -0.5888050E+00   0.0000000E+00   0.0000000E+00   0.0000000E+00   0.0000000E+00
  -0.1186219E+01   0.1191001E+01  -0.6052320E+00   0.0000000E+00   0.0000000E+00   0.0000000E+00   0.0000000E+00
  -0.1239421E+01   0.1567388E+01  -0.5892570E+00   0.0000000E+00   0.0000000E+00   0.0000000E+00   0.0000000E+00
  -0.1042255E+01   0.1319007E+01  -0.6050730E+00   0.0000000E+00   0.0000000E+00   0.0000000E+00   0.0000000E+00
  -0.1049280E+01   0.1701798E+01  -0.5894930E+00   0.0000000E+00   0.0000000E+00   0.0000000E+00   0.0000000E+00
  -0.8794850E+00   0.1432485E+01  -0.6051510E+00   0.0000000E+00   0.0000000E+00   0.0000000E+00   0.0000000E+00
  -0.8446060E+00   0.1812743E+01  -0.5886330E+00   0.0000000E+00   0.0000000E+00   0.0000000E+00   0.0000000E+00
  -0.7098680E+00   0.1523391E+01  -0.6051430E+00   0.0000000E+00   0.0000000E+00   0.0000000E+00   0.0000000E+00
  -0.6290410E+00   0.1897812E+01  -0.5891660E+00   0.0000000E+00   0.0000000E+00   0.0000000E+00   0.0000000E+00
  -0.5269770E+00   0.1596106E+01  -0.6051030E+00   0.0000000E+00   0.0000000E+00   0.0000000E+00   0.0000000E+00
  -0.4036380E+00   0.1957989E+01  -0.5892180E+00   0.0000000E+00   0.0000000E+00   0.0000000E+00   0.0000000E+00
  -0.3410600E+00   0.1646368E+01  -0.6052090E+00   0.0000000E+00   0.0000000E+00   0.0000000E+00   0.0000000E+00
  -0.1740230E+00   0.1991683E+01  -0.5887310E+00   0.0000000E+00   0.0000000E+00   0.0000000E+00   0.0000000E+00
  -0.1454080E+00   0.1675021E+01  -0.6050710E+00   0.0000000E+00   0.0000000E+00   0.0000000E+00   0.0000000E+00
   0.5884000E-01   0.1998530E+01  -0.5895020E+00   0.0000000E+00   0.0000000E+00   0.0000000E+00   0.0000000E+00
   0.5262800E-01   0.1680355E+01  -0.6051590E+00   0.0000000E+00   0.0000000E+00   0.0000000E+00   0.0000000E+00
   0.2916660E+00   0.1978352E+01  -0.5885010E+00   0.0000000E+00   0.0000000E+00   0.0000000E+00   0.0000000E+00
   0.2450870E+00   0.1662798E+01  -0.6051300E+00   0.0000000E+00   0.0000000E+00   0.0000000E+00   0.0000000E+00
   0.5171000E+00   0.1931902E+01  -0.5890460E+00   0.0000000E+00   0.0000000E+00   0.0000000E+00   0.0000000E+00
   0.4370850E+00   0.1622468E+01  -0.6051200E+00   0.0000000E+00   0.0000000E+00   0.0000000E+00   0.0000000E+00
   0.7382330E+00   0.1858919E+01  -0.5894760E+00   0.0000000E+00   0.0000000E+00   0.0000000E+00   0.0000000E+00
   0.6198100E+00   0.1562536E+01  -0.6051980E+00   0.0000000E+00   0.0000000E+00   0.0000000E+00   0.0000000E+00
   0.9491530E+00   0.1760553E+01  -0.5882040E+00   0.0000000E+00   0.0000000E+00   0.0000000E+00   0.0000000E+00
   0.7990880E+00   0.1479690E+01  -0.6050690E+00   0.0000000E+00   0.0000000E+00   0.0000000E+00   0.0000000E+00
   0.1147397E+01   0.1637830E+01  -0.5895700E+00   0.0000000E+00   0.0000000E+00   0.0000000E+00   0.0000000E+00
   0.9669160E+00   0.1374881E+01  -0.6051770E+00   0.0000000E+00   0.0000000E+00   0.0000000E+00   0.0000000E+00
   0.1329547E+01   0.1493205E+01  -0.5884910E+00   0.0000000E+00   0.0000000E+00   0.0000000E+00   0.0000000E+00
   0.1117725E+01   0.1254433E+01  -0.6051260E+00   0.0000000E+00   0.0000000E+00   0.0000000E+00   0.0000000E+00
   0.1492394E+01   0.1329842E+01  -0.5888020E+00   0.0000000E+00   0.0000000E+00   0.0000000E+00   0.0000000E+00
   0.1256297E+01   0.1116092E+01  -0.6051300E+00   0.0000000E+00   0.0000000E+00   0.0000000E+00   0.0000000E+00
   0.1637718E+01   0.1146514E+01  -0.5895620E+00   0.0000000E+00   0.0000000E+00   0.0000000E+00   0.0000000E+00
   0.1376529E+01   0.9647110E+00  -0.6051820E+00   0.0000000E+00   0.0000000E+00   0.0000000E+00   0.0000000E+00
   0.1759657E+01   0.9488400E+00  -0.5886410E+00   0.0000000E+00   0.0000000E+00   0.0000000E+00   0.0000000E+00
   0.1480687E+01   0.7966570E+00  -0.6050750E+00   0.0000000E+00   0.0000000E+00   0.0000000E+00   0.0000000E+00
   0.1857946E+01   0.7381090E+00  -0.5894180E+00   0.0000000E+00   0.0000000E+00   0.0000000E+00   0.0000000E+00
   0.1564096E+01   0.6170290E+00  -0.6051830E+00   0.0000000E+00   0.0000000E+00   0.0000000E+00   0.0000000E+00
   0.1931643E+01   0.5167530E+00  -0.5891490E+00   0.0000000E+00   0.0000000E+00   0.0000000E+00   0.0000000E+00
   0.1623801E+01   0.4337970E+00  -0.6051030E+00   0.0000000E+00   0.0000000E+00   0.0000000E+00   0.0000000E+00
   0.1978887E+01   0.2902240E+00  -0.5884300E+00   0.0000000E+00   0.0000000E+00   0.0000000E+00   0.0000000E+00
   0.1663389E+01   0.2413160E+00  -0.6051340E+00   0.0000000E+00   0.0000000E+00   0.0000000E+00   0.0000000E+00
   0.1998444E+01   0.5809900E-01  -0.5895220E+00   0.0000000E+00   0.0000000E+00   0.0000000E+00   0.0000000E+00
   0.1680715E+01   0.4977000E-01  -0.6051590E+00   0.0000000E+00   0.0000000E+00   0.0000000E+00   0.0000000E+00
   0.1991832E+01  -0.1747860E+00  -0.5891040E+00   0.0000000E+00   0.0000000E+00   0.0000000E+00   0.0000000E+00
   0.1674874E+01  -0.1491550E+00  -0.6050780E+00   0.0000000E+00   0.0000000E+00   0.0000000E+00   0.0000000E+00
   0.1958607E+01  -0.4046670E+00  -0.5889600E+00   0.0000000E+00   0.0000000E+00   0.0000000E+00   0.0000000E+00
   0.1645699E+01  -0.3436680E+00  -0.6052090E+00   0.0000000E+00   0.0000000E+00   0.0000000E+00   0.0000000E+00
   0.1897981E+01  -0.6296500E+00  -0.5891020E+00   0.0000000E+00   0.0000000E+00   0.0000000E+00   0.0000000E+00
   0.1595315E+01  -0.5292430E+00  -0.6050880E+00   0.0000000E+00   0.0000000E+00   0.0000000E+00   0.0000000E+00
   0.1813014E+01  -0.8450180E+00  -0.5889370E+00   0.0000000E+00   0.0000000E+00   0.0000000E+00   0.0000000E+00
   0.1522288E+01  -0.7125170E+00  -0.6051430E+00   0.0000000E+00   0.0000000E+00   0.0000000E+00   0.0000000E+00
   0.1703004E+01  -0.1049968E+01  -0.5891390E+00   0.0000000E+00   0.0000000E+00   0.0000000E+00   0.0000000E+00
   0.1431222E+01  -0.8818700E+00  -0.6051510E+00   0.0000000E+00   0.0000000E+00   0.0000000E+00   0.0000000E+00
   0.1568618E+01  -0.1239220E+01  -0.5890680E+00   0.0000000E+00   0.0000000E+00   0.0000000E+00   0.0000000E+00
   0.1317336E+01  -0.1042799E+01  -0.6051030E+00   0.0000000E+00   0.0000000E+00   0.0000000E+00   0.0000000E+00
   0.1412085E+01  -0.1411839E+01  -0.5890050E+00   0.0000000E+00   0.0000000E+00   0.0000000E+00   0.0000000E+00
   0.1185362E+01  -0.1189361E+01  -0.6052550E+00   0.0000000E+00   0.0000000E+00   0.0000000E+00   0.0000000E+00
   0.1239919E+01  -0.1566797E+01  -0.5892750E+00   0.0000000E+00   0.0000000E+00   0.0000000E+00   0.0000000E+00
   0.1042362E+01  -0.1318480E+01  -0.6050780E+00   0.0000000E+00   0.0000000E+00   0.0000000E+00   0.0000000E+00
   0.1049998E+01  -0.1701775E+01  -0.5894500E+00   0.0000000E+00   0.0000000E+00   0.0000000E+00   0.0000000E+00
   0.8804100E+00  -0.1432650E+01  -0.6051430E+00   0.0000000E+00   0.0000000E+00   0.0000000E+00   0.0000000E+00
   0.8450120E+00  -0.1812488E+01  -0.5886210E+00   0.0000000E+00   0.0000000E+00   0.0000000E+00   0.0000000E+00
   0.7107980E+00  -0.1522923E+01  -0.6051420E+00   0.0000000E+00   0.0000000E+00   0.0000000E+00   0.0000000E+00
   0.6301260E+00  -0.1897367E+01  -0.5891780E+00   0.0000000E+00   0.0000000E+00   0.0000000E+00   0.0000000E+00
   0.5278250E+00  -0.1595383E+01  -0.6051090E+00   0.0000000E+00   0.0000000E+00   0.0000000E+00   0.0000000E+00
   0.4051170E+00  -0.1958073E+01  -0.5892220E+00   0.0000000E+00   0.0000000E+00   0.0000000E+00   0.0000000E+00
   0.3425510E+00  -0.1645551E+01  -0.6052140E+00   0.0000000E+00   0.0000000E+00   0.0000000E+00   0.0000000E+00
   0.1760680E+00  -0.1991610E+01  -0.5886570E+00   0.0000000E+00   0.0000000E+00   0.0000000E+00   0.0000000E+00
   0.1475280E+00  -0.1674571E+01  -0.6050750E+00   0.0000000E+00   0.0000000E+00   0.0000000E+00   0.0000000E+00
  -0.5697500E-01  -0.1998659E+01  -0.5894970E+00   0.0000000E+00   0.0000000E+00   0.0000000E+00   0.0000000E+00
  -0.4984900E-01  -0.1680356E+01  -0.6051630E+00   0.0000000E+00   0.0000000E+00   0.0000000E+00   0.0000000E+00
  -0.2892120E+00  -0.1978985E+01  -0.5885500E+00   0.0000000E+00   0.0000000E+00   0.0000000E+00   0.0000000E+00
  -0.2421290E+00  -0.1663707E+01  -0.6051210E+00   0.0000000E+00   0.0000000E+00   0.0000000E+00   0.0000000E+00
  -0.5151600E+00  -0.1932632E+01  -0.5889760E+00   0.0000000E+00   0.0000000E+00   0.0000000E+00   0.0000000E+00
  -0.4332290E+00  -0.1624298E+01  -0.6051140E+00   0.0000000E+00   0.0000000E+00   0.0000000E+00   0.0000000E+00
  -0.7361270E+00  -0.1859722E+01  -0.5894730E+00   0.0000000E+00   0.0000000E+00   0.0000000E+00   0.0000000E+00
  -0.6159840E+00  -0.1564261E+01  -0.6051900E+00   0.0000000E+00   0.0000000E+00   0.0000000E+00   0.0000000E+00
  -0.9471260E+00  -0.1761798E+01  -0.5881180E+00   0.0000000E+00   0.0000000E+00   0.0000000E+00   0.0000000E+00
  -0.7952710E+00  -0.1482075E+01  -0.6050660E+00   0.0000000E+00   0.0000000E+00   0.0000000E+00   0.0000000E+00