VARIABLES="w (rad/s)"  
"abs(F   1   1)" "angle(F   1   1)"
"abs(F   1   2)" "angle(F   1   2)"
"abs(F   1   3)" "angle(F   1   3)"
"abs(F   1   4)" "angle(F   1   4)"
"abs(F   1   5)" "angle(F   1   5)"
"abs(F   1   6)" "angle(F   1   6)"
"abs(F   2   1)" "angle(F   2   1)"
"abs(F   2   2)" "angle(F   2   2)"
"abs(F   2   3)" "angle(F   2   3)"
"abs(F   2   4)" "angle(F   2   4)"
"abs(F   2   5)" "angle(F   2   5)"
"abs(F   2   6)" "angle(F   2   6)"
"abs(F   3   1)" "angle(F   3   1)"
"abs(F   3   2)" "angle(F   3   2)"
"abs(F   3   3)" "angle(F   3   3)"
"abs(F   3   4)" "angle(F   3   4)"
"abs(F   3   5)" "angle(F   3   5)"
"abs(F   3   6)" "angle(F   3   6)"
Zone t="Diffraction force - beta =   0.000 deg",I=    50,F=POINT
  0.1000000E+00  0.5703490E+02 -0.1570077E+01  0.3185920E+00 -0.2256491E+01  0.4023480E+04 -0.3123722E+01  0.6864857E+01  0.8061016E-01  0.1001715E+04 -0.1571060E+01  0.2492713E-02 -0.2603421E+01  0.1491843E+04 -0.1580419E+01  0.2889654E+02 -0.1098103E+01  0.6259945E+04 -0.3136904E+01  0.1338011E+03 -0.1223595E+01  0.2349336E+04  0.1565190E+01  0.2993145E+01  0.1453533E+01  0.0000000E+00  0.0000000E+00  0.0000000E+00  0.0000000E+00  0.0000000E+00  0.0000000E+00  0.0000000E+00  0.0000000E+00  0.0000000E+00  0.0000000E+00  0.0000000E+00  0.0000000E+00
  0.2204082E+00  0.2671860E+03 -0.1569937E+01  0.1550426E+01 -0.2242490E+01  0.2005876E+05 -0.3059544E+01  0.3266343E+02  0.1030307E+00  0.4600803E+04 -0.1570925E+01  0.1190554E-01 -0.2539741E+01  0.6889700E+04 -0.1581074E+01  0.1285449E+03 -0.1088196E+01  0.2818899E+05 -0.3138915E+01  0.5985328E+03 -0.1213026E+01  0.1065118E+05  0.1568106E+01  0.9185729E+01  0.2232184E+01  0.0000000E+00  0.0000000E+00  0.0000000E+00  0.0000000E+00  0.0000000E+00  0.0000000E+00  0.0000000E+00  0.0000000E+00  0.0000000E+00  0.0000000E+00  0.0000000E+00  0.0000000E+00
  0.3408163E+00  0.5975424E+03 -0.1568879E+01  0.3713589E+01 -0.2223427E+01  0.4797596E+05 -0.2976722E+01  0.7560927E+02  0.1377380E+00  0.9893649E+04 -0.1569649E+01  0.2674275E-01 -0.2423256E+01  0.1509002E+05 -0.1581509E+01  0.2632259E+03 -0.1074949E+01  0.5897198E+05  0.3135108E+01  0.1240103E+04 -0.1196190E+01  0.2253828E+05  0.1572173E+01  0.3131590E+02 -0.2961415E+01  0.0000000E+00  0.0000000E+00  0.0000000E+00  0.0000000E+00  0.0000000E+00  0.0000000E+00  0.0000000E+00  0.0000000E+00  0.0000000E+00  0.0000000E+00  0.0000000E+00  0.0000000E+00
  0.4612245E+00  0.9852258E+03 -0.1564380E+01  0.6815366E+01 -0.2211766E+01  0.8561898E+05 -0.2896039E+01  0.1341776E+03  0.1745193E+00  0.1521245E+05 -0.1563577E+01  0.4359791E-01 -0.2241572E+01  0.2442482E+05 -0.1581099E+01  0.3860318E+03 -0.1057826E+01  0.8939695E+05  0.3113787E+01  0.1854982E+04 -0.1172155E+01  0.3453438E+05  0.1578590E+01  0.9662916E+02 -0.2592590E+01  0.0000000E+00  0.0000000E+00  0.0000000E+00  0.0000000E+00  0.0000000E+00  0.0000000E+00  0.0000000E+00  0.0000000E+00  0.0000000E+00  0.0000000E+00  0.0000000E+00  0.0000000E+00
  0.5816327E+00  0.1336260E+04 -0.1551880E+01  0.1092828E+02 -0.2193937E+01  0.1305878E+06 -0.2827261E+01  0.2060118E+03  0.2300051E+00  0.1813580E+05 -0.1543654E+01  0.6054657E-01 -0.1984644E+01  0.3316754E+05 -0.1579255E+01  0.4591078E+03 -0.1032805E+01  0.1116798E+06  0.3076803E+01  0.2278053E+04 -0.1136292E+01  0.4312453E+05  0.1589476E+01  0.2110939E+03 -0.2471060E+01  0.0000000E+00  0.0000000E+00  0.0000000E+00  0.0000000E+00  0.0000000E+00  0.0000000E+00  0.0000000E+00  0.0000000E+00  0.0000000E+00  0.0000000E+00  0.0000000E+00  0.0000000E+00
  0.7020409E+00  0.1511715E+04 -0.1524494E+01  0.1609731E+02 -0.2164703E+01  0.1809628E+06 -0.2770660E+01  0.2880100E+03  0.3080483E+00  0.1525098E+05 -0.1478862E+01  0.7952087E-01 -0.1642887E+01  0.3990509E+05 -0.1576077E+01  0.4647716E+03 -0.9922537E+00  0.1215387E+06  0.3020200E+01  0.2431049E+04 -0.1083623E+01  0.4570635E+05  0.1607147E+01  0.3754149E+03 -0.2427563E+01  0.0000000E+00  0.0000000E+00  0.0000000E+00  0.0000000E+00  0.0000000E+00  0.0000000E+00  0.0000000E+00  0.0000000E+00  0.0000000E+00  0.0000000E+00  0.0000000E+00  0.0000000E+00
  0.8224490E+00  0.1316856E+04 -0.1466801E+01  0.2211671E+02 -0.2121028E+01  0.2349183E+06 -0.2722579E+01  0.3734492E+03  0.4067170E+00  0.3223158E+04 -0.5523735E+00  0.1083945E+00 -0.1275436E+01  0.4376713E+05 -0.1573194E+01  0.4071543E+03 -0.9228974E+00  0.1189728E+06  0.2937487E+01  0.2335894E+04 -0.1008423E+01  0.4136258E+05  0.1633843E+01  0.5845681E+03 -0.2408712E+01  0.0000000E+00  0.0000000E+00  0.0000000E+00  0.0000000E+00  0.0000000E+00  0.0000000E+00  0.0000000E+00  0.0000000E+00  0.0000000E+00  0.0000000E+00  0.0000000E+00  0.0000000E+00
  0.9428571E+00  0.5150164E+03 -0.1230632E+01  0.2835368E+02 -0.2060859E+01  0.2902504E+06 -0.2680838E+01  0.4490256E+03  0.5213098E+00  0.2819688E+05  0.1449250E+01  0.1517109E+00 -0.9745572E+00  0.4448753E+05 -0.1574750E+01  0.3107474E+03 -0.7853826E+00  0.1071979E+06  0.2819669E+01  0.2085398E+04 -0.9066198E+00  0.3122506E+05  0.1674368E+01  0.8251569E+03 -0.2395262E+01  0.0000000E+00  0.0000000E+00  0.0000000E+00  0.0000000E+00  0.0000000E+00  0.0000000E+00  0.0000000E+00  0.0000000E+00  0.0000000E+00  0.0000000E+00  0.0000000E+00  0.0000000E+00
  0.1063265E+01  0.1233901E+04  0.1546049E+01  0.3392393E+02 -0.2000091E+01  0.3440111E+06 -0.2644629E+01  0.5050180E+03  0.6338233E+00  0.7977012E+05  0.1564135E+01  0.2013441E+00 -0.7723926E+00  0.4235279E+05 -0.1588805E+01  0.2092324E+03 -0.4931443E+00  0.9115088E+05  0.2657449E+01  0.1795685E+04 -0.7831087E+00  0.1824828E+05  0.1756357E+01  0.1077503E+04 -0.2382105E+01  0.0000000E+00  0.0000000E+00  0.0000000E+00  0.0000000E+00  0.0000000E+00  0.0000000E+00  0.0000000E+00  0.0000000E+00  0.0000000E+00  0.0000000E+00  0.0000000E+00  0.0000000E+00
  0.1183674E+01  0.4091655E+04  0.1703133E+01  0.3812465E+02 -0.1950967E+01  0.3932480E+06 -0.2614802E+01  0.5368140E+03  0.7343010E+00  0.1583840E+06  0.1639138E+01  0.2335282E+00 -0.6856928E+00  0.3808854E+05 -0.1628639E+01  0.1485911E+03  0.9973110E-01  0.7538102E+05  0.2446023E+01  0.1551097E+04 -0.6593744E+00  0.6563851E+04  0.2135199E+01  0.1319871E+04 -0.2369357E+01  0.0000000E+00  0.0000000E+00  0.0000000E+00  0.0000000E+00  0.0000000E+00  0.0000000E+00  0.0000000E+00  0.0000000E+00  0.0000000E+00  0.0000000E+00  0.0000000E+00  0.0000000E+00
  0.1304082E+01  0.8243974E+04  0.1797446E+01  0.4074123E+02 -0.1923512E+01  0.4351617E+06 -0.2592095E+01  0.5481937E+03  0.8161637E+00  0.2661580E+06  0.1708122E+01  0.2075487E+00 -0.7945462E+00  0.3272555E+05 -0.1713376E+01  0.1585392E+03  0.7385986E+00  0.6271666E+05  0.2192838E+01  0.1380240E+04 -0.5669820E+00  0.5714645E+04 -0.2557971E+01  0.1533565E+04 -0.2358598E+01  0.0000000E+00  0.0000000E+00  0.0000000E+00  0.0000000E+00  0.0000000E+00  0.0000000E+00  0.0000000E+00  0.0000000E+00  0.0000000E+00  0.0000000E+00  0.0000000E+00  0.0000000E+00
  0.1424490E+01  0.1365910E+05  0.1881008E+01  0.4204766E+02 -0.1920426E+01  0.4672381E+06 -0.2577030E+01  0.5470771E+03  0.8819935E+00  0.4014393E+06  0.1773435E+01  0.1626833E+00 -0.1838902E+01  0.2744306E+05 -0.1865632E+01  0.1954506E+03  0.1059910E+01  0.5392123E+05  0.1917546E+01  0.1269115E+04 -0.5271040E+00  0.1068977E+05 -0.2451310E+01  0.1703909E+04 -0.2351517E+01  0.0000000E+00  0.0000000E+00  0.0000000E+00  0.0000000E+00  0.0000000E+00  0.0000000E+00  0.0000000E+00  0.0000000E+00  0.0000000E+00  0.0000000E+00  0.0000000E+00  0.0000000E+00
  0.1544898E+01  0.2012671E+05  0.1957378E+01  0.4240550E+02 -0.1938310E+01  0.4870997E+06 -0.2569606E+01  0.5409387E+03  0.9387966E+00  0.5587453E+06  0.1833050E+01  0.5379198E+00 -0.2722018E+01  0.2337083E+05 -0.2099818E+01  0.2246059E+03  0.1183430E+01  0.4831740E+05  0.1656536E+01  0.1187881E+04 -0.5335339E+00  0.1539764E+05 -0.2764485E+01  0.1819689E+04 -0.2349403E+01  0.0000000E+00  0.0000000E+00  0.0000000E+00  0.0000000E+00  0.0000000E+00  0.0000000E+00  0.0000000E+00  0.0000000E+00  0.0000000E+00  0.0000000E+00  0.0000000E+00  0.0000000E+00
  0.1665306E+01  0.2727816E+05  0.2025835E+01  0.4197177E+02 -0.1970841E+01  0.4926328E+06 -0.2569796E+01  0.5321033E+03  0.9920699E+00  0.7294380E+06  0.1884905E+01  0.1389870E+01 -0.2826626E+01  0.2125897E+05 -0.2397055E+01  0.2402803E+03  0.1209821E+01  0.4429098E+05  0.1431318E+01  0.1105654E+04 -0.5692268E+00  0.2236175E+05 -0.3096180E+01  0.1873440E+04 -0.2353582E+01  0.0000000E+00  0.0000000E+00  0.0000000E+00  0.0000000E+00  0.0000000E+00  0.0000000E+00  0.0000000E+00  0.0000000E+00  0.0000000E+00  0.0000000E+00  0.0000000E+00  0.0000000E+00
  0.1785714E+01  0.3461933E+05  0.2085758E+01  0.4083844E+02 -0.2011879E+01  0.4820978E+06 -0.2577924E+01  0.5226261E+03  0.1042798E+01  0.9025902E+06  0.1927833E+01  0.2785801E+01 -0.2799117E+01  0.2106825E+05 -0.2699280E+01  0.2418848E+03  0.1183125E+01  0.4104369E+05  0.1230131E+01  0.1007415E+04 -0.6274779E+00  0.3168955E+05  0.2948569E+01  0.1862531E+04 -0.2366002E+01  0.0000000E+00  0.0000000E+00  0.0000000E+00  0.0000000E+00  0.0000000E+00  0.0000000E+00  0.0000000E+00  0.0000000E+00  0.0000000E+00  0.0000000E+00  0.0000000E+00  0.0000000E+00
  0.1906122E+01  0.4155943E+05  0.2137165E+01  0.3898027E+02 -0.2061177E+01  0.4543351E+06 -0.2594893E+01  0.5129775E+03  0.1083794E+01  0.1065617E+07  0.1961471E+01  0.4800021E+01 -0.2734311E+01  0.2200625E+05 -0.2960884E+01  0.2371217E+03  0.1116342E+01  0.3749661E+05  0.1063753E+01  0.8862218E+03 -0.6916405E+00  0.4191452E+05  0.2788452E+01  0.1784206E+04 -0.2386908E+01  0.0000000E+00  0.0000000E+00  0.0000000E+00  0.0000000E+00  0.0000000E+00  0.0000000E+00  0.0000000E+00  0.0000000E+00  0.0000000E+00  0.0000000E+00  0.0000000E+00  0.0000000E+00
  0.2026531E+01  0.4744260E+05  0.2180485E+01  0.3641481E+02 -0.2117414E+01  0.4090886E+06 -0.2622642E+01  0.5022175E+03  0.1107574E+01  0.1204840E+07  0.1985956E+01  0.7427012E+01 -0.2660129E+01  0.2324884E+05  0.3108310E+01  0.2256790E+03  0.1026666E+01  0.3370070E+05  0.8985016E+00  0.7534757E+03 -0.7748700E+00  0.5116786E+05  0.2666200E+01  0.1643001E+04 -0.2417349E+01  0.0000000E+00  0.0000000E+00  0.0000000E+00  0.0000000E+00  0.0000000E+00  0.0000000E+00  0.0000000E+00  0.0000000E+00  0.0000000E+00  0.0000000E+00  0.0000000E+00  0.0000000E+00
  0.2146939E+01  0.5158180E+05  0.2216326E+01  0.3348901E+02 -0.2181749E+01  0.3472450E+06 -0.2665724E+01  0.4946091E+03  0.1101806E+01  0.1306234E+07  0.2001502E+01  0.1055682E+02 -0.2587159E+01  0.2419682E+05  0.2924991E+01  0.2119111E+03  0.9250559E+00  0.2921366E+05  0.7404839E+00  0.6191429E+03 -0.8602952E+00  0.5889657E+05  0.2561909E+01  0.1444310E+04 -0.2456530E+01  0.0000000E+00  0.0000000E+00  0.0000000E+00  0.0000000E+00  0.0000000E+00  0.0000000E+00  0.0000000E+00  0.0000000E+00  0.0000000E+00  0.0000000E+00  0.0000000E+00  0.0000000E+00
  0.2267347E+01  0.5332023E+05  0.2245209E+01  0.3026596E+02 -0.2248945E+01  0.2712928E+06 -0.2734893E+01  0.4879889E+03  0.1060026E+01  0.1356538E+07  0.2008143E+01  0.1397390E+02 -0.2521161E+01  0.2457558E+05  0.2759940E+01  0.1920128E+03  0.8225888E+00  0.2453665E+05  0.5518867E+00  0.5067835E+03 -0.9601899E+00  0.6395898E+05  0.2457535E+01  0.1197415E+04 -0.2502747E+01  0.0000000E+00  0.0000000E+00  0.0000000E+00  0.0000000E+00  0.0000000E+00  0.0000000E+00  0.0000000E+00  0.0000000E+00  0.0000000E+00  0.0000000E+00  0.0000000E+00  0.0000000E+00
  0.2387755E+01  0.5210729E+05  0.2267385E+01  0.2705036E+02 -0.2311176E+01  0.1857715E+06 -0.2862435E+01  0.4871995E+03  0.9775649E+00  0.1344741E+07  0.2005378E+01  0.1736156E+02 -0.2464730E+01  0.2429671E+05  0.2597766E+01  0.1686327E+03  0.7425337E+00  0.1926938E+05  0.3265724E+00  0.4098188E+03 -0.1039071E+01  0.6637915E+05  0.2352740E+01  0.9115726E+03 -0.2551832E+01  0.0000000E+00  0.0000000E+00  0.0000000E+00  0.0000000E+00  0.0000000E+00  0.0000000E+00  0.0000000E+00  0.0000000E+00  0.0000000E+00  0.0000000E+00  0.0000000E+00  0.0000000E+00
  0.2508163E+01  0.4760018E+05  0.2282483E+01  0.2376861E+02 -0.2352448E+01  0.1002127E+06  0.3093796E+01  0.4919030E+03  0.8559308E+00  0.1263958E+07  0.1991701E+01  0.2031298E+02 -0.2418828E+01  0.2327234E+05  0.2433223E+01  0.1383020E+03  0.6762835E+00  0.1454882E+05  0.2432709E-02  0.3588740E+03 -0.1089607E+01  0.6600566E+05  0.2236694E+01  0.6017789E+03 -0.2592346E+01  0.0000000E+00  0.0000000E+00  0.0000000E+00  0.0000000E+00  0.0000000E+00  0.0000000E+00  0.0000000E+00  0.0000000E+00  0.0000000E+00  0.0000000E+00  0.0000000E+00  0.0000000E+00
  0.2628571E+01  0.3976569E+05  0.2288827E+01  0.2050319E+02 -0.2361020E+01  0.5848301E+05  0.1886886E+01  0.5056173E+03  0.6999276E+00  0.1113348E+07  0.1963528E+01  0.2234723E+02 -0.2384308E+01  0.2165801E+05  0.2257320E+01  0.1040758E+03  0.7009999E+00  0.1076198E+05 -0.5036055E+00  0.3289271E+03 -0.1110148E+01  0.6270021E+05  0.2107888E+01  0.2816203E+03 -0.2562007E+01  0.0000000E+00  0.0000000E+00  0.0000000E+00  0.0000000E+00  0.0000000E+00  0.0000000E+00  0.0000000E+00  0.0000000E+00  0.0000000E+00  0.0000000E+00  0.0000000E+00  0.0000000E+00
  0.2748980E+01  0.2897262E+05  0.2280581E+01  0.1756626E+02 -0.2305700E+01  0.1142364E+06  0.1000990E+01  0.5323141E+03  0.5204374E+00  0.8999844E+06  0.1912207E+01  0.2295280E+02 -0.2362840E+01  0.1941786E+05  0.2062592E+01  0.7042387E+02  0.8583863E+00  0.9788321E+04 -0.1218884E+01  0.3543302E+03 -0.1096193E+01  0.5688039E+05  0.1960765E+01  0.7342526E+02 -0.6682104E+00  0.0000000E+00  0.0000000E+00  0.0000000E+00  0.0000000E+00  0.0000000E+00  0.0000000E+00  0.0000000E+00  0.0000000E+00  0.0000000E+00  0.0000000E+00  0.0000000E+00  0.0000000E+00
  0.2869388E+01  0.1606421E+05  0.2230825E+01  0.1522437E+02 -0.2154038E+01  0.1807601E+06  0.7429444E+00  0.5726895E+03  0.3349416E+00  0.6406897E+06  0.1813395E+01  0.2165551E+02 -0.2358058E+01  0.1674042E+05  0.1838902E+01  0.5225772E+02  0.1424031E+01  0.1197701E+05 -0.1827335E+01  0.4191154E+03 -0.1125198E+01  0.4877328E+05  0.1781316E+01  0.3457632E+03 -0.3354923E-02  0.0000000E+00  0.0000000E+00  0.0000000E+00  0.0000000E+00  0.0000000E+00  0.0000000E+00  0.0000000E+00  0.0000000E+00  0.0000000E+00  0.0000000E+00  0.0000000E+00  0.0000000E+00
  0.2989796E+01  0.2894695E+04  0.1584791E+01  0.1428565E+02 -0.1899992E+01  0.2309236E+06  0.6033302E+00  0.6214606E+03  0.1614540E+00  0.3669335E+06  0.1571957E+01  0.1809907E+02 -0.2380317E+01  0.1385357E+05  0.1566985E+01  0.6882024E+02  0.2024325E+01  0.1536595E+05 -0.2228859E+01  0.5119422E+03 -0.1179332E+01  0.3904898E+05  0.1547298E+01  0.6083162E+03 -0.3490583E-01  0.0000000E+00  0.0000000E+00  0.0000000E+00  0.0000000E+00  0.0000000E+00  0.0000000E+00  0.0000000E+00  0.0000000E+00  0.0000000E+00  0.0000000E+00  0.0000000E+00  0.0000000E+00
  0.3110204E+01  0.1129419E+05 -0.6046435E+00  0.1558918E+02 -0.1623496E+01  0.2580469E+06  0.4911887E+00  0.6761351E+03  0.5574240E-02  0.1751125E+06  0.6483365E+00  0.1215319E+02 -0.2469121E+01  0.1100700E+05  0.1212531E+01  0.1027738E+03  0.2205399E+01  0.1917705E+05 -0.2513023E+01  0.6355093E+03 -0.1274622E+01  0.2900472E+05  0.1197293E+01  0.8200003E+03 -0.1226517E+00  0.0000000E+00  0.0000000E+00  0.0000000E+00  0.0000000E+00  0.0000000E+00  0.0000000E+00  0.0000000E+00  0.0000000E+00  0.0000000E+00  0.0000000E+00  0.0000000E+00  0.0000000E+00
  0.3230612E+01  0.2196696E+05 -0.7018791E+00  0.1879947E+02 -0.1406727E+01  0.2604351E+06  0.3791276E+00  0.7211869E+03 -0.1247789E+00  0.2810591E+06 -0.5013623E+00  0.4537943E+01 -0.3001121E+01  0.8813487E+04  0.7256519E+00  0.1402480E+03  0.2194701E+01  0.2197285E+05 -0.2726190E+01  0.7856736E+03 -0.1385348E+01  0.2154096E+05  0.6038326E+00  0.9719759E+03 -0.2378017E+00  0.0000000E+00  0.0000000E+00  0.0000000E+00  0.0000000E+00  0.0000000E+00  0.0000000E+00  0.0000000E+00  0.0000000E+00  0.0000000E+00  0.0000000E+00  0.0000000E+00  0.0000000E+00
  0.3351020E+01  0.2870702E+05 -0.7419559E+00  0.2333084E+02 -0.1264770E+01  0.2403201E+06  0.2506072E+00  0.7369243E+03 -0.2302167E+00  0.4477882E+06 -0.8239818E+00  0.8114517E+01  0.1337019E+01  0.8047734E+04  0.1123858E+00  0.1711038E+03  0.2120609E+01  0.2357961E+05 -0.2909824E+01  0.9264614E+03 -0.1501183E+01  0.2202417E+05 -0.1904227E+00  0.1060062E+04 -0.3533085E+00  0.0000000E+00  0.0000000E+00  0.0000000E+00  0.0000000E+00  0.0000000E+00  0.0000000E+00  0.0000000E+00  0.0000000E+00  0.0000000E+00  0.0000000E+00  0.0000000E+00  0.0000000E+00
  0.3471428E+01  0.3036047E+05 -0.7786371E+00  0.2839929E+02 -0.1180280E+01  0.2038175E+06  0.8876328E-01  0.7222621E+03 -0.3100657E+00  0.5447490E+06 -0.9788385E+00  0.1961473E+02  0.1069402E+01  0.8910000E+04 -0.4706865E+00  0.1959587E+03  0.2008838E+01  0.2476680E+05 -0.3076799E+01  0.1063483E+04 -0.1624446E+01  0.3048350E+05 -0.7604619E+00  0.1068580E+04 -0.4771262E+00  0.0000000E+00  0.0000000E+00  0.0000000E+00  0.0000000E+00  0.0000000E+00  0.0000000E+00  0.0000000E+00  0.0000000E+00  0.0000000E+00  0.0000000E+00  0.0000000E+00  0.0000000E+00
  0.3591837E+01  0.2661051E+05 -0.8299051E+00  0.3345885E+02 -0.1108984E+01  0.1597998E+06 -0.1262288E+00  0.6592388E+03 -0.3672812E+00  0.5502777E+06 -0.1104785E+01  0.3163085E+02  0.9717603E+00  0.1068539E+05 -0.9045727E+00  0.2146570E+03  0.1872966E+01  0.2404479E+05  0.3068198E+01  0.1193525E+04 -0.1738580E+01  0.4155717E+05 -0.1087504E+01  0.1010717E+04 -0.6139575E+00  0.0000000E+00  0.0000000E+00  0.0000000E+00  0.0000000E+00  0.0000000E+00  0.0000000E+00  0.0000000E+00  0.0000000E+00  0.0000000E+00  0.0000000E+00  0.0000000E+00  0.0000000E+00
  0.3712245E+01  0.1817138E+05 -0.9292650E+00  0.3807056E+02 -0.1030183E+01  0.1180830E+06 -0.4156909E+00  0.5377744E+03 -0.3845610E+00  0.4700179E+06 -0.1252934E+01  0.4259143E+02  0.8992989E+00  0.1253281E+05 -0.1215925E+01  0.2186050E+03  0.1745145E+01  0.2125208E+05  0.2948447E+01  0.1278698E+04 -0.1855548E+01  0.5234018E+05 -0.1296897E+01  0.8854477E+03 -0.7326022E+00  0.0000000E+00  0.0000000E+00  0.0000000E+00  0.0000000E+00  0.0000000E+00  0.0000000E+00  0.0000000E+00  0.0000000E+00  0.0000000E+00  0.0000000E+00  0.0000000E+00  0.0000000E+00
  0.3832653E+01  0.7128502E+04 -0.1308349E+01  0.4066286E+02 -0.8823165E+00  0.8532140E+05 -0.7702815E+00  0.3675994E+03 -0.3385843E+00  0.3320443E+06 -0.1493549E+01  0.5074999E+02  0.8331265E+00  0.1390125E+05 -0.1448834E+01  0.2139793E+03  0.1627161E+01  0.1873308E+05  0.2859055E+01  0.1308651E+04 -0.1946638E+01  0.6194469E+05 -0.1441729E+01  0.7060691E+03 -0.8336021E+00  0.0000000E+00  0.0000000E+00  0.0000000E+00  0.0000000E+00  0.0000000E+00  0.0000000E+00  0.0000000E+00  0.0000000E+00  0.0000000E+00  0.0000000E+00  0.0000000E+00  0.0000000E+00
  0.3953061E+01  0.7342755E+04  0.2848033E+01  0.4389827E+02 -0.8157863E+00  0.5988662E+05 -0.1102926E+01  0.1870573E+03  0.1949788E+00  0.1949970E+06 -0.2040225E+01  0.5320041E+02  0.7715762E+00  0.1458972E+05 -0.1622077E+01  0.2031517E+03  0.1511294E+01  0.1570547E+05  0.2837487E+01  0.1296200E+04 -0.2013313E+01  0.6946490E+05 -0.1538530E+01  0.4961174E+03 -0.8923859E+00  0.0000000E+00  0.0000000E+00  0.0000000E+00  0.0000000E+00  0.0000000E+00  0.0000000E+00  0.0000000E+00  0.0000000E+00  0.0000000E+00  0.0000000E+00  0.0000000E+00  0.0000000E+00
  0.4073469E+01  0.1743921E+05  0.2460016E+01  0.4413052E+02 -0.6765401E+00  0.3436561E+05 -0.1245565E+01  0.2135264E+03  0.1419491E+01  0.1676456E+06 -0.3066525E+01  0.4535433E+02  0.7008633E+00  0.1453208E+05 -0.1736601E+01  0.1875489E+03  0.1448484E+01  0.1199138E+05  0.2911070E+01  0.1246885E+04 -0.2065769E+01  0.7506107E+05 -0.1594852E+01  0.2837410E+03 -0.7925469E+00  0.0000000E+00  0.0000000E+00  0.0000000E+00  0.0000000E+00  0.0000000E+00  0.0000000E+00  0.0000000E+00  0.0000000E+00  0.0000000E+00  0.0000000E+00  0.0000000E+00  0.0000000E+00
  0.4193878E+01  0.2429061E+05  0.2287302E+01  0.4339819E+02 -0.5001961E+00  0.1464284E+05 -0.2411008E+00  0.4733909E+03  0.1835111E+01  0.2236693E+06  0.2606361E+01  0.2198020E+02  0.4306127E+00  0.1391642E+05 -0.1785111E+01  0.1625167E+03  0.1453914E+01  0.9406738E+04  0.3120014E+01  0.1184691E+04 -0.2060805E+01  0.7949459E+05 -0.1613526E+01  0.1564185E+03  0.2439309E-02  0.0000000E+00  0.0000000E+00  0.0000000E+00  0.0000000E+00  0.0000000E+00  0.0000000E+00  0.0000000E+00  0.0000000E+00  0.0000000E+00  0.0000000E+00  0.0000000E+00  0.0000000E+00
  0.4314286E+01  0.2688860E+05  0.2100196E+01  0.4124691E+02 -0.2625325E+00  0.4074829E+05  0.6539726E+00  0.7690784E+03  0.1946698E+01  0.2375185E+06  0.2306971E+01  0.2949865E+02 -0.1797929E+01  0.1317512E+05 -0.1749111E+01  0.1402019E+03  0.1486045E+01  0.9654025E+04 -0.2898308E+01  0.1064396E+04 -0.1981271E+01  0.8422627E+05 -0.1596927E+01  0.2588045E+03  0.6789919E+00  0.0000000E+00  0.0000000E+00  0.0000000E+00  0.0000000E+00  0.0000000E+00  0.0000000E+00  0.0000000E+00  0.0000000E+00  0.0000000E+00  0.0000000E+00  0.0000000E+00  0.0000000E+00
  0.4434694E+01  0.2657904E+05  0.1843794E+01  0.3855670E+02  0.1295509E+00  0.7072852E+05  0.6592647E+00  0.9632728E+03  0.1943690E+01  0.1805310E+06  0.2037104E+01  0.9640617E+02 -0.2016131E+01  0.1305217E+05 -0.1630717E+01  0.1415067E+03  0.1566145E+01  0.1137140E+05 -0.2756075E+01  0.9714021E+03 -0.1899609E+01  0.9022131E+05 -0.1557965E+01  0.3806436E+03  0.8062415E+00  0.0000000E+00  0.0000000E+00  0.0000000E+00  0.0000000E+00  0.0000000E+00  0.0000000E+00  0.0000000E+00  0.0000000E+00  0.0000000E+00  0.0000000E+00  0.0000000E+00  0.0000000E+00
  0.4555102E+01  0.2700868E+05  0.1532104E+01  0.5395743E+02  0.9131235E+00  0.8386538E+05  0.5679330E+00  0.1109976E+04  0.1844810E+01  0.8495802E+05  0.1394663E+01  0.1796075E+03 -0.2021562E+01  0.1412272E+05 -0.1494108E+01  0.1589858E+03  0.1666097E+01  0.1271940E+05 -0.2754109E+01  0.9405845E+03 -0.1816814E+01  0.9902713E+05 -0.1517751E+01  0.3813928E+03  0.7781035E+00  0.0000000E+00  0.0000000E+00  0.0000000E+00  0.0000000E+00  0.0000000E+00  0.0000000E+00  0.0000000E+00  0.0000000E+00  0.0000000E+00  0.0000000E+00  0.0000000E+00  0.0000000E+00
  0.4675510E+01  0.2711091E+05 -0.9589249E+00  0.3012697E+03  0.1949315E+01  0.1079298E+06  0.4110014E+00  0.4407561E+04 -0.1333535E+01  0.2697120E+06 -0.1054766E+01  0.2656969E+03 -0.1998226E+01  0.1085245E+05 -0.1388057E+01  0.4233170E+03  0.1965114E+01  0.9551528E+04 -0.2754230E+01  0.2984438E+04 -0.1467810E+01  0.6400578E+05 -0.1537496E+01  0.9156472E+03  0.8656386E+00  0.0000000E+00  0.0000000E+00  0.0000000E+00  0.0000000E+00  0.0000000E+00  0.0000000E+00  0.0000000E+00  0.0000000E+00  0.0000000E+00  0.0000000E+00  0.0000000E+00  0.0000000E+00
  0.4795918E+01  0.2261226E+05  0.9159320E+00  0.4877817E+02 -0.1052160E+01  0.7614662E+05  0.1826911E+00  0.9720953E+03  0.1609970E+01  0.2327750E+06 -0.9111828E+00  0.3370631E+03 -0.1968850E+01  0.1784218E+05 -0.1402511E+01  0.2264419E+03  0.1873754E+01  0.7235596E+04 -0.2977319E+01  0.1505465E+04 -0.1578476E+01  0.1097879E+06 -0.1503585E+01  0.3495839E+03  0.4694337E+00  0.0000000E+00  0.0000000E+00  0.0000000E+00  0.0000000E+00  0.0000000E+00  0.0000000E+00  0.0000000E+00  0.0000000E+00  0.0000000E+00  0.0000000E+00  0.0000000E+00  0.0000000E+00
  0.4916327E+01  0.2360438E+05  0.1010141E+01  0.1861821E+02 -0.1335854E+01  0.4252914E+05 -0.2881595E+00  0.8175192E+03  0.1592468E+01  0.2812409E+06 -0.1102768E+01  0.3748056E+03 -0.1943233E+01  0.2017701E+05 -0.1446610E+01  0.2304258E+03  0.1620404E+01  0.4445097E+04  0.2955507E+01  0.1509969E+04 -0.1630142E+01  0.1187194E+06 -0.1521416E+01  0.1661548E+03  0.2393680E+00  0.0000000E+00  0.0000000E+00  0.0000000E+00  0.0000000E+00  0.0000000E+00  0.0000000E+00  0.0000000E+00  0.0000000E+00  0.0000000E+00  0.0000000E+00  0.0000000E+00  0.0000000E+00
  0.5036735E+01  0.2413986E+05  0.1287994E+01  0.1503938E+02  0.1335516E+01  0.3019986E+05 -0.1654150E+01  0.5377404E+03  0.1298201E+01  0.2614857E+06 -0.1315537E+01  0.3617476E+03 -0.1925866E+01  0.2130246E+05 -0.1510706E+01  0.2450134E+03  0.1504474E+01  0.2424879E+04  0.1772143E+01  0.1512893E+04 -0.1608135E+01  0.1229121E+06 -0.1547656E+01  0.3956999E+02 -0.2185411E+01  0.0000000E+00  0.0000000E+00  0.0000000E+00  0.0000000E+00  0.0000000E+00  0.0000000E+00  0.0000000E+00  0.0000000E+00  0.0000000E+00  0.0000000E+00  0.0000000E+00  0.0000000E+00
  0.5157143E+01  0.2842379E+05  0.1620968E+01  0.8049596E+02  0.1770075E+01  0.5600490E+05 -0.2502265E+01  0.4004576E+03  0.7332050E+00  0.1911540E+06 -0.1640188E+01  0.2895550E+03 -0.1929576E+01  0.2125362E+05 -0.1587435E+01  0.2101609E+03  0.1348739E+01  0.5274843E+04  0.5428358E+00  0.1256958E+04 -0.1646491E+01  0.1237831E+06 -0.1580453E+01  0.2720526E+03 -0.3127572E+01  0.0000000E+00  0.0000000E+00  0.0000000E+00  0.0000000E+00  0.0000000E+00  0.0000000E+00  0.0000000E+00  0.0000000E+00  0.0000000E+00  0.0000000E+00  0.0000000E+00  0.0000000E+00
  0.5277551E+01  0.4151448E+05 -0.1386208E+01  0.3050768E+04  0.1856582E+01  0.7133455E+05 -0.2819515E+01  0.1486007E+04 -0.2649804E+01  0.1258612E+06 -0.2671953E+01  0.1653108E+03 -0.2017481E+01  0.7134169E+04 -0.2956257E+01  0.5644229E+03 -0.9662337E+00  0.8398192E+04  0.2161607E+00  0.5980949E+04  0.1971295E+01  0.5897599E+05  0.2479003E+01  0.4543812E+03  0.2619558E+01  0.0000000E+00  0.0000000E+00  0.0000000E+00  0.0000000E+00  0.0000000E+00  0.0000000E+00  0.0000000E+00  0.0000000E+00  0.0000000E+00  0.0000000E+00  0.0000000E+00  0.0000000E+00
  0.5397959E+01  0.3062287E+05  0.1897668E+01  0.7516769E+02  0.1309240E+01  0.8326869E+05 -0.3096697E+01  0.7318197E+03 -0.4719421E+00  0.1004704E+06  0.3107834E+01  0.4498966E+02  0.3033114E+01  0.1621833E+05 -0.1743914E+01  0.1415735E+03  0.1379613E+01  0.1195657E+05  0.3498903E-01  0.8516644E+03 -0.1382565E+01  0.9765160E+05 -0.1673786E+01  0.5711674E+03  0.2981450E+01  0.0000000E+00  0.0000000E+00  0.0000000E+00  0.0000000E+00  0.0000000E+00  0.0000000E+00  0.0000000E+00  0.0000000E+00  0.0000000E+00  0.0000000E+00  0.0000000E+00  0.0000000E+00
  0.5518367E+01  0.3062911E+05  0.1806882E+01  0.7040194E+02  0.1852092E+01  0.8518892E+05  0.2959788E+01  0.7861329E+03 -0.1181375E+01  0.8765297E+05  0.2526087E+01  0.1575247E+03  0.1790088E+01  0.1391870E+05 -0.1742737E+01  0.1560603E+03  0.1187750E+01  0.1527362E+05 -0.9154741E-01  0.9545516E+03 -0.1287825E+01  0.8904607E+05 -0.1677446E+01  0.6628100E+03  0.2835345E+01  0.0000000E+00  0.0000000E+00  0.0000000E+00  0.0000000E+00  0.0000000E+00  0.0000000E+00  0.0000000E+00  0.0000000E+00  0.0000000E+00  0.0000000E+00  0.0000000E+00  0.0000000E+00
  0.5638775E+01  0.2680313E+05  0.1595607E+01  0.1620840E+03  0.1991330E+01  0.8743759E+05  0.2866274E+01  0.6950994E+03 -0.1459449E+01  0.4084225E+05  0.1882926E+01  0.2589799E+03  0.1760894E+01  0.1150451E+05 -0.1706185E+01  0.1163662E+03  0.9384700E+00  0.1953984E+05 -0.1116507E+00  0.6658493E+03 -0.1015518E+01  0.7713018E+05 -0.1679143E+01  0.7894275E+03  0.2837712E+01  0.0000000E+00  0.0000000E+00  0.0000000E+00  0.0000000E+00  0.0000000E+00  0.0000000E+00  0.0000000E+00  0.0000000E+00  0.0000000E+00  0.0000000E+00  0.0000000E+00  0.0000000E+00
  0.5759184E+01  0.3161198E+05  0.1067871E+01  0.9636914E+03  0.2840514E+01  0.4682259E+06 -0.3086109E+01  0.3990035E+04 -0.2838600E+01  0.3128743E+05 -0.5896420E+00  0.2873182E+03  0.1889942E+01  0.1635309E+05 -0.2293453E+01  0.2340811E+03  0.1962547E+01  0.1529325E+06  0.1246419E+00  0.3127711E+04 -0.1659650E+00  0.1070362E+06 -0.2264340E+01  0.4008765E+04 -0.3026683E+01  0.0000000E+00  0.0000000E+00  0.0000000E+00  0.0000000E+00  0.0000000E+00  0.0000000E+00  0.0000000E+00  0.0000000E+00  0.0000000E+00  0.0000000E+00  0.0000000E+00  0.0000000E+00
  0.5879592E+01  0.1493054E+05  0.7222571E+00  0.1798400E+03  0.1761826E+01  0.6163379E+05  0.3134753E+01  0.5097016E+03 -0.1075760E+01  0.1075477E+06 -0.8026397E+00  0.2545410E+03  0.2254882E+01  0.6104747E+04 -0.1594225E+01  0.3240560E+02  0.1121961E+01  0.1263046E+05 -0.3232298E-02  0.5896060E+03 -0.3539969E+00  0.3838577E+05 -0.1729170E+01  0.5808023E+03  0.3032061E+01  0.0000000E+00  0.0000000E+00  0.0000000E+00  0.0000000E+00  0.0000000E+00  0.0000000E+00  0.0000000E+00  0.0000000E+00  0.0000000E+00  0.0000000E+00  0.0000000E+00  0.0000000E+00
  0.6000000E+01  0.1035925E+05  0.5358004E+00  0.3891024E+03  0.2653695E+01  0.9542403E+05 -0.3022069E+01  0.6827664E+03 -0.2698853E+01  0.1176181E+06 -0.1089832E+01  0.2361347E+03  0.2937097E+01  0.4563955E+04 -0.1756763E+01  0.1854368E+03 -0.2336736E-01  0.1657851E+05  0.3988518E-01  0.4977878E+03 -0.2938574E+01  0.2578963E+05 -0.1925527E+01  0.7931791E+03 -0.3122749E+01  0.0000000E+00  0.0000000E+00  0.0000000E+00  0.0000000E+00  0.0000000E+00  0.0000000E+00  0.0000000E+00  0.0000000E+00  0.0000000E+00  0.0000000E+00  0.0000000E+00  0.0000000E+00
