VARIABLES="w (rad/s)"
"abs(F   1   1)" "angle(F   1   1)"
"abs(F   1   2)" "angle(F   1   2)"
"abs(F   1   3)" "angle(F   1   3)"
"abs(F   1   4)" "angle(F   1   4)"
"abs(F   1   5)" "angle(F   1   5)"
"abs(F   1   6)" "angle(F   1   6)"
"abs(F   2   7)" "angle(F   2   7)"
"abs(F   2   8)" "angle(F   2   8)"
"abs(F   2   9)" "angle(F   2   9)"
"abs(F   2  10)" "angle(F   2  10)"
"abs(F   2  11)" "angle(F   2  11)"
"abs(F   2  12)" "angle(F   2  12)"
"abs(F   3  13)" "angle(F   3  13)"
"abs(F   3  14)" "angle(F   3  14)"
"abs(F   3  15)" "angle(F   3  15)"
"abs(F   3  16)" "angle(F   3  16)"
"abs(F   3  17)" "angle(F   3  17)"
"abs(F   3  18)" "angle(F   3  18)"
Zone t="FKforce - beta =   0.000",I=    50,F=POINT
  0.1000000E+00  0.3246280E+03 -0.1570885E+01  0.1362699E-01  0.3130146E+01  0.8851904E+06  0.5267716E-08  0.1054568E+02 -0.1169583E+00  0.7079096E+04 -0.1571504E+01  0.4418260E+00 -0.5906843E-02  0.3760448E+04 -0.4416553E+00  0.5607922E+03 -0.3140049E+01  0.4848008E+04  0.2339143E-03  0.1388882E+04  0.3138618E+01  0.1974330E+05  0.3132236E+00  0.4528690E+04  0.5282869E-03  0.0000000E+00  0.0000000E+00  0.0000000E+00  0.0000000E+00  0.0000000E+00  0.0000000E+00  0.0000000E+00  0.0000000E+00  0.0000000E+00  0.0000000E+00  0.0000000E+00  0.0000000E+00
  0.2204082E+00  0.1575644E+04 -0.1570808E+01  0.1539765E-01  0.3094882E+01  0.8838572E+06  0.2643718E-07  0.1215243E+02 -0.5138569E+00  0.3434864E+05 -0.1570946E+01  0.4472411E+00 -0.2833731E-01  0.8181422E+04 -0.1146157E+01  0.5578964E+03 -0.3134201E+01  0.9999165E+03  0.3136372E+01  0.1356354E+04  0.3126914E+01  0.3330552E+05  0.9758313E+00  0.4496506E+04  0.2579368E-02  0.0000000E+00  0.0000000E+00  0.0000000E+00  0.0000000E+00  0.0000000E+00  0.0000000E+00  0.0000000E+00  0.0000000E+00  0.0000000E+00  0.0000000E+00  0.0000000E+00  0.0000000E+00
  0.3408163E+00  0.3760695E+04 -0.1570806E+01  0.1437977E-01  0.3016257E+01  0.8812663E+06  0.6212620E-07  0.1760546E+02 -0.9442310E+00  0.8194036E+05 -0.1570860E+01  0.4744165E+00 -0.6391595E-01  0.1678009E+05 -0.1371532E+01  0.5528237E+03 -0.3124343E+01  0.9992864E+04  0.3140461E+01  0.1301650E+04  0.3105573E+01  0.6122920E+05  0.1264377E+01  0.4438151E+04  0.6222703E-02  0.0000000E+00  0.0000000E+00  0.0000000E+00  0.0000000E+00  0.0000000E+00  0.0000000E+00  0.0000000E+00  0.0000000E+00  0.0000000E+00  0.0000000E+00  0.0000000E+00  0.0000000E+00
  0.4612245E+00  0.6866188E+04 -0.1570801E+01  0.1607551E-01  0.2953789E+01  0.8770048E+06  0.1172040E-06  0.2800088E+02 -0.1194825E+01  0.1495128E+06 -0.1570831E+01  0.5516097E+00 -0.1009496E+00  0.2709942E+05 -0.1450408E+01  0.5456885E+03 -0.3111045E+01  0.2044494E+05  0.3140723E+01  0.1228347E+04  0.3073384E+01  0.9139659E+05  0.1370336E+01  0.4350998E+04  0.1154609E-01  0.0000000E+00  0.0000000E+00  0.0000000E+00  0.0000000E+00  0.0000000E+00  0.0000000E+00  0.0000000E+00  0.0000000E+00  0.0000000E+00  0.0000000E+00  0.0000000E+00  0.0000000E+00
  0.5816327E+00  0.1086542E+05 -0.1570800E+01  0.5885392E-02  0.1134481E+01  0.8704898E+06  0.1868358E-06  0.4245341E+02 -0.1331613E+01  0.2364573E+06 -0.1570818E+01  0.7184450E+00 -0.1240844E+00  0.3719237E+05 -0.1485384E+01  0.5365162E+03 -0.3095001E+01  0.3059016E+05  0.3140853E+01  0.1140870E+04  0.3028867E+01  0.1139401E+06  0.1413357E+01  0.4232521E+04  0.1868531E-01  0.0000000E+00  0.0000000E+00  0.0000000E+00  0.0000000E+00  0.0000000E+00  0.0000000E+00  0.0000000E+00  0.0000000E+00  0.0000000E+00  0.0000000E+00  0.0000000E+00  0.0000000E+00
  0.7020409E+00  0.1571114E+05 -0.1570799E+01  0.1186366E-01  0.6667187E+00  0.8609858E+06  0.2783269E-06  0.6050290E+02 -0.1408892E+01  0.3417741E+06 -0.1570812E+01  0.1024230E+01 -0.1283237E+00  0.4557474E+05 -0.1503174E+01  0.5253450E+03 -0.3076944E+01  0.3898799E+05  0.3140986E+01  0.1044778E+04  0.2970634E+01  0.1226430E+06  0.1427798E+01  0.4081175E+04  0.2783675E-01  0.0000000E+00  0.0000000E+00  0.0000000E+00  0.0000000E+00  0.0000000E+00  0.0000000E+00  0.0000000E+00  0.0000000E+00  0.0000000E+00  0.0000000E+00  0.0000000E+00  0.0000000E+00
  0.8224490E+00  0.2132622E+05 -0.1570799E+01  0.3050932E-01  0.3488852E+00  0.8476211E+06  0.3895296E-06  0.8175691E+02 -0.1456415E+01  0.4639194E+06 -0.1570808E+01  0.1527465E+01 -0.1205792E+00  0.5136729E+05 -0.1512781E+01  0.5121630E+03 -0.3057569E+01  0.4477245E+05  0.3141173E+01  0.9457592E+03  0.2897751E+01  0.1155787E+06  0.1422746E+01  0.3896980E+04  0.3927692E-01  0.0000000E+00  0.0000000E+00  0.0000000E+00  0.0000000E+00  0.0000000E+00  0.0000000E+00  0.0000000E+00  0.0000000E+00  0.0000000E+00  0.0000000E+00  0.0000000E+00  0.0000000E+00
  0.9428571E+00  0.2759313E+05 -0.1570798E+01  0.5533131E-01  0.2159091E+00  0.8294269E+06  0.5417738E-06  0.1057607E+03 -0.1487078E+01  0.6006336E+06 -0.1570805E+01  0.2293167E+01 -0.1090288E+00  0.5432093E+05 -0.1517888E+01  0.4970200E+03 -0.3037509E+01  0.4769916E+05  0.3141461E+01  0.8490538E+03  0.2810264E+01  0.9484501E+05  0.1395014E+01  0.3681880E+04  0.5338804E-01  0.0000000E+00  0.0000000E+00  0.0000000E+00  0.0000000E+00  0.0000000E+00  0.0000000E+00  0.0000000E+00  0.0000000E+00  0.0000000E+00  0.0000000E+00  0.0000000E+00  0.0000000E+00
  0.1063265E+01  0.3434295E+05 -0.1570798E+01  0.8897550E-01  0.1669742E+00  0.8053768E+06  0.7059525E-06  0.1319890E+03 -0.1509777E+01  0.7487622E+06 -0.1570804E+01  0.3387496E+01 -0.9835953E-01  0.5469006E+05 -0.1520216E+01  0.4798347E+03 -0.3017274E+01  0.4802409E+05 -0.3141283E+01  0.7593179E+03  0.2709962E+01  0.6534923E+05  0.1321928E+01  0.3439723E+04  0.7069089E-01  0.0000000E+00  0.0000000E+00  0.0000000E+00  0.0000000E+00  0.0000000E+00  0.0000000E+00  0.0000000E+00  0.0000000E+00  0.0000000E+00  0.0000000E+00  0.0000000E+00  0.0000000E+00
  0.1183674E+01  0.4134524E+05 -0.1570798E+01  0.1277483E+00  0.1322553E+00  0.7744534E+06  0.9152278E-06  0.1597309E+03 -0.1526463E+01  0.9040916E+06 -0.1570803E+01  0.4870823E+01 -0.9023669E-01  0.5302306E+05 -0.1520659E+01  0.4606954E+03 -0.2997292E+01  0.4629659E+05 -0.3140620E+01  0.6788525E+03  0.2600320E+01  0.3363771E+05  0.1089203E+01  0.3175961E+04  0.9189102E-01  0.0000000E+00  0.0000000E+00  0.0000000E+00  0.0000000E+00  0.0000000E+00  0.0000000E+00  0.0000000E+00  0.0000000E+00  0.0000000E+00  0.0000000E+00  0.0000000E+00  0.0000000E+00
  0.1304082E+01  0.4830050E+05 -0.1570797E+01  0.1895213E+00  0.7872416E-01  0.7357289E+06  0.1210996E-05  0.1880515E+03 -0.1539555E+01  0.1061229E+07 -0.1570802E+01  0.6789026E+01 -0.8500756E-01  0.4995658E+05 -0.1519721E+01  0.4396053E+03 -0.2977850E+01  0.4315388E+05 -0.3139655E+01  0.6089523E+03  0.2487434E+01  0.1520145E+05 -0.1458388E+00  0.2897217E+04  0.1179284E+00  0.0000000E+00  0.0000000E+00  0.0000000E+00  0.0000000E+00  0.0000000E+00  0.0000000E+00  0.0000000E+00  0.0000000E+00  0.0000000E+00  0.0000000E+00  0.0000000E+00  0.0000000E+00
  0.1424490E+01  0.5483750E+05 -0.1570797E+01  0.2613965E+00  0.4938085E-01  0.6884679E+06  0.1599643E-05  0.2158377E+03 -0.1550362E+01  0.1213546E+07 -0.1570802E+01  0.9160725E+01 -0.8257443E-01  0.4606871E+05 -0.1517711E+01  0.4166652E+03 -0.2959121E+01  0.3917494E+05 -0.3138295E+01  0.5488299E+03  0.2378719E+01  0.3271635E+05 -0.1112636E+01  0.2610889E+04  0.1500429E+00  0.0000000E+00  0.0000000E+00  0.0000000E+00  0.0000000E+00  0.0000000E+00  0.0000000E+00  0.0000000E+00  0.0000000E+00  0.0000000E+00  0.0000000E+00  0.0000000E+00  0.0000000E+00
  0.1544898E+01  0.6051826E+05 -0.1570796E+01  0.3530235E+00  0.8050399E-02  0.6322393E+06  0.2145969E-05  0.2417347E+03 -0.1560697E+01  0.1353251E+07 -0.1570802E+01  0.1196480E+02 -0.8276321E-01  0.4180944E+05 -0.1514837E+01  0.3920435E+03 -0.2941145E+01  0.3481107E+05 -0.3136435E+01  0.4968202E+03  0.2282499E+01  0.5190635E+05 -0.1300381E+01  0.2324741E+04  0.1898307E+00  0.0000000E+00  0.0000000E+00  0.0000000E+00  0.0000000E+00  0.0000000E+00  0.0000000E+00  0.0000000E+00  0.0000000E+00  0.0000000E+00  0.0000000E+00  0.0000000E+00  0.0000000E+00
  0.1665306E+01  0.6485318E+05 -0.1570795E+01  0.4540223E+00 -0.2816724E-01  0.5670486E+06  0.2829523E-05  0.2641516E+03 -0.1570242E+01  0.1471608E+07 -0.1570801E+01  0.1512523E+02 -0.8550329E-01  0.3749237E+05 -0.1511256E+01  0.3659848E+03 -0.2923829E+01  0.3037757E+05 -0.3133959E+01  0.4507961E+03  0.2206104E+01  0.6552197E+05 -0.1367645E+01  0.2046587E+04  0.2392868E+00  0.0000000E+00  0.0000000E+00  0.0000000E+00  0.0000000E+00  0.0000000E+00  0.0000000E+00  0.0000000E+00  0.0000000E+00  0.0000000E+00  0.0000000E+00  0.0000000E+00  0.0000000E+00
  0.1785714E+01  0.6732897E+05 -0.1570794E+01  0.5782514E+00 -0.7348692E-01  0.4934632E+06  0.3868523E-05  0.2814022E+03 -0.1580284E+01  0.1559343E+07 -0.1570801E+01  0.1849766E+02 -0.9093237E-01  0.3331932E+05 -0.1507115E+01  0.3387855E+03 -0.2906930E+01  0.2607870E+05 -0.3130738E+01  0.4092833E+03  0.2155889E+01  0.7374885E+05 -0.1400144E+01  0.1784013E+04  0.3007653E+00  0.0000000E+00  0.0000000E+00  0.0000000E+00  0.0000000E+00  0.0000000E+00  0.0000000E+00  0.0000000E+00  0.0000000E+00  0.0000000E+00  0.0000000E+00  0.0000000E+00  0.0000000E+00
  0.1906122E+01  0.6745147E+05 -0.1570793E+01  0.7190835E+00 -0.1229693E+00  0.4127209E+06  0.5361027E-05  0.2917156E+03 -0.1591342E+01  0.1607278E+07 -0.1570801E+01  0.2185991E+02 -0.9942707E-01  0.2941338E+05 -0.1502585E+01  0.3108405E+03 -0.2890085E+01  0.2204073E+05 -0.3126627E+01  0.3718705E+03  0.2136906E+01  0.7769433E+05 -0.1418651E+01  0.1544076E+04  0.3767492E+00  0.0000000E+00  0.0000000E+00  0.0000000E+00  0.0000000E+00  0.0000000E+00  0.0000000E+00  0.0000000E+00  0.0000000E+00  0.0000000E+00  0.0000000E+00  0.0000000E+00  0.0000000E+00
  0.2026531E+01  0.6480224E+05 -0.1570790E+01  0.8896766E+00 -0.1809398E+00  0.3268081E+06  0.7655003E-05  0.2934190E+03 -0.1604498E+01  0.1607177E+07 -0.1570800E+01  0.2490849E+02 -0.1117288E+00  0.2584580E+05 -0.1497893E+01  0.2825852E+03 -0.2872819E+01  0.1833868E+05 -0.3121460E+01  0.3392135E+03  0.2152054E+01  0.7857809E+05 -0.1430737E+01  0.1332899E+04  0.4692491E+00  0.0000000E+00  0.0000000E+00  0.0000000E+00  0.0000000E+00  0.0000000E+00  0.0000000E+00  0.0000000E+00  0.0000000E+00  0.0000000E+00  0.0000000E+00  0.0000000E+00  0.0000000E+00
  0.2146939E+01  0.5910701E+05 -0.1570786E+01  0.1073613E+01 -0.2506879E+00  0.2384694E+06  0.1157689E-04  0.2850390E+03 -0.1621044E+01  0.1552793E+07 -0.1570800E+01  0.2726837E+02 -0.1291841E+00  0.2265334E+05 -0.1493345E+01  0.2544757E+03 -0.2854549E+01  0.1501334E+05 -0.3115041E+01  0.3128120E+03  0.2200752E+01  0.7745990E+05 -0.1439919E+01  0.1155018E+04  0.5786635E+00  0.0000000E+00  0.0000000E+00  0.0000000E+00  0.0000000E+00  0.0000000E+00  0.0000000E+00  0.0000000E+00  0.0000000E+00  0.0000000E+00  0.0000000E+00  0.0000000E+00  0.0000000E+00
  0.2267347E+01  0.5030908E+05 -0.1570780E+01  0.1279646E+01 -0.3363383E+00  0.1511434E+06  0.1944084E-04  0.2656375E+03 -0.1643644E+01  0.1440993E+07 -0.1570798E+01  0.2851828E+02 -0.1542027E+00  0.1984825E+05 -0.1489334E+01  0.2269862E+03 -0.2834661E+01  0.1208119E+05 -0.3107142E+01  0.2943694E+03  0.2277131E+01  0.7516132E+05 -0.1448103E+01  0.1012533E+04  0.7022105E+00  0.0000000E+00  0.0000000E+00  0.0000000E+00  0.0000000E+00  0.0000000E+00  0.0000000E+00  0.0000000E+00  0.0000000E+00  0.0000000E+00  0.0000000E+00  0.0000000E+00  0.0000000E+00
  0.2387755E+01  0.3863750E+05 -0.1570768E+01  0.1497287E+01 -0.4333946E+00  0.6878116E+05  0.4229173E-04  0.2350202E+03 -0.1676277E+01  0.1272891E+07 -0.1570796E+01  0.2823898E+02 -0.1913439E+00  0.1742450E+05 -0.1486327E+01  0.2005583E+03 -0.2812505E+01  0.9540144E+04 -0.3097472E+01  0.2847200E+03  0.2368573E+01  0.7227935E+05 -0.1456411E+01  0.9041926E+03  0.8328450E+00  0.0000000E+00  0.0000000E+00  0.0000000E+00  0.0000000E+00  0.0000000E+00  0.0000000E+00  0.0000000E+00  0.0000000E+00  0.0000000E+00  0.0000000E+00  0.0000000E+00  0.0000000E+00
  0.2508163E+01  0.2465500E+05 -0.1570740E+01  0.1730097E+01 -0.5487726E+00  0.4443199E+04  0.3140990E+01  0.1938617E+03 -0.1728057E+01  0.1054744E+07 -0.1570791E+01  0.2608997E+02 -0.2500665E+00  0.1536293E+05 -0.1484823E+01  0.1755903E+03 -0.2787505E+01  0.7374484E+04 -0.3085643E+01  0.2831442E+03  0.2458986E+01  0.6923079E+05 -0.1465498E+01  0.8251232E+03  0.9601298E+00  0.0000000E+00  0.0000000E+00  0.0000000E+00  0.0000000E+00  0.0000000E+00  0.0000000E+00  0.0000000E+00  0.0000000E+00  0.0000000E+00  0.0000000E+00  0.0000000E+00  0.0000000E+00
  0.2628571E+01  0.9270204E+04 -0.1570619E+01  0.1977328E+01 -0.6822387E+00  0.6453832E+05  0.3141561E+01  0.1443906E+03 -0.1821773E+01  0.7984144E+06 -0.1570781E+01  0.2193953E+02 -0.3531072E+00  0.1363565E+05 -0.1485284E+01  0.1524018E+03 -0.2759181E+01  0.5558999E+04 -0.3071085E+01  0.2874507E+03  0.2534981E+01  0.6629712E+05 -0.1475671E+01  0.7677666E+03  0.1073330E+01  0.0000000E+00  0.0000000E+00  0.0000000E+00  0.0000000E+00  0.0000000E+00  0.0000000E+00  0.0000000E+00  0.0000000E+00  0.0000000E+00  0.0000000E+00  0.0000000E+00  0.0000000E+00
  0.2748980E+01  0.6304073E+04  0.1570504E+01  0.2238064E+01 -0.8374361E+00  0.1081844E+06  0.3141584E+01  0.9132573E+02 -0.2033472E+01  0.5211582E+06 -0.1570759E+01  0.1614967E+02 -0.5673331E+00  0.1220995E+05 -0.1488052E+01  0.1312180E+03 -0.2727249E+01  0.4062898E+04 -0.3052871E+01  0.2946588E+03  0.2589498E+01  0.6365896E+05 -0.1486946E+01  0.7238099E+03  0.1164768E+01  0.0000000E+00  0.0000000E+00  0.0000000E+00  0.0000000E+00  0.0000000E+00  0.0000000E+00  0.0000000E+00  0.0000000E+00  0.0000000E+00  0.0000000E+00  0.0000000E+00  0.0000000E+00
  0.2869388E+01  0.2065646E+05  0.1570705E+01  0.2523704E+01 -0.1012328E+01  0.1332498E+06 -0.3141587E+01  0.4903730E+02 -0.2698453E+01  0.2445363E+06 -0.1570684E+01  0.1069131E+02 -0.1116750E+01  0.1105144E+05 -0.1493253E+01  0.1121815E+03 -0.2691798E+01  0.2852870E+04 -0.3029332E+01  0.3019559E+03  0.2621671E+01  0.6142018E+05 -0.1499081E+01  0.6860862E+03  0.1231137E+01  0.0000000E+00  0.0000000E+00  0.0000000E+00  0.0000000E+00  0.0000000E+00  0.0000000E+00  0.0000000E+00  0.0000000E+00  0.0000000E+00  0.0000000E+00  0.0000000E+00  0.0000000E+00
  0.2989796E+01  0.3235015E+05  0.1570743E+01  0.2835216E+01 -0.1205187E+01  0.1392554E+06 -0.3141571E+01  0.5876452E+02  0.2462801E+01  0.7640306E+04  0.1566119E+01  0.1157619E+02 -0.2062239E+01  0.1012584E+05 -0.1500739E+01  0.9532434E+02 -0.2653310E+01  0.1895132E+04 -0.2997062E+01  0.3070901E+03  0.2633917E+01  0.5962473E+05 -0.1511638E+01  0.6495612E+03  0.1272670E+01  0.0000000E+00  0.0000000E+00  0.0000000E+00  0.0000000E+00  0.0000000E+00  0.0000000E+00  0.0000000E+00  0.0000000E+00  0.0000000E+00  0.0000000E+00  0.0000000E+00  0.0000000E+00
  0.3110204E+01  0.4014868E+05  0.1570765E+01  0.3185528E+01 -0.1415042E+01  0.1276866E+06 -0.3141546E+01  0.9656257E+02  0.2043982E+01  0.2122402E+06  0.1570594E+01  0.1865895E+02 -0.2559767E+01  0.9400104E+04 -0.1510073E+01  0.8058988E+02 -0.2612824E+01  0.1156906E+04 -0.2947786E+01  0.3085791E+03  0.2629904E+01  0.5826976E+05 -0.1524061E+01  0.6114084E+03  0.1291618E+01  0.0000000E+00  0.0000000E+00  0.0000000E+00  0.0000000E+00  0.0000000E+00  0.0000000E+00  0.0000000E+00  0.0000000E+00  0.0000000E+00  0.0000000E+00  0.0000000E+00  0.0000000E+00
  0.3230612E+01  0.4326326E+05  0.1570788E+01  0.3573390E+01 -0.1636077E+01  0.1020487E+06 -0.3141500E+01  0.1252911E+03  0.1879663E+01  0.3503398E+06  0.1570659E+01  0.2571832E+02 -0.2763913E+01  0.8842818E+04 -0.1520581E+01  0.6784836E+02 -0.2571962E+01  0.6076342E+03 -0.2854743E+01  0.3056026E+03  0.2613238E+01  0.5731696E+05 -0.1535785E+01  0.5705355E+03  0.1291034E+01  0.0000000E+00  0.0000000E+00  0.0000000E+00  0.0000000E+00  0.0000000E+00  0.0000000E+00  0.0000000E+00  0.0000000E+00  0.0000000E+00  0.0000000E+00  0.0000000E+00  0.0000000E+00
  0.3351020E+01  0.4157038E+05  0.1570819E+01  0.3991065E+01 -0.1866350E+01  0.6758665E+05 -0.3141395E+01  0.1330520E+03  0.1774499E+01  0.4107687E+06  0.1570675E+01  0.2913551E+02 -0.2877995E+01  0.8424367E+04 -0.1531469E+01  0.5690978E+02 -0.2532849E+01  0.2245540E+03 -0.2563001E+01  0.2978888E+03  0.2587039E+01  0.5670295E+05 -0.1546324E+01  0.5270007E+03  0.1274113E+01  0.0000000E+00  0.0000000E+00  0.0000000E+00  0.0000000E+00  0.0000000E+00  0.0000000E+00  0.0000000E+00  0.0000000E+00  0.0000000E+00  0.0000000E+00  0.0000000E+00  0.0000000E+00
  0.3471428E+01  0.3573836E+05  0.1570871E+01  0.4413175E+01 -0.2103832E+01  0.3063671E+05 -0.3141031E+01  0.1129861E+03  0.1657961E+01  0.3929598E+06  0.1570677E+01  0.2594408E+02 -0.2976728E+01  0.8117033E+04 -0.1541959E+01  0.4756555E+02 -0.2498112E+01  0.1095710E+03 -0.7871199E+00  0.2855689E+03  0.2553864E+01  0.5634882E+05 -0.1555339E+01  0.4814872E+03  0.1243930E+01  0.0000000E+00  0.0000000E+00  0.0000000E+00  0.0000000E+00  0.0000000E+00  0.0000000E+00  0.0000000E+00  0.0000000E+00  0.0000000E+00  0.0000000E+00  0.0000000E+00  0.0000000E+00
  0.3591837E+01  0.2720192E+05  0.1570971E+01  0.4807905E+01 -0.2354079E+01  0.2338362E+04 -0.8824828E-02  0.6282839E+02  0.1355358E+01  0.3082651E+06  0.1570673E+01  0.1349600E+02  0.3081934E+01  0.7895164E+04 -0.1551418E+01  0.3959908E+02 -0.2470593E+01  0.2423628E+03 -0.1576220E+00  0.2690954E+03  0.2515804E+01  0.5616881E+05 -0.1562663E+01  0.4349273E+03  0.1203351E+01  0.0000000E+00  0.0000000E+00  0.0000000E+00  0.0000000E+00  0.0000000E+00  0.0000000E+00  0.0000000E+00  0.0000000E+00  0.0000000E+00  0.0000000E+00  0.0000000E+00  0.0000000E+00
  0.3712245E+01  0.1794839E+05  0.1571184E+01  0.5144878E+01 -0.2625385E+01  0.2588992E+05 -0.8884781E-03  0.4955993E+02 -0.5463164E+00  0.1790575E+06  0.1570671E+01  0.1335781E+02  0.6225628E+00  0.7735471E+04 -0.1559425E+01  0.3281237E+02 -0.2453197E+01  0.3218836E+03 -0.1622047E-01  0.2490838E+03  0.2474446E+01  0.5607782E+05 -0.1568285E+01  0.3882692E+03  0.1155019E+01  0.0000000E+00  0.0000000E+00  0.0000000E+00  0.0000000E+00  0.0000000E+00  0.0000000E+00  0.0000000E+00  0.0000000E+00  0.0000000E+00  0.0000000E+00  0.0000000E+00  0.0000000E+00
  0.3832653E+01  0.1011933E+05  0.1571681E+01  0.5438437E+01 -0.2931158E+01  0.3667280E+05 -0.6450235E-03  0.1659432E+03 -0.1099189E+01  0.3529286E+05  0.1570781E+01  0.5204005E+02  0.3268026E+00  0.7617301E+04 -0.1565788E+01  0.2704166E+02 -0.2448874E+01  0.3466233E+03  0.5858824E-01  0.2263275E+03  0.2431129E+01  0.5599714E+05 -0.1572321E+01  0.3423631E+03  0.1101345E+01  0.0000000E+00  0.0000000E+00  0.0000000E+00  0.0000000E+00  0.0000000E+00  0.0000000E+00  0.0000000E+00  0.0000000E+00  0.0000000E+00  0.0000000E+00  0.0000000E+00  0.0000000E+00
  0.3953061E+01  0.5494974E+04  0.1572669E+01  0.5782705E+01  0.3001093E+01  0.3420062E+05 -0.6411316E-03  0.3190826E+03 -0.1218698E+01  0.9117438E+05 -0.1571088E+01  0.1059289E+03  0.2604114E+00  0.7522921E+04 -0.1570511E+01  0.2215133E+02 -0.2460440E+01  0.3325589E+03  0.1159777E+00  0.2016607E+03  0.2386920E+01  0.5585889E+05 -0.1574968E+01  0.2979292E+03  0.1044488E+01  0.0000000E+00  0.0000000E+00  0.0000000E+00  0.0000000E+00  0.0000000E+00  0.0000000E+00  0.0000000E+00  0.0000000E+00  0.0000000E+00  0.0000000E+00  0.0000000E+00  0.0000000E+00
  0.4073469E+01  0.4984672E+04  0.1572896E+01  0.6386678E+01  0.2612774E+01  0.2101487E+05 -0.8257153E-03  0.4911937E+03 -0.1276523E+01  0.1735263E+06 -0.1571122E+01  0.1728433E+03  0.2265338E+00  0.7437685E+04 -0.1573738E+01  0.1804056E+02 -0.2490684E+01  0.2943645E+03  0.1699220E+00  0.1759489E+03  0.2342666E+01  0.5560884E+05 -0.1576469E+01  0.2555680E+03  0.9863402E+00  0.0000000E+00  0.0000000E+00  0.0000000E+00  0.0000000E+00  0.0000000E+00  0.0000000E+00  0.0000000E+00  0.0000000E+00  0.0000000E+00  0.0000000E+00  0.0000000E+00  0.0000000E+00
  0.4193878E+01  0.8287243E+04  0.1571881E+01  0.7470039E+01  0.2224965E+01  0.2111509E+04 -0.4615386E-02  0.6646481E+03 -0.1314943E+01  0.1965189E+06 -0.1571230E+01  0.2480297E+03  0.2037860E+00  0.7350072E+04 -0.1575695E+01  0.1462755E+02 -0.2542186E+01  0.2440140E+03  0.2273084E+00  0.1500148E+03  0.2299017E+01  0.5520748E+05 -0.1577077E+01  0.2157846E+03  0.9285316E+00  0.0000000E+00  0.0000000E+00  0.0000000E+00  0.0000000E+00  0.0000000E+00  0.0000000E+00  0.0000000E+00  0.0000000E+00  0.0000000E+00  0.0000000E+00  0.0000000E+00  0.0000000E+00
  0.4314286E+01  0.1387450E+05  0.1571194E+01  0.9083661E+01  0.1882597E+01  0.1633304E+05  0.3141551E+01  0.8170660E+03 -0.1345750E+01  0.1606774E+06 -0.1571471E+01  0.3232196E+03  0.1859747E+00  0.7251591E+04 -0.1576646E+01  0.1184371E+02 -0.2617116E+01  0.1906039E+03  0.2936815E+00  0.1246117E+03  0.2256455E+01  0.5462986E+05 -0.1577035E+01  0.1790077E+03  0.8724648E+00  0.0000000E+00  0.0000000E+00  0.0000000E+00  0.0000000E+00  0.0000000E+00  0.0000000E+00  0.0000000E+00  0.0000000E+00  0.0000000E+00  0.0000000E+00  0.0000000E+00  0.0000000E+00
  0.4434694E+01  0.1937852E+05  0.1570795E+01  0.1100225E+02  0.1600298E+01  0.2866944E+05  0.3141136E+01  0.9229865E+03 -0.1374045E+01  0.8248953E+05 -0.1572261E+01  0.3866376E+03  0.1702606E+00  0.7136568E+04 -0.1576851E+01  0.9627534E+01 -0.2716485E+01  0.1404925E+03  0.3755191E+00  0.1004107E+03  0.2215286E+01  0.5386450E+05 -0.1576562E+01  0.1455912E+03  0.8193814E+00  0.0000000E+00  0.0000000E+00  0.0000000E+00  0.0000000E+00  0.0000000E+00  0.0000000E+00  0.0000000E+00  0.0000000E+00  0.0000000E+00  0.0000000E+00  0.0000000E+00  0.0000000E+00
  0.4555102E+01  0.2233205E+05  0.1570472E+01  0.1279986E+02  0.1367862E+01  0.3144466E+05  0.3140764E+01  0.9574680E+03 -0.1403373E+01  0.1012128E+05  0.1582472E+01  0.4240519E+03  0.1546020E+00  0.7001757E+04 -0.1576551E+01  0.7914019E+01 -0.2839027E+01  0.9760236E+02  0.4821059E+00  0.7794929E+02  0.2175456E+01  0.5291105E+05 -0.1575843E+01  0.1158041E+03  0.7705009E+00  0.0000000E+00  0.0000000E+00  0.0000000E+00  0.0000000E+00  0.0000000E+00  0.0000000E+00  0.0000000E+00  0.0000000E+00  0.0000000E+00  0.0000000E+00  0.0000000E+00  0.0000000E+00
  0.4675510E+01  0.2105776E+05  0.1570068E+01  0.1395538E+02  0.1163859E+01  0.2448083E+05  0.3140049E+01  0.9017550E+03 -0.1438200E+01  0.8626203E+05  0.1571930E+01  0.4212086E+03  0.1364487E+00  0.6845958E+04 -0.1575951E+01  0.6631289E+01 -0.2979893E+01  0.6382322E+02  0.6278204E+00  0.5763953E+02  0.2136348E+01  0.5177802E+05 -0.1575030E+01  0.8981245E+02  0.7272066E+00  0.0000000E+00  0.0000000E+00  0.0000000E+00  0.0000000E+00  0.0000000E+00  0.0000000E+00  0.0000000E+00  0.0000000E+00  0.0000000E+00  0.0000000E+00  0.0000000E+00  0.0000000E+00
  0.4795918E+01  0.1538306E+05  0.1569305E+01  0.1399430E+02  0.9617237E+00  0.1091816E+05  0.3137370E+01  0.7497043E+03 -0.1487826E+01  0.1221345E+06  0.1571286E+01  0.3676667E+03  0.1104816E+00  0.6669518E+04 -0.1575216E+01  0.5700024E+01 -0.3130260E+01  0.3944615E+02  0.8340168E+00  0.3975500E+02  0.2095698E+01  0.5047991E+05 -0.1574237E+01  0.6766383E+02  0.6913763E+00  0.0000000E+00  0.0000000E+00  0.0000000E+00  0.0000000E+00  0.0000000E+00  0.0000000E+00  0.0000000E+00  0.0000000E+00  0.0000000E+00  0.0000000E+00  0.0000000E+00  0.0000000E+00
  0.4916327E+01  0.6849542E+04  0.1566641E+01  0.1268475E+02  0.7225281E+00  0.3914444E+04  0.1252531E-01  0.5145171E+03 -0.1581400E+01  0.1092505E+06  0.1570872E+01  0.2615348E+03  0.5937793E-01  0.6473873E+04 -0.1574473E+01  0.5037172E+01  0.3003720E+01  0.2352964E+02  0.1123470E+01  0.2443378E+02  0.2046230E+01  0.4903481E+05 -0.1573544E+01  0.4928035E+02  0.6659501E+00  0.0000000E+00  0.0000000E+00  0.0000000E+00  0.0000000E+00  0.0000000E+00  0.0000000E+00  0.0000000E+00  0.0000000E+00  0.0000000E+00  0.0000000E+00  0.0000000E+00  0.0000000E+00
  0.5036735E+01  0.1773453E+04 -0.1553735E+01  0.1034907E+02  0.3718521E+00  0.1449576E+05  0.3120427E-02  0.2385739E+03 -0.1887243E+01  0.5749224E+05  0.1569939E+01  0.1150437E+03 -0.1339858E+00  0.6261135E+04 -0.1573810E+01  0.4567200E+01  0.2865413E+01  0.1409213E+02  0.1490193E+01  0.1171027E+02  0.1953431E+01  0.4746218E+05 -0.1573000E+01  0.3446534E+02  0.6560866E+00  0.0000000E+00  0.0000000E+00  0.0000000E+00  0.0000000E+00  0.0000000E+00  0.0000000E+00  0.0000000E+00  0.0000000E+00  0.0000000E+00  0.0000000E+00  0.0000000E+00  0.0000000E+00
  0.5157143E+01  0.7580177E+04 -0.1567212E+01  0.8374606E+01 -0.2066767E+00  0.1727504E+05  0.1995039E-02  0.1494459E+03  0.2670497E+01  0.8793465E+04 -0.1559157E+01  0.7113715E+02 -0.2405660E+01  0.6033713E+04 -0.1573282E+01  0.4227829E+01  0.2744410E+01  0.8421512E+01  0.1868223E+01  0.2088629E+01  0.1159591E+01  0.4578109E+05 -0.1572629E+01  0.2292463E+02  0.6717932E+00  0.0000000E+00  0.0000000E+00  0.0000000E+00  0.0000000E+00  0.0000000E+00  0.0000000E+00  0.0000000E+00  0.0000000E+00  0.0000000E+00  0.0000000E+00  0.0000000E+00  0.0000000E+00
  0.5277551E+01  0.8826847E+04 -0.1568657E+01  0.8681767E+01 -0.9131015E+00  0.1210148E+05  0.1480320E-02  0.3574247E+03  0.2071171E+01  0.6076667E+05 -0.1568499E+01  0.2199082E+03 -0.2790064E+01  0.5794068E+04 -0.1572916E+01  0.3975594E+01  0.2643452E+01  0.4186022E+01  0.2203715E+01  0.7014528E+01 -0.8253506E+00  0.4400914E+05 -0.1572431E+01  0.1430614E+02  0.7347320E+00  0.0000000E+00  0.0000000E+00  0.0000000E+00  0.0000000E+00  0.0000000E+00  0.0000000E+00  0.0000000E+00  0.0000000E+00  0.0000000E+00  0.0000000E+00  0.0000000E+00  0.0000000E+00
  0.5397959E+01  0.5827308E+04 -0.1569716E+01  0.1025011E+02 -0.1429047E+01  0.2240018E+04 -0.8037502E-03  0.4977514E+03  0.1943329E+01  0.7741254E+05 -0.1568836E+01  0.3275995E+03 -0.2854202E+01  0.5544493E+04 -0.1572715E+01  0.3780921E+01  0.2562433E+01  0.5289676E+00  0.3139043E+01  0.1298959E+02 -0.9377511E+00  0.4216196E+05 -0.1572390E+01  0.8269161E+01  0.8975393E+00  0.0000000E+00  0.0000000E+00  0.0000000E+00  0.0000000E+00  0.0000000E+00  0.0000000E+00  0.0000000E+00  0.0000000E+00  0.0000000E+00  0.0000000E+00  0.0000000E+00  0.0000000E+00
  0.5518367E+01  0.9269077E+03 -0.1579967E+01  0.1028153E+02 -0.1827576E+01  0.7158762E+04 -0.3138657E+01  0.5220663E+03  0.1880584E+01  0.5480952E+05 -0.1568338E+01  0.3681786E+03 -0.2884216E+01  0.5287048E+04 -0.1572666E+01  0.3625739E+01  0.2499682E+01  0.3016400E+01 -0.8179172E+00  0.1732282E+02 -0.9656282E+00  0.4025296E+05 -0.1572482E+01  0.4630378E+01  0.1284422E+01  0.0000000E+00  0.0000000E+00  0.0000000E+00  0.0000000E+00  0.0000000E+00  0.0000000E+00  0.0000000E+00  0.0000000E+00  0.0000000E+00  0.0000000E+00  0.0000000E+00  0.0000000E+00
  0.5638775E+01  0.2590675E+04  0.1579505E+01  0.7837619E+01 -0.2428498E+01  0.1152385E+05 -0.3138478E+01  0.4464349E+03  0.1816504E+01  0.7707671E+04 -0.1558903E+01  0.3471694E+03 -0.2922784E+01  0.5023509E+04 -0.1572746E+01  0.3499912E+01  0.2453315E+01  0.5553356E+01 -0.6667591E+00  0.2027122E+02 -0.9691188E+00  0.3829355E+05 -0.1572677E+01  0.3392199E+01  0.1941829E+01  0.0000000E+00  0.0000000E+00  0.0000000E+00  0.0000000E+00  0.0000000E+00  0.0000000E+00  0.0000000E+00  0.0000000E+00  0.0000000E+00  0.0000000E+00  0.0000000E+00  0.0000000E+00
  0.5759184E+01  0.2229146E+04  0.1585521E+01  0.8767221E+01  0.2620483E+01  0.9104619E+04 -0.3136825E+01  0.3314685E+03  0.1687580E+01  0.3799740E+05  0.1569923E+01  0.3047025E+03 -0.3015124E+01  0.4755390E+04 -0.1572927E+01  0.3394565E+01  0.2420689E+01  0.7012296E+01 -0.5950215E+00  0.2212438E+02 -0.9602991E+00  0.3629359E+05 -0.1572943E+01  0.3627847E+01  0.2436689E+01  0.0000000E+00  0.0000000E+00  0.0000000E+00  0.0000000E+00  0.0000000E+00  0.0000000E+00  0.0000000E+00  0.0000000E+00  0.0000000E+00  0.0000000E+00  0.0000000E+00  0.0000000E+00
  0.5879592E+01  0.2252587E+04 -0.1587211E+01  0.1838427E+02  0.1962268E+01  0.1807323E+04 -0.3118150E+01  0.2700778E+03  0.1431158E+01  0.5868607E+05  0.1571229E+01  0.3115916E+03  0.3101004E+01  0.4483997E+04 -0.1573180E+01  0.3304900E+01  0.2399510E+01  0.7282019E+01 -0.5681344E+00  0.2315115E+02 -0.9435313E+00  0.3426202E+05 -0.1573254E+01  0.4008636E+01  0.2671322E+01  0.0000000E+00  0.0000000E+00  0.0000000E+00  0.0000000E+00  0.0000000E+00  0.0000000E+00  0.0000000E+00  0.0000000E+00  0.0000000E+00  0.0000000E+00  0.0000000E+00  0.0000000E+00
  0.6000000E+01  0.8543954E+04 -0.1574803E+01  0.2974338E+02  0.1707386E+01  0.5920544E+04 -0.5717716E-02  0.3396133E+03  0.1253632E+01  0.4555218E+05  0.1572302E+01  0.4395549E+03  0.2980348E+01  0.4210510E+04 -0.1573480E+01  0.3225077E+01  0.2387475E+01  0.6444127E+01 -0.5925258E+00  0.2357927E+02 -0.9213405E+00  0.3220719E+05 -0.1573587E+01  0.4154315E+01  0.2789752E+01  0.0000000E+00  0.0000000E+00  0.0000000E+00  0.0000000E+00  0.0000000E+00  0.0000000E+00  0.0000000E+00  0.0000000E+00  0.0000000E+00  0.0000000E+00  0.0000000E+00  0.0000000E+00
