 VARIABLES="Time (s)"
"AddedMass    1" "IRF    1"
"AddedMass    2" "IRF    2"
"AddedMass    3" "IRF    3"
"AddedMass    4" "IRF    4"
"AddedMass    5" "IRF    5"
"AddedMass    6" "IRF    6"
"AddedMass    7" "IRF    7"
"AddedMass    8" "IRF    8"
"AddedMass    9" "IRF    9"
"AddedMass   10" "IRF   10"
"AddedMass   11" "IRF   11"
"AddedMass   12" "IRF   12"
"AddedMass   13" "IRF   13"
"AddedMass   14" "IRF   14"
"AddedMass   15" "IRF   15"
"AddedMass   16" "IRF   16"
"AddedMass   17" "IRF   17"
"AddedMass   18" "IRF   18"
Zone t="DoF    1",I=   100,F=POINT
  0.1000000E+00  0.3080776E+04  0.1249948E+05  0.1479481E+02  0.4069424E+02 -0.2202516E+02  0.1100733E+03 -0.9832394E+01  0.1384878E+03  0.2778772E+05  0.1769866E+06  0.2706726E-01  0.2318008E+00 -0.1270019E+03  0.5632396E+04  0.1807380E+01 -0.1774442E+02  0.4970570E+01 -0.3968620E+02  0.6867384E+01  0.1706636E+03 -0.3646383E+04  0.1116147E+05 -0.2525372E+01 -0.5019749E+02  0.0000000E+00  0.0000000E+00  0.0000000E+00  0.0000000E+00  0.0000000E+00  0.0000000E+00  0.0000000E+00  0.0000000E+00  0.0000000E+00  0.0000000E+00  0.0000000E+00  0.0000000E+00
  0.2000000E+00  0.3080776E+04  0.9598432E+04  0.1479481E+02  0.2422892E+02 -0.2202516E+02  0.7412428E+02 -0.9832394E+01  0.7542816E+02  0.2778772E+05  0.1395915E+06  0.2706726E-01  0.1524618E+00 -0.1270019E+03  0.4697230E+04  0.1807380E+01 -0.1034140E+02  0.4970570E+01 -0.2899428E+02  0.6867384E+01  0.1087776E+03 -0.3646383E+04  0.8544551E+04 -0.2525372E+01 -0.4071238E+02  0.0000000E+00  0.0000000E+00  0.0000000E+00  0.0000000E+00  0.0000000E+00  0.0000000E+00  0.0000000E+00  0.0000000E+00  0.0000000E+00  0.0000000E+00  0.0000000E+00  0.0000000E+00
  0.3000000E+00  0.3080776E+04  0.5425664E+04  0.1479481E+02  0.1734117E+01 -0.2202516E+02  0.2541831E+02 -0.9832394E+01 -0.1112411E+02  0.2778772E+05  0.8539608E+05  0.2706726E-01  0.4389605E-01 -0.1270019E+03  0.3330198E+04  0.1807380E+01 -0.1388802E+00  0.4970570E+01 -0.1417337E+02  0.6867384E+01  0.2326870E+02 -0.3646383E+04  0.4802049E+04 -0.2525372E+01 -0.2689322E+02  0.0000000E+00  0.0000000E+00  0.0000000E+00  0.0000000E+00  0.0000000E+00  0.0000000E+00  0.0000000E+00  0.0000000E+00  0.0000000E+00  0.0000000E+00  0.0000000E+00  0.0000000E+00
  0.4000000E+00  0.3080776E+04  0.8067817E+03  0.1479481E+02 -0.2076746E+02 -0.2202516E+02 -0.2265418E+02 -0.9832394E+01 -0.9846794E+02  0.2778772E+05  0.2459823E+05  0.2706726E-01 -0.6559032E-01 -0.1270019E+03  0.1771938E+04  0.1807380E+01  0.1024860E+02  0.4970570E+01  0.1145029E+01  0.6867384E+01 -0.6426898E+02 -0.3646383E+04  0.7013715E+03 -0.2525372E+01 -0.1124280E+02  0.0000000E+00  0.0000000E+00  0.0000000E+00  0.0000000E+00  0.0000000E+00  0.0000000E+00  0.0000000E+00  0.0000000E+00  0.0000000E+00  0.0000000E+00  0.0000000E+00  0.0000000E+00
  0.5000000E+00  0.3080776E+04 -0.3392195E+04  0.1479481E+02 -0.3725592E+02 -0.2202516E+02 -0.5716219E+02 -0.9832394E+01 -0.1636716E+03  0.2778772E+05 -0.3198749E+05  0.2706726E-01 -0.1485239E+00 -0.1270019E+03  0.2782950E+03  0.1807380E+01  0.1817858E+02  0.4970570E+01  0.1335847E+02  0.6867384E+01 -0.1319968E+03 -0.3646383E+04 -0.2961424E+04 -0.2525372E+01  0.3571454E+01  0.0000000E+00  0.0000000E+00  0.0000000E+00  0.0000000E+00  0.0000000E+00  0.0000000E+00  0.0000000E+00  0.0000000E+00  0.0000000E+00  0.0000000E+00  0.0000000E+00  0.0000000E+00
  0.6000000E+00  0.3080776E+04 -0.6460797E+04  0.1479481E+02 -0.4333244E+02 -0.2202516E+02 -0.6935322E+02 -0.9832394E+01 -0.1895545E+03  0.2778772E+05 -0.7530281E+05  0.2706726E-01 -0.1859182E+00 -0.1270019E+03 -0.9352270E+03  0.1807380E+01  0.2166756E+02  0.4970570E+01  0.1986052E+02  0.6867384E+01 -0.1634954E+03 -0.3646383E+04 -0.5549606E+04 -0.2525372E+01  0.1529417E+02  0.0000000E+00  0.0000000E+00  0.0000000E+00  0.0000000E+00  0.0000000E+00  0.0000000E+00  0.0000000E+00  0.0000000E+00  0.0000000E+00  0.0000000E+00  0.0000000E+00  0.0000000E+00
  0.7000000E+00  0.3080776E+04 -0.7992034E+04  0.1479481E+02 -0.3740629E+02 -0.2202516E+02 -0.5713984E+02 -0.9832394E+01 -0.1691455E+03  0.2778772E+05 -0.9987805E+05  0.2706726E-01 -0.1722668E+00 -0.1270019E+03 -0.1736324E+04  0.1807380E+01  0.1990133E+02  0.4970570E+01  0.1971598E+02  0.6867384E+01 -0.1519734E+03 -0.3646383E+04 -0.6726558E+04 -0.2525372E+01  0.2253201E+02  0.0000000E+00  0.0000000E+00  0.0000000E+00  0.0000000E+00  0.0000000E+00  0.0000000E+00  0.0000000E+00  0.0000000E+00  0.0000000E+00  0.0000000E+00  0.0000000E+00  0.0000000E+00
  0.8000000E+00  0.3080776E+04 -0.7947182E+04  0.1479481E+02 -0.2113097E+02 -0.2202516E+02 -0.2563293E+02 -0.9832394E+01 -0.1074521E+03  0.2778772E+05 -0.1046983E+06  0.2706726E-01 -0.1164654E+00 -0.1270019E+03 -0.2096051E+04  0.1807380E+01  0.1343502E+02  0.4970570E+01  0.1385888E+02  0.6867384E+01 -0.1019180E+03 -0.3646383E+04 -0.6514327E+04 -0.2525372E+01  0.2497298E+02  0.0000000E+00  0.0000000E+00  0.0000000E+00  0.0000000E+00  0.0000000E+00  0.0000000E+00  0.0000000E+00  0.0000000E+00  0.0000000E+00  0.0000000E+00  0.0000000E+00  0.0000000E+00
  0.9000000E+00  0.3080776E+04 -0.6626064E+04  0.1479481E+02  0.1029921E+01 -0.2202516E+02  0.1442756E+02 -0.9832394E+01 -0.2008898E+02  0.2778772E+05 -0.9294552E+05  0.2706726E-01 -0.3850817E-01 -0.1270019E+03 -0.2082524E+04  0.1807380E+01  0.4032025E+01  0.4970570E+01  0.4764377E+01  0.6867384E+01 -0.2776706E+02 -0.3646383E+04 -0.5257738E+04 -0.2525372E+01  0.2333435E+02  0.0000000E+00  0.0000000E+00  0.0000000E+00  0.0000000E+00  0.0000000E+00  0.0000000E+00  0.0000000E+00  0.0000000E+00  0.0000000E+00  0.0000000E+00  0.0000000E+00  0.0000000E+00
  0.1000000E+01  0.3080776E+04 -0.4557218E+04  0.1479481E+02  0.2299508E+02 -0.2202516E+02  0.4987844E+02 -0.9832394E+01  0.7085814E+02  0.2778772E+05 -0.7075896E+05  0.2706726E-01  0.3692042E-01 -0.1270019E+03 -0.1831511E+04  0.1807380E+01 -0.5813618E+01  0.4970570E+01 -0.4304829E+01  0.6867384E+01  0.5002973E+02 -0.3646383E+04 -0.3507410E+04 -0.2525372E+01  0.1906995E+02  0.0000000E+00  0.0000000E+00  0.0000000E+00  0.0000000E+00  0.0000000E+00  0.0000000E+00  0.0000000E+00  0.0000000E+00  0.0000000E+00  0.0000000E+00  0.0000000E+00  0.0000000E+00
  0.1100000E+01  0.3080776E+04 -0.2342852E+04  0.1479481E+02  0.3869992E+02 -0.2202516E+02  0.6903416E+02 -0.9832394E+01  0.1426308E+03  0.2778772E+05 -0.4540405E+05  0.2706726E-01  0.8792701E-01 -0.1270019E+03 -0.1503154E+04  0.1807380E+01 -0.1354291E+02  0.4970570E+01 -0.1025773E+02  0.6867384E+01  0.1105005E+03 -0.3646383E+04 -0.1856443E+04 -0.2525372E+01  0.1392795E+02  0.0000000E+00  0.0000000E+00  0.0000000E+00  0.0000000E+00  0.0000000E+00  0.0000000E+00  0.0000000E+00  0.0000000E+00  0.0000000E+00  0.0000000E+00  0.0000000E+00  0.0000000E+00
  0.1200000E+01  0.3080776E+04 -0.5031399E+03  0.1479481E+02  0.4373667E+02 -0.2202516E+02  0.6513958E+02 -0.9832394E+01  0.1777219E+03  0.2778772E+05 -0.2336830E+05  0.2706726E-01  0.1016791E+00 -0.1270019E+03 -0.1237174E+04  0.1807380E+01 -0.1720799E+02  0.4970570E+01 -0.1106392E+02  0.6867384E+01  0.1377249E+03 -0.3646383E+04 -0.7769275E+03 -0.2525372E+01  0.9483281E+01  0.0000000E+00  0.0000000E+00  0.0000000E+00  0.0000000E+00  0.0000000E+00  0.0000000E+00  0.0000000E+00  0.0000000E+00  0.0000000E+00  0.0000000E+00  0.0000000E+00  0.0000000E+00
  0.1300000E+01  0.3080776E+04  0.6390286E+03  0.1479481E+02  0.3656005E+02 -0.2202516E+02  0.3836757E+02 -0.9832394E+01  0.1683687E+03  0.2778772E+05 -0.8884262E+04  0.2706726E-01  0.7762415E-01 -0.1270019E+03 -0.1118551E+04  0.1807380E+01 -0.1597945E+02  0.4970570E+01 -0.6320508E+01  0.6867384E+01  0.1250113E+03 -0.3646383E+04 -0.5005834E+03 -0.2525372E+01  0.6766972E+01  0.0000000E+00  0.0000000E+00  0.0000000E+00  0.0000000E+00  0.0000000E+00  0.0000000E+00  0.0000000E+00  0.0000000E+00  0.0000000E+00  0.0000000E+00  0.0000000E+00  0.0000000E+00
  0.1400000E+01  0.3080776E+04  0.1006423E+04  0.1479481E+02  0.1893116E+02 -0.2202516E+02 -0.4218382E+01 -0.9832394E+01  0.1184415E+03  0.2778772E+05 -0.3224602E+04  0.2706726E-01  0.2682280E-01 -0.1270019E+03 -0.1162036E+04  0.1807380E+01 -0.1035128E+02  0.4970570E+01  0.2659930E+01  0.6867384E+01  0.7657445E+02 -0.3646383E+04 -0.9742232E+03 -0.2525372E+01  0.6080101E+01  0.0000000E+00  0.0000000E+00  0.0000000E+00  0.0000000E+00  0.0000000E+00  0.0000000E+00  0.0000000E+00  0.0000000E+00  0.0000000E+00  0.0000000E+00  0.0000000E+00  0.0000000E+00
  0.1500000E+01  0.3080776E+04  0.7435942E+03  0.1479481E+02 -0.4526135E+01 -0.2202516E+02 -0.5072095E+02 -0.9832394E+01  0.4225535E+02  0.2778772E+05 -0.4876334E+04  0.2706726E-01 -0.3221375E-01 -0.1270019E+03 -0.1318080E+04  0.1807380E+01 -0.1991325E+01  0.4970570E+01  0.1325818E+02  0.6867384E+01  0.6281996E+01 -0.3646383E+04 -0.1898657E+04 -0.2525372E+01  0.7024136E+01  0.0000000E+00  0.0000000E+00  0.0000000E+00  0.0000000E+00  0.0000000E+00  0.0000000E+00  0.0000000E+00  0.0000000E+00  0.0000000E+00  0.0000000E+00  0.0000000E+00  0.0000000E+00
  0.1600000E+01  0.3080776E+04  0.1362218E+03  0.1479481E+02 -0.2754408E+02 -0.2202516E+02 -0.8787836E+02 -0.9832394E+01 -0.3935410E+02  0.2778772E+05 -0.1045008E+05  0.2706726E-01 -0.7972874E-01 -0.1270019E+03 -0.1496655E+04  0.1807380E+01  0.6720077E+01  0.4970570E+01  0.2232942E+02  0.6867384E+01 -0.6617593E+02 -0.3646383E+04 -0.2836120E+04 -0.2525372E+01  0.8718421E+01  0.0000000E+00  0.0000000E+00  0.0000000E+00  0.0000000E+00  0.0000000E+00  0.0000000E+00  0.0000000E+00  0.0000000E+00  0.0000000E+00  0.0000000E+00  0.0000000E+00  0.0000000E+00
  0.1700000E+01  0.3080776E+04 -0.4962878E+03  0.1479481E+02 -0.4388520E+02 -0.2202516E+02 -0.1049330E+03 -0.9832394E+01 -0.1046251E+03  0.2778772E+05 -0.1598953E+05  0.2706726E-01 -0.1009469E+00 -0.1270019E+03 -0.1600669E+04  0.1807380E+01  0.1333784E+02  0.4970570E+01  0.2712737E+02  0.6867384E+01 -0.1206543E+03 -0.3646383E+04 -0.3352610E+04 -0.2525372E+01  0.1012689E+02  0.0000000E+00  0.0000000E+00  0.0000000E+00  0.0000000E+00  0.0000000E+00  0.0000000E+00  0.0000000E+00  0.0000000E+00  0.0000000E+00  0.0000000E+00  0.0000000E+00  0.0000000E+00
  0.1800000E+01  0.3080776E+04 -0.9005360E+03  0.1479481E+02 -0.4902560E+02 -0.2202516E+02 -0.9677158E+02 -0.9832394E+01 -0.1366375E+03  0.2778772E+05 -0.1826563E+05  0.2706726E-01 -0.9038581E-01 -0.1270019E+03 -0.1558502E+04  0.1807380E+01  0.1601171E+02  0.4970570E+01  0.2610412E+02  0.6867384E+01 -0.1420101E+03 -0.3646383E+04 -0.3152879E+04 -0.2525372E+01  0.1039280E+02  0.0000000E+00  0.0000000E+00  0.0000000E+00  0.0000000E+00  0.0000000E+00  0.0000000E+00  0.0000000E+00  0.0000000E+00  0.0000000E+00  0.0000000E+00  0.0000000E+00  0.0000000E+00
  0.1900000E+01  0.3080776E+04 -0.9529704E+03  0.1479481E+02 -0.4139474E+02 -0.2202516E+02 -0.6542573E+02 -0.9832394E+01 -0.1277201E+03  0.2778772E+05 -0.1568452E+05  0.2706726E-01 -0.5300267E-01 -0.1270019E+03 -0.1346217E+04  0.1807380E+01  0.1398076E+02  0.4970570E+01  0.1935749E+02  0.6867384E+01 -0.1241827E+03 -0.3646383E+04 -0.2169393E+04 -0.2525372E+01  0.9086386E+01  0.0000000E+00  0.0000000E+00  0.0000000E+00  0.0000000E+00  0.0000000E+00  0.0000000E+00  0.0000000E+00  0.0000000E+00  0.0000000E+00  0.0000000E+00  0.0000000E+00  0.0000000E+00
  0.2000000E+01  0.3080776E+04 -0.6737018E+03  0.1479481E+02 -0.2283362E+02 -0.2202516E+02 -0.1950421E+02 -0.9832394E+01 -0.8134241E+02  0.2778772E+05 -0.8586506E+04  0.2706726E-01 -0.1982742E-02 -0.1270019E+03 -0.9935723E+03  0.1807380E+01  0.7771600E+01  0.4970570E+01  0.8601702E+01  0.6867384E+01 -0.7180698E+02 -0.3646383E+04 -0.5810125E+03 -0.2525372E+01  0.6303355E+01  0.0000000E+00  0.0000000E+00  0.0000000E+00  0.0000000E+00  0.0000000E+00  0.0000000E+00  0.0000000E+00  0.0000000E+00  0.0000000E+00  0.0000000E+00  0.0000000E+00  0.0000000E+00
  0.2100000E+01  0.3080776E+04 -0.1931445E+03  0.1479481E+02  0.1860281E+01 -0.2202516E+02  0.2827227E+02 -0.9832394E+01 -0.1101028E+02  0.2778772E+05  0.1086292E+04  0.2706726E-01  0.4595397E-01 -0.1270019E+03 -0.5731247E+03  0.1807380E+01 -0.9513450E+00  0.4970570E+01 -0.3325206E+01  0.6867384E+01  0.1066604E+01 -0.3646383E+04  0.1241938E+04 -0.2525372E+01  0.2599465E+01  0.0000000E+00  0.0000000E+00  0.0000000E+00  0.0000000E+00  0.0000000E+00  0.0000000E+00  0.0000000E+00  0.0000000E+00  0.0000000E+00  0.0000000E+00  0.0000000E+00  0.0000000E+00
  0.2200000E+01  0.3080776E+04  0.3113224E+03  0.1479481E+02  0.2618847E+02 -0.2202516E+02  0.6471175E+02 -0.9832394E+01  0.6350498E+02  0.2778772E+05  0.1058571E+05  0.2706726E-01  0.7610510E-01 -0.1270019E+03 -0.1767263E+03  0.1807380E+01 -0.9841098E+01  0.4970570E+01 -0.1327101E+02  0.6867384E+01  0.7478998E+02 -0.3646383E+04  0.2848282E+04 -0.2525372E+01 -0.1205239E+01  0.0000000E+00  0.0000000E+00  0.0000000E+00  0.0000000E+00  0.0000000E+00  0.0000000E+00  0.0000000E+00  0.0000000E+00  0.0000000E+00  0.0000000E+00  0.0000000E+00  0.0000000E+00
  0.2300000E+01  0.3080776E+04  0.6840228E+03  0.1479481E+02  0.4367901E+02 -0.2202516E+02  0.7991286E+02 -0.9832394E+01  0.1215735E+03  0.2778772E+05  0.1732654E+05  0.2706726E-01  0.8037782E-01 -0.1270019E+03  0.1128267E+03  0.1807380E+01 -0.1650505E+02  0.4970570E+01 -0.1866183E+02  0.6867384E+01  0.1294396E+03 -0.3646383E+04  0.3838842E+04 -0.2525372E+01 -0.4284448E+01  0.0000000E+00  0.0000000E+00  0.0000000E+00  0.0000000E+00  0.0000000E+00  0.0000000E+00  0.0000000E+00  0.0000000E+00  0.0000000E+00  0.0000000E+00  0.0000000E+00  0.0000000E+00
  0.2400000E+01  0.3080776E+04  0.8415159E+03  0.1479481E+02  0.4962533E+02 -0.2202516E+02  0.7006260E+02 -0.9832394E+01  0.1472820E+03  0.2778772E+05  0.1971124E+05  0.2706726E-01  0.5949419E-01 -0.1270019E+03  0.2461797E+03  0.1807380E+01 -0.1915100E+02  0.4970570E+01 -0.1822195E+02  0.6867384E+01  0.1502016E+03 -0.3646383E+04  0.3982379E+04 -0.2525372E+01 -0.6045302E+01  0.0000000E+00  0.0000000E+00  0.0000000E+00  0.0000000E+00  0.0000000E+00  0.0000000E+00  0.0000000E+00  0.0000000E+00  0.0000000E+00  0.0000000E+00  0.0000000E+00  0.0000000E+00
  0.2500000E+01  0.3080776E+04  0.7903077E+03  0.1479481E+02  0.4236901E+02 -0.2202516E+02  0.3847555E+02 -0.9832394E+01  0.1336814E+03  0.2778772E+05  0.1756759E+05  0.2706726E-01  0.2222469E-01 -0.1270019E+03  0.2207196E+03  0.1807380E+01 -0.1706848E+02  0.4970570E+01 -0.1231886E+02  0.6867384E+01  0.1313698E+03 -0.3646383E+04  0.3281428E+04 -0.2525372E+01 -0.6281470E+01  0.0000000E+00  0.0000000E+00  0.0000000E+00  0.0000000E+00  0.0000000E+00  0.0000000E+00  0.0000000E+00  0.0000000E+00  0.0000000E+00  0.0000000E+00  0.0000000E+00  0.0000000E+00
  0.2600000E+01  0.3080776E+04  0.6097728E+03  0.1479481E+02  0.2377520E+02 -0.2202516E+02 -0.5409970E+01 -0.9832394E+01  0.8457513E+02  0.2778772E+05  0.1209603E+05  0.2706726E-01 -0.1795117E-01 -0.1270019E+03  0.7930696E+02  0.1807380E+01 -0.1081640E+02  0.4970570E+01 -0.2839975E+01  0.6867384E+01  0.7787812E+02 -0.3646383E+04  0.1969811E+04 -0.2525372E+01 -0.5202032E+01  0.0000000E+00  0.0000000E+00  0.0000000E+00  0.0000000E+00  0.0000000E+00  0.0000000E+00  0.0000000E+00  0.0000000E+00  0.0000000E+00  0.0000000E+00  0.0000000E+00  0.0000000E+00
  0.2700000E+01  0.3080776E+04  0.4105656E+03  0.1479481E+02 -0.1235342E+01 -0.2202516E+02 -0.4876980E+02 -0.9832394E+01  0.1339114E+02  0.2778772E+05  0.5385847E+04  0.2706726E-01 -0.4753578E-01 -0.1270019E+03 -0.1045188E+03  0.1807380E+01 -0.2067780E+01  0.4970570E+01  0.7357429E+01  0.6867384E+01  0.3960155E+01 -0.3646383E+04  0.4437447E+03 -0.2525372E+01 -0.3338106E+01  0.0000000E+00  0.0000000E+00  0.0000000E+00  0.0000000E+00  0.0000000E+00  0.0000000E+00  0.0000000E+00  0.0000000E+00  0.0000000E+00  0.0000000E+00  0.0000000E+00  0.0000000E+00
  0.2800000E+01  0.3080776E+04  0.2864007E+03  0.1479481E+02 -0.2598347E+02 -0.2202516E+02 -0.7906774E+02 -0.9832394E+01 -0.6054300E+02  0.2778772E+05 -0.3115275E+03  0.2706726E-01 -0.5745569E-01 -0.1270019E+03 -0.2498505E+03  0.1807380E+01  0.6845570E+01  0.4970570E+01  0.1526248E+02  0.6867384E+01 -0.7070235E+02 -0.3646383E+04 -0.8526244E+03 -0.2525372E+01 -0.1364653E+01  0.0000000E+00  0.0000000E+00  0.0000000E+00  0.0000000E+00  0.0000000E+00  0.0000000E+00  0.0000000E+00  0.0000000E+00  0.0000000E+00  0.0000000E+00  0.0000000E+00  0.0000000E+00
  0.2900000E+01  0.3080776E+04  0.2778333E+03  0.1479481E+02 -0.4381473E+02 -0.2202516E+02 -0.8760239E+02 -0.9832394E+01 -0.1172886E+03  0.2778772E+05 -0.3302179E+04  0.2706726E-01 -0.4580499E-01 -0.1270019E+03 -0.2929201E+03  0.1807380E+01  0.1356362E+02  0.4970570E+01  0.1855833E+02  0.6867384E+01 -0.1262919E+03 -0.3646383E+04 -0.1553656E+04 -0.2525372E+01  0.1032193E+00  0.0000000E+00  0.0000000E+00  0.0000000E+00  0.0000000E+00  0.0000000E+00  0.0000000E+00  0.0000000E+00  0.0000000E+00  0.0000000E+00  0.0000000E+00  0.0000000E+00  0.0000000E+00
  0.3000000E+01  0.3080776E+04  0.3607509E+03  0.1479481E+02 -0.4989351E+02 -0.2202516E+02 -0.7192129E+02 -0.9832394E+01 -0.1417146E+03  0.2778772E+05 -0.2935242E+04  0.2706726E-01 -0.1806958E-01 -0.1270019E+03 -0.2054798E+03  0.1807380E+01  0.1633371E+02  0.4970570E+01  0.1626289E+02  0.6867384E+01 -0.1481958E+03 -0.3646383E+04 -0.1474420E+04 -0.2525372E+01  0.6779404E+00  0.0000000E+00  0.0000000E+00  0.0000000E+00  0.0000000E+00  0.0000000E+00  0.0000000E+00  0.0000000E+00  0.0000000E+00  0.0000000E+00  0.0000000E+00  0.0000000E+00  0.0000000E+00
  0.3100000E+01  0.3080776E+04  0.4622995E+03  0.1479481E+02 -0.4252285E+02 -0.2202516E+02 -0.3643145E+02 -0.9832394E+01 -0.1275765E+03  0.2778772E+05  0.2818971E+03  0.2706726E-01  0.1512505E-01 -0.1270019E+03 -0.1870027E+01  0.1807380E+01  0.1447917E+02  0.4970570E+01  0.8985774E+01  0.6867384E+01 -0.1309286E+03 -0.3646383E+04 -0.6599316E+03 -0.2525372E+01  0.2854182E+00  0.0000000E+00  0.0000000E+00  0.0000000E+00  0.0000000E+00  0.0000000E+00  0.0000000E+00  0.0000000E+00  0.0000000E+00  0.0000000E+00  0.0000000E+00  0.0000000E+00  0.0000000E+00
  0.3200000E+01  0.3080776E+04  0.4964188E+03  0.1479481E+02 -0.2362728E+02 -0.2202516E+02  0.8938221E+01 -0.9832394E+01 -0.7915879E+02  0.2778772E+05  0.4946074E+04  0.2706726E-01  0.4187448E-01 -0.1270019E+03  0.2668188E+03  0.1807380E+01  0.8574944E+01  0.4970570E+01 -0.1263826E+01  0.6867384E+01 -0.7957664E+02 -0.3646383E+04  0.6315942E+03 -0.2525372E+01 -0.8482988E+00  0.0000000E+00  0.0000000E+00  0.0000000E+00  0.0000000E+00  0.0000000E+00  0.0000000E+00  0.0000000E+00  0.0000000E+00  0.0000000E+00  0.0000000E+00  0.0000000E+00  0.0000000E+00
  0.3300000E+01  0.3080776E+04  0.4041643E+03  0.1479481E+02  0.1740510E+01 -0.2202516E+02  0.5161172E+02 -0.9832394E+01 -0.1004815E+02  0.2778772E+05  0.9285934E+04  0.2706726E-01  0.5310513E-01 -0.1270019E+03  0.5292181E+03  0.1807380E+01  0.2839023E+00  0.4970570E+01 -0.1165707E+02  0.6867384E+01 -0.8377601E+01 -0.3646383E+04  0.2005599E+04 -0.2525372E+01 -0.2296253E+01  0.0000000E+00  0.0000000E+00  0.0000000E+00  0.0000000E+00  0.0000000E+00  0.0000000E+00  0.0000000E+00  0.0000000E+00  0.0000000E+00  0.0000000E+00  0.0000000E+00  0.0000000E+00
  0.3400000E+01  0.3080776E+04  0.1825887E+03  0.1479481E+02  0.2674549E+02 -0.2202516E+02  0.7993385E+02 -0.9832394E+01  0.6061549E+02  0.2778772E+05  0.1176553E+05  0.2706726E-01  0.4553931E-01 -0.1270019E+03  0.7154738E+03  0.1807380E+01 -0.8100516E+01  0.4970570E+01 -0.1934363E+02  0.6867384E+01  0.6317519E+02 -0.3646383E+04  0.3045265E+04 -0.2525372E+01 -0.3578200E+01  0.0000000E+00  0.0000000E+00  0.0000000E+00  0.0000000E+00  0.0000000E+00  0.0000000E+00  0.0000000E+00  0.0000000E+00  0.0000000E+00  0.0000000E+00  0.0000000E+00  0.0000000E+00
  0.3500000E+01  0.3080776E+04 -0.1093254E+03  0.1479481E+02  0.4461143E+02 -0.2202516E+02  0.8641193E+02 -0.9832394E+01  0.1133792E+03  0.2778772E+05  0.1156471E+05  0.2706726E-01  0.2256691E-01 -0.1270019E+03  0.7777394E+03  0.1807380E+01 -0.1428003E+02  0.4970570E+01 -0.2224211E+02  0.6867384E+01  0.1156419E+03 -0.3646383E+04  0.3429968E+04 -0.2525372E+01 -0.4308188E+01  0.0000000E+00  0.0000000E+00  0.0000000E+00  0.0000000E+00  0.0000000E+00  0.0000000E+00  0.0000000E+00  0.0000000E+00  0.0000000E+00  0.0000000E+00  0.0000000E+00  0.0000000E+00
  0.3600000E+01  0.3080776E+04 -0.3703338E+03  0.1479481E+02  0.5046303E+02 -0.2202516E+02  0.6972446E+02 -0.9832394E+01  0.1337813E+03  0.2778772E+05  0.8791595E+04  0.2706726E-01 -0.7190332E-02 -0.1270019E+03  0.7034524E+03  0.1807380E+01 -0.1657567E+02  0.4970570E+01 -0.1960352E+02  0.6867384E+01  0.1349176E+03 -0.3646383E+04  0.3024730E+04 -0.2525372E+01 -0.4298500E+01  0.0000000E+00  0.0000000E+00  0.0000000E+00  0.0000000E+00  0.0000000E+00  0.0000000E+00  0.0000000E+00  0.0000000E+00  0.0000000E+00  0.0000000E+00  0.0000000E+00  0.0000000E+00
  0.3700000E+01  0.3080776E+04 -0.4950866E+03  0.1479481E+02  0.4266649E+02 -0.2202516E+02  0.3496003E+02 -0.9832394E+01  0.1162735E+03  0.2778772E+05  0.4378863E+04  0.2706726E-01 -0.3304568E-01 -0.1270019E+03  0.5178409E+03  0.1807380E+01 -0.1438027E+02  0.4970570E+01 -0.1219643E+02  0.6867384E+01  0.1160462E+03 -0.3646383E+04  0.1916089E+04 -0.2525372E+01 -0.3593494E+01  0.0000000E+00  0.0000000E+00  0.0000000E+00  0.0000000E+00  0.0000000E+00  0.0000000E+00  0.0000000E+00  0.0000000E+00  0.0000000E+00  0.0000000E+00  0.0000000E+00  0.0000000E+00
  0.3800000E+01  0.3080776E+04 -0.4165683E+03  0.1479481E+02  0.2329839E+02 -0.2202516E+02 -0.7938851E+01 -0.9832394E+01  0.6569869E+02  0.2778772E+05 -0.2791893E+03  0.2706726E-01 -0.4601146E-01 -0.1270019E+03  0.2754278E+03  0.1807380E+01 -0.8317161E+01  0.4970570E+01 -0.2070745E+01  0.6867384E+01  0.6453168E+02 -0.3646383E+04  0.3853821E+03 -0.2525372E+01 -0.2430694E+01  0.0000000E+00  0.0000000E+00  0.0000000E+00  0.0000000E+00  0.0000000E+00  0.0000000E+00  0.0000000E+00  0.0000000E+00  0.0000000E+00  0.0000000E+00  0.0000000E+00  0.0000000E+00
  0.3900000E+01  0.3080776E+04 -0.1366729E+03  0.1479481E+02 -0.2393461E+01 -0.2202516E+02 -0.4704218E+02 -0.9832394E+01 -0.4069145E+01  0.2778772E+05 -0.3811630E+04  0.2706726E-01 -0.4185532E-01 -0.1270019E+03  0.4350773E+02  0.1807380E+01 -0.6274007E-01  0.4970570E+01  0.8024592E+01  0.6867384E+01 -0.5207251E+01 -0.3646383E+04 -0.1171760E+04 -0.2525372E+01 -0.1148641E+01  0.0000000E+00  0.0000000E+00  0.0000000E+00  0.0000000E+00  0.0000000E+00  0.0000000E+00  0.0000000E+00  0.0000000E+00  0.0000000E+00  0.0000000E+00  0.0000000E+00  0.0000000E+00
  0.4000000E+01  0.3080776E+04  0.2672026E+03  0.1479481E+02 -0.2740080E+02 -0.2202516E+02 -0.7177374E+02 -0.9832394E+01 -0.7394494E+02  0.2778772E+05 -0.5312088E+04  0.2706726E-01 -0.2243197E-01 -0.1270019E+03 -0.1172845E+03  0.1807380E+01  0.8117730E+01  0.4970570E+01  0.1540252E+02  0.6867384E+01 -0.7381547E+02 -0.3646383E+04 -0.2356228E+04 -0.2525372E+01 -0.7502244E-01  0.0000000E+00  0.0000000E+00  0.0000000E+00  0.0000000E+00  0.0000000E+00  0.0000000E+00  0.0000000E+00  0.0000000E+00  0.0000000E+00  0.0000000E+00  0.0000000E+00  0.0000000E+00
  0.4100000E+01  0.3080776E+04  0.6632827E+03  0.1479481E+02 -0.4486014E+02 -0.2202516E+02 -0.7578181E+02 -0.9832394E+01 -0.1248628E+03  0.2778772E+05 -0.4595902E+04  0.2706726E-01  0.5114100E-02 -0.1270019E+03 -0.1696069E+03  0.1807380E+01  0.1399353E+02  0.4970570E+01  0.1816455E+02  0.6867384E+01 -0.1223239E+03 -0.3646383E+04 -0.2875156E+04 -0.2525372E+01  0.5687787E+00  0.0000000E+00  0.0000000E+00  0.0000000E+00  0.0000000E+00  0.0000000E+00  0.0000000E+00  0.0000000E+00  0.0000000E+00  0.0000000E+00  0.0000000E+00  0.0000000E+00  0.0000000E+00
  0.4200000E+01  0.3080776E+04  0.9079890E+03  0.1479481E+02 -0.4993503E+02 -0.2202516E+02 -0.5855441E+02 -0.9832394E+01 -0.1429823E+03  0.2778772E+05 -0.2203040E+04  0.2706726E-01  0.3094207E-01 -0.1270019E+03 -0.1086464E+03  0.1807380E+01  0.1598002E+02  0.4970570E+01  0.1569571E+02  0.6867384E+01 -0.1373562E+03 -0.3646383E+04 -0.2620156E+04 -0.2525372E+01  0.7195240E+00  0.0000000E+00  0.0000000E+00  0.0000000E+00  0.0000000E+00  0.0000000E+00  0.0000000E+00  0.0000000E+00  0.0000000E+00  0.0000000E+00  0.0000000E+00  0.0000000E+00  0.0000000E+00
  0.4300000E+01  0.3080776E+04  0.8957875E+03  0.1479481E+02 -0.4116007E+02 -0.2202516E+02 -0.2537516E+02 -0.9832394E+01 -0.1234499E+03  0.2778772E+05  0.8352030E+03  0.2706726E-01  0.4597053E-01 -0.1270019E+03  0.3825069E+02  0.1807380E+01  0.1357120E+02  0.4970570E+01  0.8800060E+01  0.6867384E+01 -0.1147956E+03 -0.3646383E+04 -0.1693296E+04 -0.2525372E+01  0.4694704E+00  0.0000000E+00  0.0000000E+00  0.0000000E+00  0.0000000E+00  0.0000000E+00  0.0000000E+00  0.0000000E+00  0.0000000E+00  0.0000000E+00  0.0000000E+00  0.0000000E+00  0.0000000E+00
  0.4400000E+01  0.3080776E+04  0.5990488E+03  0.1479481E+02 -0.2087181E+02 -0.2202516E+02  0.1431113E+02 -0.9832394E+01 -0.7168893E+02  0.2778772E+05  0.3372490E+04  0.2706726E-01  0.4499545E-01 -0.1270019E+03  0.2209410E+03  0.1807380E+01  0.7474830E+01  0.4970570E+01 -0.5501046E+00  0.6867384E+01 -0.6090390E+02 -0.3646383E+04 -0.3748602E+03 -0.2525372E+01  0.1622813E-01  0.0000000E+00  0.0000000E+00  0.0000000E+00  0.0000000E+00  0.0000000E+00  0.0000000E+00  0.0000000E+00  0.0000000E+00  0.0000000E+00  0.0000000E+00  0.0000000E+00  0.0000000E+00
  0.4500000E+01  0.3080776E+04  0.8341822E+02  0.1479481E+02  0.5401229E+01 -0.2202516E+02  0.4961141E+02 -0.9832394E+01 -0.1871572E+01  0.2778772E+05  0.4532280E+04  0.2706726E-01  0.2841116E-01 -0.1270019E+03  0.3816729E+03  0.1807380E+01 -0.5864294E+00  0.4970570E+01 -0.9771963E+01  0.6867384E+01  0.9414293E+01 -0.3646383E+04  0.9567421E+03 -0.2525372E+01 -0.4136455E+00  0.0000000E+00  0.0000000E+00  0.0000000E+00  0.0000000E+00  0.0000000E+00  0.0000000E+00  0.0000000E+00  0.0000000E+00  0.0000000E+00  0.0000000E+00  0.0000000E+00  0.0000000E+00
  0.4600000E+01  0.3080776E+04 -0.5077194E+03  0.1479481E+02  0.3043304E+02 -0.2202516E+02  0.7118874E+02 -0.9832394E+01  0.6700410E+02  0.2778772E+05  0.3974878E+04  0.2706726E-01  0.1981198E-02 -0.1270019E+03  0.4715378E+03  0.1807380E+01 -0.8353280E+01  0.4970570E+01 -0.1637783E+02  0.6867384E+01  0.7673079E+02 -0.3646383E+04  0.1929891E+04 -0.2525372E+01 -0.6405919E+00  0.0000000E+00  0.0000000E+00  0.0000000E+00  0.0000000E+00  0.0000000E+00  0.0000000E+00  0.0000000E+00  0.0000000E+00  0.0000000E+00  0.0000000E+00  0.0000000E+00  0.0000000E+00
  0.4700000E+01  0.3080776E+04 -0.9958087E+03  0.1479481E+02  0.4727552E+02 -0.2202516E+02  0.7371992E+02 -0.9832394E+01  0.1163436E+03  0.2778772E+05  0.1966994E+04  0.2706726E-01 -0.2522138E-01 -0.1270019E+03  0.4635051E+03  0.1807380E+01 -0.1365507E+02  0.4970570E+01 -0.1863436E+02  0.6867384E+01  0.1224592E+03 -0.3646383E+04  0.2280123E+04 -0.2525372E+01 -0.5835111E+00  0.0000000E+00  0.0000000E+00  0.0000000E+00  0.0000000E+00  0.0000000E+00  0.0000000E+00  0.0000000E+00  0.0000000E+00  0.0000000E+00  0.0000000E+00  0.0000000E+00  0.0000000E+00
  0.4800000E+01  0.3080776E+04 -0.1223529E+04  0.1479481E+02  0.5117756E+02 -0.2202516E+02  0.5716290E+02 -0.9832394E+01  0.1330564E+03  0.2778772E+05 -0.7541434E+03  0.2706726E-01 -0.4396227E-01 -0.1270019E+03  0.3586704E+03  0.1807380E+01 -0.1501052E+02  0.4970570E+01 -0.1600180E+02  0.6867384E+01  0.1339954E+03 -0.3646383E+04  0.1918939E+04 -0.2525372E+01 -0.2734154E+00  0.0000000E+00  0.0000000E+00  0.0000000E+00  0.0000000E+00  0.0000000E+00  0.0000000E+00  0.0000000E+00  0.0000000E+00  0.0000000E+00  0.0000000E+00  0.0000000E+00  0.0000000E+00
  0.4900000E+01  0.3080776E+04 -0.1106798E+04  0.1479481E+02  0.4091722E+02 -0.2202516E+02  0.2654079E+02 -0.9832394E+01  0.1131200E+03  0.2778772E+05 -0.3262278E+04  0.2706726E-01 -0.4799295E-01 -0.1270019E+03  0.1844231E+03  0.1807380E+01 -0.1203785E+02  0.4970570E+01 -0.9243334E+01  0.6867384E+01  0.1082115E+03 -0.3646383E+04  0.9532141E+03 -0.2525372E+01  0.1708515E+00  0.0000000E+00  0.0000000E+00  0.0000000E+00  0.0000000E+00  0.0000000E+00  0.0000000E+00  0.0000000E+00  0.0000000E+00  0.0000000E+00  0.0000000E+00  0.0000000E+00  0.0000000E+00
  0.5000000E+01  0.3080776E+04 -0.6650692E+03  0.1479481E+02  0.1917351E+02 -0.2202516E+02 -0.9622641E+01 -0.9832394E+01  0.6262724E+02  0.2778772E+05 -0.4765045E+04  0.2706726E-01 -0.3612318E-01 -0.1270019E+03 -0.1441656E+02  0.1807380E+01 -0.5560929E+01  0.4970570E+01 -0.1874490E+00  0.6867384E+01  0.5233514E+02 -0.3646383E+04 -0.3485303E+03 -0.2525372E+01  0.5927523E+00  0.0000000E+00  0.0000000E+00  0.0000000E+00  0.0000000E+00  0.0000000E+00  0.0000000E+00  0.0000000E+00  0.0000000E+00  0.0000000E+00  0.0000000E+00  0.0000000E+00  0.0000000E+00
  0.5100000E+01  0.3080776E+04 -0.1934821E+02  0.1479481E+02 -0.8174152E+01 -0.2202516E+02 -0.4172570E+02 -0.9832394E+01 -0.3966525E+01  0.2778772E+05 -0.4857596E+04  0.2706726E-01 -0.1254030E-01 -0.1270019E+03 -0.1885903E+03  0.1807380E+01  0.2618201E+01  0.4970570E+01  0.8781601E+01  0.6867384E+01 -0.1803557E+02 -0.3646383E+04 -0.1632311E+04 -0.2525372E+01  0.8549792E+00  0.0000000E+00  0.0000000E+00  0.0000000E+00  0.0000000E+00  0.0000000E+00  0.0000000E+00  0.0000000E+00  0.0000000E+00  0.0000000E+00  0.0000000E+00  0.0000000E+00  0.0000000E+00
  0.5200000E+01  0.3080776E+04  0.6422728E+03  0.1479481E+02 -0.3363648E+02 -0.2202516E+02 -0.6166981E+02 -0.9832394E+01 -0.6790543E+02  0.2778772E+05 -0.3628054E+04  0.2706726E-01  0.1469852E-01 -0.1270019E+03 -0.2977275E+03  0.1807380E+01  0.1021807E+02  0.4970570E+01  0.1536150E+02  0.6867384E+01 -0.8323866E+02 -0.3646383E+04 -0.2555584E+04 -0.2525372E+01  0.8841889E+00  0.0000000E+00  0.0000000E+00  0.0000000E+00  0.0000000E+00  0.0000000E+00  0.0000000E+00  0.0000000E+00  0.0000000E+00  0.0000000E+00  0.0000000E+00  0.0000000E+00  0.0000000E+00