 VARIABLES="Time (s)"
"IRF    1"
"IRF    2"
"IRF    3"
"IRF    4"
"IRF    5"
"IRF    6"
"IRF    7"
"IRF    8"
"IRF    9"
"IRF   10"
"IRF   11"
"IRF   12"
"IRF   13"
"IRF   14"
"IRF   15"
"IRF   16"
"IRF   17"
"IRF   18"
Zone t="beta  0.0000000E+00",I=   199,F=POINT
 -0.9800000E+01  0.5693083E+04 -0.1617116E+03 -0.3722318E+05  0.3056228E+02  0.9998981E+04 -0.5199323E+01 -0.1555158E+04  0.2994605E+02  0.5269854E+04 -0.8297540E+02 -0.8928956E+04 -0.2719465E+03  0.0000000E+00  0.0000000E+00  0.0000000E+00  0.0000000E+00  0.0000000E+00  0.0000000E+00
 -0.9700000E+01  0.5888214E+04 -0.1436423E+03 -0.3527411E+05  0.4994025E+02  0.9340802E+04 -0.9157606E+01 -0.1727837E+04  0.3183468E+02  0.4510229E+04 -0.9125282E+02 -0.1000203E+05 -0.2549069E+03  0.0000000E+00  0.0000000E+00  0.0000000E+00  0.0000000E+00  0.0000000E+00  0.0000000E+00
 -0.9600000E+01  0.4454666E+04 -0.8569654E+02 -0.2884568E+05  0.7437030E+02  0.5825144E+04 -0.9924403E+01 -0.1532571E+04  0.2730149E+02  0.2245831E+04 -0.7057294E+02 -0.8167502E+04 -0.1924409E+03  0.0000000E+00  0.0000000E+00  0.0000000E+00  0.0000000E+00  0.0000000E+00  0.0000000E+00
 -0.9500000E+01  0.1789281E+04 -0.4515694E+01 -0.2000298E+05  0.9348433E+02  0.5285153E+03 -0.7279529E+01 -0.1018175E+04  0.1716469E+02 -0.7950183E+03 -0.2314432E+02 -0.3874413E+04 -0.1038373E+03  0.0000000E+00  0.0000000E+00  0.0000000E+00  0.0000000E+00  0.0000000E+00  0.0000000E+00
 -0.9400001E+01 -0.1359863E+04  0.7689015E+02 -0.1158472E+05  0.9471339E+02 -0.4926875E+04 -0.2192060E+01 -0.3257497E+03  0.4008933E+01 -0.3626579E+04  0.4115074E+02  0.1717278E+04 -0.1666721E+02  0.0000000E+00  0.0000000E+00  0.0000000E+00  0.0000000E+00  0.0000000E+00  0.0000000E+00
 -0.9300000E+01 -0.4106611E+04  0.1357311E+03 -0.6298405E+04  0.6870473E+02 -0.8881979E+04  0.3534638E+01  0.3491925E+03 -0.8459361E+01 -0.5324984E+04  0.1063290E+03  0.7052538E+04  0.4184449E+02  0.0000000E+00  0.0000000E+00  0.0000000E+00  0.0000000E+00  0.0000000E+00  0.0000000E+00
 -0.9200000E+01 -0.5681758E+04  0.1558763E+03 -0.5856689E+04  0.1421984E+02 -0.1017022E+05  0.7909157E+01  0.8114644E+03 -0.1644995E+02 -0.5328870E+04  0.1539384E+03  0.1062038E+05  0.5336932E+02  0.0000000E+00  0.0000000E+00  0.0000000E+00  0.0000000E+00  0.0000000E+00  0.0000000E+00
 -0.9100000E+01 -0.5655751E+04  0.1323242E+03 -0.1043018E+05 -0.5944854E+02 -0.8495514E+04  0.9455996E+01  0.9225218E+03 -0.1723308E+02 -0.3624400E+04  0.1680427E+03  0.1139216E+05  0.1425742E+02  0.0000000E+00  0.0000000E+00  0.0000000E+00  0.0000000E+00  0.0000000E+00  0.0000000E+00
 -0.9000000E+01 -0.4062369E+04  0.7243794E+02 -0.1859537E+05 -0.1337519E+03 -0.4530474E+04  0.7723405E+01  0.6415809E+03 -0.1004509E+02 -0.7529009E+03  0.1402598E+03  0.9128627E+04 -0.6332097E+02  0.0000000E+00  0.0000000E+00  0.0000000E+00  0.0000000E+00  0.0000000E+00  0.0000000E+00
 -0.8900001E+01 -0.1386275E+04 -0.6346744E+01 -0.2779192E+05 -0.1857853E+03  0.3063462E+03  0.3419104E+01  0.3946209E+02  0.3538363E+01  0.2361450E+04  0.7330389E+02  0.4463298E+04 -0.1552247E+03  0.0000000E+00  0.0000000E+00  0.0000000E+00  0.0000000E+00  0.0000000E+00  0.0000000E+00
 -0.8800000E+01  0.1582579E+04 -0.8164101E+02 -0.3514429E+05 -0.1954686E+03  0.4327568E+04 -0.1871451E+01 -0.7199207E+03  0.1991313E+02  0.4709731E+04 -0.1831410E+02 -0.1268607E+04 -0.2329829E+03  0.0000000E+00  0.0000000E+00  0.0000000E+00  0.0000000E+00  0.0000000E+00  0.0000000E+00
 -0.8700000E+01  0.3984130E+04 -0.1325200E+03 -0.3838050E+05 -0.1527260E+03  0.6153147E+04 -0.6273351E+01 -0.1425551E+04  0.3439081E+02  0.5525308E+04 -0.1110618E+03 -0.6410200E+04 -0.2727753E+03  0.0000000E+00  0.0000000E+00  0.0000000E+00  0.0000000E+00  0.0000000E+00  0.0000000E+00
 -0.8600000E+01  0.5142801E+04 -0.1453943E+03 -0.3655464E+05 -0.6220875E+02  0.5193296E+04 -0.8301296E+01 -0.1879965E+04  0.4253142E+02  0.4534326E+04 -0.1782768E+03 -0.9463711E+04 -0.2629126E+03  0.0000000E+00  0.0000000E+00  0.0000000E+00  0.0000000E+00  0.0000000E+00  0.0000000E+00
 -0.8500000E+01  0.4764718E+04 -0.1176647E+03 -0.3033908E+05  0.5628011E+02  0.1869137E+04 -0.7378157E+01 -0.1956871E+04  0.4148338E+02  0.2047412E+04 -0.1977646E+03 -0.9530906E+04 -0.2074231E+03  0.0000000E+00  0.0000000E+00  0.0000000E+00  0.0000000E+00  0.0000000E+00  0.0000000E+00
 -0.8400001E+01  0.3018156E+04 -0.5817142E+02 -0.2179532E+05  0.1721859E+03 -0.2515607E+04 -0.4007372E+01 -0.1638664E+04  0.3092535E+02 -0.1137821E+04 -0.1589657E+03 -0.6581097E+04 -0.1246226E+03  0.0000000E+00  0.0000000E+00  0.0000000E+00  0.0000000E+00  0.0000000E+00  0.0000000E+00
 -0.8300000E+01  0.4735415E+03  0.1560968E+02 -0.1370018E+05  0.2524510E+03 -0.6220868E+04  0.4561977E+00 -0.1022463E+04  0.1330474E+02 -0.3992855E+04 -0.6741846E+02 -0.1464394E+04 -0.4115368E+02  0.0000000E+00  0.0000000E+00  0.0000000E+00  0.0000000E+00  0.0000000E+00  0.0000000E+00
 -0.8200000E+01 -0.2077688E+04  0.8273405E+02 -0.8647846E+04  0.2712613E+03 -0.7693769E+04  0.4344321E+01 -0.2924357E+03 -0.6735376E+01 -0.5590504E+04  0.5515383E+02  0.4336465E+04  0.1657247E+02  0.0000000E+00  0.0000000E+00  0.0000000E+00  0.0000000E+00  0.0000000E+00  0.0000000E+00
 -0.8100000E+01 -0.3869126E+04  0.1247825E+03 -0.8220684E+04  0.2183664E+03 -0.6159185E+04  0.6311230E+01  0.3337159E+03 -0.2361046E+02 -0.5405805E+04  0.1756568E+03  0.9144739E+04  0.3076991E+02  0.0000000E+00  0.0000000E+00  0.0000000E+00  0.0000000E+00  0.0000000E+00  0.0000000E+00
 -0.8000000E+01 -0.4393789E+04  0.1309547E+03 -0.1249583E+05  0.1032758E+03 -0.1966572E+04  0.5825243E+01  0.6683555E+03 -0.3238733E+02 -0.3487690E+04  0.2583692E+03  0.1158722E+05 -0.2185056E+01  0.0000000E+00  0.0000000E+00  0.0000000E+00  0.0000000E+00  0.0000000E+00  0.0000000E+00
 -0.7900000E+01 -0.3554514E+04  0.1008321E+03 -0.2004552E+05 -0.4620480E+02  0.3445392E+04  0.3329872E+01  0.6088771E+03 -0.3025546E+02 -0.4451205E+03  0.2753268E+03  0.1100256E+05 -0.7083285E+02  0.0000000E+00  0.0000000E+00  0.0000000E+00  0.0000000E+00  0.0000000E+00  0.0000000E+00
 -0.7800000E+01 -0.1684072E+04  0.4411842E+02 -0.2842509E+05 -0.1909720E+03  0.7983038E+04  0.1684901E-01  0.1674348E+03 -0.1743672E+02  0.2748565E+04  0.2153460E+03  0.7635177E+04 -0.1525709E+03  0.0000000E+00  0.0000000E+00  0.0000000E+00  0.0000000E+00  0.0000000E+00  0.0000000E+00
 -0.7700000E+01  0.5700536E+03 -0.2246587E+02 -0.3498290E+05 -0.2913109E+03  0.9607667E+04 -0.2692316E+01 -0.5333135E+03  0.2757668E+01  0.5070019E+04  0.8880575E+02  0.2556357E+04 -0.2211259E+03  0.0000000E+00  0.0000000E+00  0.0000000E+00  0.0000000E+00  0.0000000E+00  0.0000000E+00
 -0.7600000E+01  0.2459081E+04 -0.8014024E+02 -0.3772410E+05 -0.3182402E+03  0.7098271E+04 -0.3746059E+01 -0.1297171E+04  0.2476872E+02  0.5777491E+04 -0.7361230E+02 -0.2664001E+04 -0.2551030E+03  0.0000000E+00  0.0000000E+00  0.0000000E+00  0.0000000E+00  0.0000000E+00  0.0000000E+00
 -0.7500000E+01  0.3376033E+04 -0.1133948E+03 -0.3594216E+05 -0.2621591E+03  0.6022036E+03 -0.2897465E+01 -0.1912889E+04  0.4231242E+02  0.4651501E+04 -0.2283622E+03 -0.6434692E+04 -0.2448066E+03  0.0000000E+00  0.0000000E+00  0.0000000E+00  0.0000000E+00  0.0000000E+00  0.0000000E+00
 -0.7400000E+01  0.3051037E+04 -0.1141697E+03 -0.3041523E+05 -0.1361569E+03 -0.8233502E+04 -0.7934033E+00 -0.2216377E+04  0.5015833E+02  0.2066594E+04 -0.3308767E+03 -0.7623256E+04 -0.1951411E+03  0.0000000E+00  0.0000000E+00  0.0000000E+00  0.0000000E+00  0.0000000E+00  0.0000000E+00
 -0.7300000E+01  0.1635934E+04 -0.8375310E+02 -0.2310816E+05  0.2713492E+02 -0.1664169E+05  0.1327336E+01 -0.2138175E+04  0.4565274E+02 -0.1129967E+04 -0.3485971E+03 -0.5892006E+04 -0.1236872E+03  0.0000000E+00  0.0000000E+00  0.0000000E+00  0.0000000E+00  0.0000000E+00  0.0000000E+00
 -0.7200000E+01 -0.3489142E+03 -0.3197318E+02 -0.1648818E+05  0.1843595E+03 -0.2154367E+05  0.2209082E+01 -0.1721888E+04  0.2953803E+02 -0.3892928E+04 -0.2713587E+03 -0.1787137E+04 -0.5465488E+02  0.0000000E+00  0.0000000E+00  0.0000000E+00  0.0000000E+00  0.0000000E+00  0.0000000E+00
 -0.7100000E+01 -0.2189457E+04  0.2595758E+02 -0.1269037E+05  0.2934539E+03 -0.2056560E+05  0.1189782E+01 -0.1108711E+04  0.5818054E+01 -0.5318211E+04 -0.1158516E+03  0.3444094E+04 -0.1076348E+02  0.0000000E+00  0.0000000E+00  0.0000000E+00  0.0000000E+00  0.0000000E+00  0.0000000E+00
 -0.7000000E+01 -0.3217662E+04  0.7392715E+02 -0.1281615E+05  0.3253910E+03 -0.1294096E+05 -0.1418254E+01 -0.4934359E+03 -0.1930580E+02 -0.4935518E+04  0.7753745E+02  0.8248315E+04 -0.5766430E+01  0.0000000E+00  0.0000000E+00  0.0000000E+00  0.0000000E+00  0.0000000E+00  0.0000000E+00
 -0.6900000E+01 -0.3039482E+04  0.9942081E+02 -0.1660078E+05  0.2722638E+03  0.4329201E+01 -0.4365679E+01 -0.6580966E+02 -0.3913889E+02 -0.2859130E+04  0.2550632E+03  0.1124902E+05 -0.4009618E+02  0.0000000E+00  0.0000000E+00  0.0000000E+00  0.0000000E+00  0.0000000E+00  0.0000000E+00
 -0.6800000E+01 -0.1675471E+04  0.9675266E+02 -0.2255763E+05  0.1493490E+03  0.1498966E+05 -0.5945092E+01  0.4456226E+02 -0.4835350E+02  0.2527325E+03  0.3644503E+03  0.1166494E+05 -0.1010469E+03  0.0000000E+00  0.0000000E+00  0.0000000E+00  0.0000000E+00  0.0000000E+00  0.0000000E+00
 -0.6700000E+01  0.4332067E+03  0.6822161E+02 -0.2854181E+05 -0.9404925E+01  0.2755983E+05 -0.4750561E+01 -0.1967538E+03 -0.4448103E+02  0.3416521E+04  0.3701142E+03  0.9534773E+04 -0.1673740E+03  0.0000000E+00  0.0000000E+00  0.0000000E+00  0.0000000E+00  0.0000000E+00  0.0000000E+00
 -0.6600000E+01  0.2558908E+04  0.2299269E+02 -0.3253021E+05 -0.1611133E+03  0.3333031E+05 -0.4173822E+00 -0.7238099E+03 -0.2861067E+02  0.5648013E+04  0.2642856E+03  0.5680580E+04 -0.2167006E+03  0.0000000E+00  0.0000000E+00  0.0000000E+00  0.0000000E+00  0.0000000E+00  0.0000000E+00
 -0.6500000E+01  0.3921585E+04 -0.2583083E+02 -0.3334175E+05 -0.2660338E+03  0.2935678E+05  0.5981302E+01 -0.1395109E+04 -0.5101768E+01  0.6286395E+04  0.7060120E+02  0.1427191E+04 -0.2331917E+03  0.0000000E+00  0.0000000E+00  0.0000000E+00  0.0000000E+00  0.0000000E+00  0.0000000E+00
 -0.6400000E+01  0.3950030E+04 -0.6501585E+02 -0.3104003E+05 -0.2984628E+03  0.1522250E+05  0.1210703E+02 -0.2039292E+04  0.1960793E+02  0.5210682E+04 -0.1612588E+03 -0.1828713E+04 -0.2128671E+03  0.0000000E+00  0.0000000E+00  0.0000000E+00  0.0000000E+00  0.0000000E+00  0.0000000E+00
 -0.6300000E+01  0.2486106E+04 -0.8476586E+02 -0.2687405E+05 -0.2533393E+03 -0.6514809E+04  0.1511064E+02 -0.2506476E+04  0.3875508E+02  0.2876858E+04 -0.3686680E+03 -0.3058983E+04 -0.1647408E+03  0.0000000E+00  0.0000000E+00  0.0000000E+00  0.0000000E+00  0.0000000E+00  0.0000000E+00
 -0.6200000E+01 -0.1357489E+03 -0.8109829E+02 -0.2277510E+05 -0.1467719E+03 -0.3070935E+05  0.1275178E+02 -0.2708907E+04  0.4707356E+02  0.1632094E+03 -0.4933965E+03 -0.1912271E+04 -0.1074140E+03  0.0000000E+00  0.0000000E+00  0.0000000E+00  0.0000000E+00  0.0000000E+00  0.0000000E+00
 -0.6100000E+01 -0.3164135E+04 -0.5647455E+02 -0.2059007E+05 -0.1054871E+02 -0.5081100E+05  0.4478162E+01 -0.2639327E+04  0.4218454E+02 -0.1924949E+04 -0.4983127E+03  0.1204740E+04 -0.6231487E+02  0.0000000E+00  0.0000000E+00  0.0000000E+00  0.0000000E+00  0.0000000E+00  0.0000000E+00
 -0.6000000E+01 -0.5643839E+04 -0.1866198E+02 -0.2133158E+05  0.1175481E+03 -0.6057243E+05 -0.7976373E+01 -0.2363022E+04  0.2518231E+02 -0.2592932E+04 -0.3785823E+03  0.5293655E+04 -0.4595758E+02  0.0000000E+00  0.0000000E+00  0.0000000E+00  0.0000000E+00  0.0000000E+00  0.0000000E+00
 -0.5900000E+01 -0.6705157E+04  0.2171447E+02 -0.2472525E+05  0.2046316E+03 -0.5583757E+05 -0.2079681E+02 -0.1988796E+04  0.2805968E+00 -0.1524387E+04 -0.1639901E+03  0.9115700E+04 -0.6393060E+02  0.0000000E+00  0.0000000E+00  0.0000000E+00  0.0000000E+00  0.0000000E+00  0.0000000E+00
 -0.5800000E+01 -0.5842305E+04  0.5415214E+02 -0.2924354E+05  0.2315558E+03 -0.3591273E+05 -0.2915032E+02 -0.1630648E+04 -0.2635550E+02  0.1012214E+04  0.8854183E+02  0.1160632E+05 -0.1087991E+03  0.0000000E+00  0.0000000E+00  0.0000000E+00  0.0000000E+00  0.0000000E+00  0.0000000E+00
 -0.5700000E+01 -0.3094860E+04  0.7095023E+02 -0.3263834E+05  0.1972432E+03 -0.4110302E+04 -0.2883842E+02 -0.1374213E+04 -0.4824570E+02  0.4254665E+04  0.3102942E+03  0.1221241E+05 -0.1627162E+03  0.0000000E+00  0.0000000E+00  0.0000000E+00  0.0000000E+00  0.0000000E+00  0.0000000E+00
 -0.5600000E+01  0.9267322E+03  0.6891957E+02 -0.3280811E+05  0.1174743E+03  0.3274246E+05 -0.1800971E+02 -0.1259119E+04 -0.6024476E+02  0.7207597E+04  0.4397427E+03  0.1104093E+05 -0.2039311E+03  0.0000000E+00  0.0000000E+00  0.0000000E+00  0.0000000E+00  0.0000000E+00  0.0000000E+00
 -0.5500000E+01  0.5184728E+04  0.4978695E+02 -0.2869810E+05  0.1885418E+02  0.6576370E+05  0.1701857E+01 -0.1281598E+04 -0.5976974E+02  0.8985950E+04  0.4398232E+03  0.8774359E+04 -0.2149555E+03  0.0000000E+00  0.0000000E+00  0.0000000E+00  0.0000000E+00  0.0000000E+00  0.0000000E+00
 -0.5400000E+01  0.8489868E+04  0.1933835E+02 -0.2090050E+05 -0.6991747E+02  0.8611871E+05  0.2512331E+02 -0.1413669E+04 -0.4730947E+02  0.9126567E+04  0.3085508E+03  0.6389018E+04 -0.1895105E+03  0.0000000E+00  0.0000000E+00  0.0000000E+00  0.0000000E+00  0.0000000E+00  0.0000000E+00
 -0.5300000E+01  0.9831814E+04 -0.1433778E+02 -0.1170201E+05 -0.1266338E+03  0.8724812E+05  0.4476439E+02 -0.1628395E+04 -0.2613207E+02  0.7760926E+04  0.7990601E+02  0.4781313E+04 -0.1356812E+03  0.0000000E+00  0.0000000E+00  0.0000000E+00  0.0000000E+00  0.0000000E+00  0.0000000E+00
 -0.5200000E+01  0.8670094E+04 -0.4297210E+02 -0.4502437E+04 -0.1414058E+03  0.6665652E+05  0.5306877E+02 -0.1918887E+04 -0.1325597E+01  0.5587191E+04 -0.1853252E+03  0.4437820E+04 -0.7394925E+02  0.0000000E+00  0.0000000E+00  0.0000000E+00  0.0000000E+00  0.0000000E+00  0.0000000E+00
 -0.5100000E+01  0.5101660E+04 -0.6005053E+02 -0.2744841E+04 -0.1181330E+03  0.2679355E+05  0.4504863E+02 -0.2301146E+04  0.2152695E+02  0.3645940E+04 -0.4161832E+03  0.5268933E+04 -0.3051530E+02  0.0000000E+00  0.0000000E+00  0.0000000E+00  0.0000000E+00  0.0000000E+00  0.0000000E+00
 -0.5000000E+01 -0.1435614E+03 -0.6214665E+02 -0.8679934E+04 -0.7150562E+02 -0.2522258E+05  0.2043384E+02 -0.2798180E+04  0.3767215E+02  0.2970031E+04 -0.5509466E+03  0.6666043E+04 -0.2799477E+02  0.0000000E+00  0.0000000E+00  0.0000000E+00  0.0000000E+00  0.0000000E+00  0.0000000E+00
 -0.4900000E+01 -0.5878670E+04 -0.4943892E+02 -0.2237224E+05 -0.2086306E+02 -0.7900249E+05 -0.1547987E+02 -0.3411176E+04  0.4418119E+02  0.4222905E+04 -0.5538521E+03  0.7761831E+04 -0.7659965E+02  0.0000000E+00  0.0000000E+00  0.0000000E+00  0.0000000E+00  0.0000000E+00  0.0000000E+00
 -0.4800000E+01 -0.1075803E+05 -0.2540978E+02 -0.4131261E+05  0.1683006E+02 -0.1230872E+06 -0.5275429E+02 -0.4090488E+04  0.4040918E+02  0.7447404E+04 -0.4244250E+03  0.7797004E+04 -0.1689428E+03  0.0000000E+00  0.0000000E+00  0.0000000E+00  0.0000000E+00  0.0000000E+00  0.0000000E+00
 -0.4700000E+01 -0.1361503E+05  0.4104843E+01 -0.6082862E+05  0.3248093E+02 -0.1474406E+06 -0.7942687E+02 -0.4721299E+04  0.2787839E+02  0.1201317E+05 -0.1969150E+03  0.6455202E+04 -0.2805231E+03  0.0000000E+00  0.0000000E+00  0.0000000E+00  0.0000000E+00  0.0000000E+00  0.0000000E+00
 -0.4600000E+01 -0.1374766E+05  0.3225470E+02 -0.7523894E+05  0.2708803E+02 -0.1456551E+06 -0.8516390E+02 -0.5135125E+04  0.9695913E+01  0.1678779E+05  0.6985413E+02  0.4035084E+04 -0.3761617E+03  0.0000000E+00  0.0000000E+00  0.0000000E+00  0.0000000E+00  0.0000000E+00  0.0000000E+00
 -0.4500000E+01 -0.1107755E+05  0.5262877E+02 -0.7945338E+05  0.1014484E+02 -0.1163683E+06 -0.6486301E+02 -0.5149532E+04 -0.1028195E+02  0.2048314E+05  0.3091574E+03  0.1383072E+04 -0.4206467E+03  0.0000000E+00  0.0000000E+00  0.0000000E+00  0.0000000E+00  0.0000000E+00  0.0000000E+00
 -0.4400000E+01 -0.6146069E+04  0.6056223E+02 -0.7055505E+05 -0.4970401E+01 -0.6358428E+05 -0.2101404E+02 -0.4627405E+04 -0.2830253E+02  0.2207004E+05  0.4647392E+03 -0.4030105E+03 -0.3903675E+03  0.0000000E+00  0.0000000E+00  0.0000000E+00  0.0000000E+00  0.0000000E+00  0.0000000E+00
 -0.4300000E+01  0.4216673E+02  0.5409806E+02 -0.4887451E+05 -0.6783580E+01  0.4137849E+04  0.3610145E+02 -0.3537644E+04 -0.4139028E+02  0.2112708E+05  0.5056361E+03 -0.4039465E+03 -0.2821646E+03  0.0000000E+00  0.0000000E+00  0.0000000E+00  0.0000000E+00  0.0000000E+00  0.0000000E+00
 -0.4200000E+01  0.6276763E+04  0.3444513E+02 -0.1819552E+05  0.9474421E+01  0.7540594E+05  0.9067809E+02 -0.1995449E+04 -0.4773392E+02  0.1800860E+05  0.4334032E+03  0.1709859E+04 -0.1163668E+03  0.0000000E+00  0.0000000E+00  0.0000000E+00  0.0000000E+00  0.0000000E+00  0.0000000E+00
 -0.4100000E+01  0.1142484E+05  0.5837634E+01  0.1502137E+05  0.3981943E+02  0.1382126E+06  0.1256654E+03 -0.2636790E+03 -0.4677425E+02  0.1377120E+05  0.2799500E+03  0.5442444E+04  0.6731533E+02  0.0000000E+00  0.0000000E+00  0.0000000E+00  0.0000000E+00  0.0000000E+00  0.0000000E+00
 -0.4000000E+01  0.1466378E+05 -0.2522593E+02  0.4321565E+05  0.7293976E+02  0.1821443E+06  0.1279081E+03  0.1292379E+04 -0.3905590E+02  0.9875049E+04  0.9696680E+02  0.9516025E+04  0.2201297E+03  0.0000000E+00  0.0000000E+00  0.0000000E+00  0.0000000E+00  0.0000000E+00  0.0000000E+00
 -0.3900000E+01  0.1560956E+05 -0.5129523E+02  0.5967504E+05  0.9454852E+02  0.2001264E+06  0.9261790E+02  0.2289925E+04 -0.2593865E+02  0.7748484E+04 -0.5973431E+02  0.1220543E+05  0.2979417E+03  0.0000000E+00  0.0000000E+00  0.0000000E+00  0.0000000E+00  0.0000000E+00  0.0000000E+00
 -0.3800000E+01  0.1432090E+05 -0.6562754E+02  0.6029548E+05  0.9303484E+02  0.1893813E+06  0.2571495E+02  0.2431769E+04 -0.9259890E+01  0.8351445E+04 -0.1462536E+03  0.1187086E+05  0.2741122E+03  0.0000000E+00  0.0000000E+00  0.0000000E+00  0.0000000E+00  0.0000000E+00  0.0000000E+00
 -0.3700000E+01  0.1119835E+05 -0.6387845E+02  0.4464089E+05  0.6429957E+02  0.1514910E+06 -0.5687563E+02  0.1597879E+04  0.8992047E+01  0.1187461E+05 -0.1424139E+03  0.7518252E+04  0.1476358E+03  0.0000000E+00  0.0000000E+00  0.0000000E+00  0.0000000E+00  0.0000000E+00  0.0000000E+00
 -0.3600000E+01  0.6824895E+04 -0.4542029E+02  0.1598885E+05  0.1392131E+02  0.9166173E+05 -0.1330201E+03 -0.1042056E+03  0.2696957E+02  0.1767179E+05 -0.5614053E+02 -0.8064345E+03 -0.5606960E+02  0.0000000E+00  0.0000000E+00  0.0000000E+00  0.0000000E+00  0.0000000E+00  0.0000000E+00
 -0.3500000E+01  0.1805075E+04 -0.1389162E+02 -0.1965014E+05 -0.4426018E+02  0.1745085E+05 -0.1803561E+03 -0.2349440E+04  0.4321667E+02  0.2444891E+05  0.8050996E+02 -0.1193986E+05 -0.2920855E+03  0.0000000E+00  0.0000000E+00  0.0000000E+00  0.0000000E+00  0.0000000E+00  0.0000000E+00
 -0.3400000E+01 -0.3349047E+04  0.2329115E+02 -0.5524139E+05 -0.9276966E+02 -0.6269886E+05 -0.1828147E+03 -0.4667533E+04  0.5687225E+02  0.3065245E+05  0.2221129E+03 -0.2389188E+05 -0.5086087E+03  0.0000000E+00  0.0000000E+00  0.0000000E+00  0.0000000E+00  0.0000000E+00  0.0000000E+00
 -0.3300000E+01 -0.8260828E+04  0.5649643E+02 -0.8464812E+05 -0.1167743E+03 -0.1407875E+06 -0.1357665E+03 -0.6559586E+04  0.6780000E+02  0.3493554E+05  0.3239894E+03 -0.3443210E+05 -0.6614531E+03  0.0000000E+00  0.0000000E+00  0.0000000E+00  0.0000000E+00  0.0000000E+00  0.0000000E+00
 -0.3200000E+01 -0.1266571E+05  0.7624722E+02 -0.1041831E+06 -0.1097684E+03 -0.2101970E+06 -0.4816461E+02 -0.7625934E+04  0.7659843E+02  0.3655403E+05  0.3553894E+03 -0.4179004E+05 -0.7259871E+03  0.0000000E+00  0.0000000E+00  0.0000000E+00  0.0000000E+00  0.0000000E+00  0.0000000E+00
 -0.3100000E+01 -0.1635096E+05  0.7584684E+02 -0.1133328E+06 -0.7654980E+02 -0.2661364E+06  0.5913067E+02 -0.7666194E+04  0.8444598E+02  0.3556680E+05  0.3079672E+03 -0.4523659E+05 -0.7028810E+03  0.0000000E+00  0.0000000E+00  0.0000000E+00  0.0000000E+00  0.0000000E+00  0.0000000E+00
 -0.3000000E+01 -0.1909837E+05  0.5354630E+02 -0.1144494E+06 -0.3220284E+02 -0.3056165E+06  0.1585600E+03 -0.6719212E+04  0.9276361E+02  0.3277559E+05  0.1973090E+03 -0.4533550E+05 -0.6159283E+03  0.0000000E+00  0.0000000E+00  0.0000000E+00  0.0000000E+00  0.0000000E+00  0.0000000E+00
 -0.2900000E+01 -0.2066479E+05  0.1356381E+02 -0.1115412E+06  0.2804551E+01 -0.3270995E+06  0.2232587E+03 -0.5028144E+04  0.1027333E+03  0.2942444E+05  0.5743856E+02 -0.4375427E+05 -0.5027525E+03  0.0000000E+00  0.0000000E+00  0.0000000E+00  0.0000000E+00  0.0000000E+00  0.0000000E+00
 -0.2800000E+01 -0.2081555E+05 -0.3449041E+02 -0.1085684E+06  0.9939342E+01 -0.3300210E+06  0.2345816E+03 -0.2939481E+04  0.1147814E+03  0.2675537E+05 -0.6975591E+02 -0.4266748E+05 -0.4014292E+03  0.0000000E+00  0.0000000E+00  0.0000000E+00  0.0000000E+00  0.0000000E+00  0.0000000E+00
 -0.2700000E+01 -0.1940097E+05 -0.7780824E+02 -0.1078184E+06 -0.2010643E+02 -0.3143773E+06  0.1875801E+03 -0.7674538E+03  0.1281808E+03  0.2556532E+05 -0.1468382E+03 -0.4393007E+05 -0.3373904E+03  0.0000000E+00  0.0000000E+00  0.0000000E+00  0.0000000E+00  0.0000000E+00  0.0000000E+00
 -0.2600000E+01 -0.1644392E+05 -0.1037398E+03 -0.1088978E+06 -0.8275154E+02 -0.2805169E+06  0.9278823E+02  0.1331663E+04  0.1409372E+03  0.2590999E+05 -0.1512613E+03 -0.4829455E+05 -0.3148536E+03  0.0000000E+00  0.0000000E+00  0.0000000E+00  0.0000000E+00  0.0000000E+00  0.0000000E+00
 -0.2500000E+01 -0.1219781E+05 -0.1034431E+03 -0.1086918E+06 -0.1593636E+03 -0.2291841E+06 -0.2630000E+02  0.3430485E+04  0.1500703E+03  0.2705520E+05 -0.8106530E+02 -0.5495413E+05 -0.3155923E+03  0.0000000E+00  0.0000000E+00  0.0000000E+00  0.0000000E+00  0.0000000E+00  0.0000000E+00
 -0.2400000E+01 -0.7140569E+04 -0.7477569E+02 -0.1023190E+06 -0.2220616E+03 -0.1617661E+06 -0.1394309E+03  0.5817490E+04  0.1522960E+03  0.2769587E+05  0.4546389E+02 -0.6160866E+05 -0.3054665E+03  0.0000000E+00  0.0000000E+00  0.0000000E+00  0.0000000E+00  0.0000000E+00  0.0000000E+00
 -0.2300000E+01 -0.1891736E+04 -0.2348985E+02 -0.8479239E+05 -0.2423046E+03 -0.8063057E+05 -0.2177651E+03  0.8896609E+04  0.1449817E+03  0.2637816E+05  0.1956562E+03 -0.6509057E+05 -0.2466196E+03  0.0000000E+00  0.0000000E+00  0.0000000E+00  0.0000000E+00  0.0000000E+00  0.0000000E+00
 -0.2200000E+01  0.2931597E+04  0.3778374E+02 -0.5285543E+05 -0.2007124E+03  0.1060155E+05 -0.2417131E+03  0.1302528E+05  0.1271310E+03  0.2199143E+05  0.3317802E+03 -0.6239812E+05 -0.1113778E+03  0.0000000E+00  0.0000000E+00  0.0000000E+00  0.0000000E+00  0.0000000E+00  0.0000000E+00
 -0.2100000E+01  0.6879005E+04  0.9266262E+02 -0.6395767E+04 -0.9497096E+02  0.1069916E+06 -0.2062098E+03  0.1834026E+05  0.1000911E+03  0.1417271E+05  0.4209845E+03 -0.5183223E+05  0.1067233E+03  0.0000000E+00  0.0000000E+00  0.0000000E+00  0.0000000E+00  0.0000000E+00  0.0000000E+00
 -0.2000000E+01  0.9796542E+04  0.1254933E+03  0.5104269E+05  0.5693286E+02  0.2025156E+06 -0.1219268E+03  0.2462976E+05  0.6770543E+02  0.3491102E+04  0.4430969E+03 -0.3386265E+05  0.3884854E+03  0.0000000E+00  0.0000000E+00  0.0000000E+00  0.0000000E+00  0.0000000E+00  0.0000000E+00
 -0.1900000E+01  0.1187333E+05  0.1259582E+03  0.1128510E+06  0.2195959E+03  0.2906081E+06 -0.1210613E+02  0.3130089E+05  0.3576006E+02 -0.8653122E+04  0.3944370E+03 -0.1140161E+05  0.6927958E+03  0.0000000E+00  0.0000000E+00  0.0000000E+00  0.0000000E+00  0.0000000E+00  0.0000000E+00
 -0.1800000E+01  0.1357881E+05  0.9244027E+02  0.1709121E+06  0.3488025E+03  0.3649491E+06  0.9404237E+02  0.3746680E+05  0.1075976E+02 -0.2039069E+05  0.2871344E+03  0.1068191E+05  0.9676016E+03  0.0000000E+00  0.0000000E+00  0.0000000E+00  0.0000000E+00  0.0000000E+00  0.0000000E+00
 -0.1700000E+01  0.1549918E+05  0.3304916E+02  0.2176755E+06  0.4036302E+03  0.4203508E+06  0.1694476E+03  0.4214080E+05 -0.1718011E+01 -0.2989944E+05  0.1447710E+03  0.2674412E+05  0.1164785E+04  0.0000000E+00  0.0000000E+00  0.0000000E+00  0.0000000E+00  0.0000000E+00  0.0000000E+00
 -0.1600000E+01  0.1811621E+05 -0.3616162E+02  0.2481381E+06  0.3586202E+03  0.4535598E+06  0.1964535E+03  0.4449102E+05  0.1319820E+01 -0.3591804E+05 -0.3920342E+01  0.3195589E+05  0.1254332E+04  0.0000000E+00  0.0000000E+00  0.0000000E+00  0.0000000E+00  0.0000000E+00  0.0000000E+00
 -0.1500000E+01  0.2159566E+05 -0.9543930E+02  0.2611358E+06  0.2123794E+03  0.4637937E+06  0.1712200E+03  0.4408499E+05  0.1908208E+02 -0.3809991E+05 -0.1313308E+03  0.2385348E+05  0.1233389E+04  0.0000000E+00  0.0000000E+00  0.0000000E+00  0.0000000E+00  0.0000000E+00  0.0000000E+00
 -0.1400000E+01  0.2565595E+05 -0.1269218E+03  0.2595610E+06 -0.1012468E+02  0.4528729E+06  0.1040833E+03  0.4104974E+05  0.4664974E+02 -0.3709845E+05 -0.2156529E+03  0.3373273E+04  0.1127316E+04  0.0000000E+00  0.0000000E+00  0.0000000E+00  0.0000000E+00  0.0000000E+00  0.0000000E+00
 -0.1300000E+01  0.2956881E+05 -0.1199838E+03  0.2494395E+06 -0.2625436E+03  0.4248868E+06  0.1592480E+02  0.3609184E+05  0.7568865E+02 -0.3435776E+05 -0.2432435E+03 -0.2499426E+05  0.9824285E+03  0.0000000E+00  0.0000000E+00  0.0000000E+00  0.0000000E+00  0.0000000E+00  0.0000000E+00
 -0.1200000E+01  0.3230668E+05 -0.7472580E+02  0.2381514E+06 -0.4882537E+03  0.3854268E+06 -0.6824210E+02  0.3035837E+05  0.9614478E+02 -0.3167365E+05 -0.2088639E+03 -0.5406303E+05  0.8526312E+03  0.0000000E+00  0.0000000E+00  0.0000000E+00  0.0000000E+00  0.0000000E+00  0.0000000E+00
 -0.1100000E+01  0.3280723E+05 -0.2465306E+01  0.2323328E+06 -0.6346205E+03  0.3405358E+06 -0.1264868E+03  0.2516506E+05  0.9856689E+02 -0.3066080E+05 -0.1146643E+03 -0.7566388E+05  0.7841146E+03  0.0000000E+00  0.0000000E+00  0.0000000E+00  0.0000000E+00  0.0000000E+00  0.0000000E+00
 -0.1000000E+01  0.3028613E+05  0.7706897E+02  0.2360870E+06 -0.6664824E+03  0.2955663E+06 -0.1458475E+03  0.2165772E+05  0.7650226E+02 -0.3228827E+05  0.3105258E+02 -0.8279127E+05  0.8028146E+03  0.0000000E+00  0.0000000E+00  0.0000000E+00  0.0000000E+00  0.0000000E+00  0.0000000E+00
 -0.9000000E+00  0.2450976E+05  0.1411610E+03  0.2500204E+06 -0.5750828E+03  0.2542039E+06 -0.1252446E+03  0.2049759E+05  0.2834565E+02 -0.3662371E+05  0.2145635E+03 -0.7160659E+05  0.9083829E+03  0.0000000E+00  0.0000000E+00  0.0000000E+00  0.0000000E+00  0.0000000E+00  0.0000000E+00
 -0.8000000E+00  0.1594387E+05  0.1706492E+03  0.2713602E+06 -0.3799885E+03  0.2178678E+06 -0.7474800E+02  0.2165884E+05 -0.4187151E+02 -0.4285813E+05  0.4168712E+03 -0.4272580E+05  0.1076346E+04  0.0000000E+00  0.0000000E+00  0.0000000E+00  0.0000000E+00  0.0000000E+00  0.0000000E+00
 -0.7000000E+00  0.5725160E+04  0.1556821E+03  0.2950658E+06 -0.1235177E+03  0.1856323E+06 -0.1164942E+02  0.2440111E+05 -0.1250135E+03 -0.4959530E+05  0.6138417E+03 -0.1386908E+04  0.1267446E+04  0.0000000E+00  0.0000000E+00  0.0000000E+00  0.0000000E+00  0.0000000E+00  0.0000000E+00
 -0.6000000E+00 -0.4549438E+04  0.9894051E+02  0.3155456E+06  0.1406357E+03  0.1547013E+06  0.4526698E+02  0.2743292E+05 -0.2086238E+03 -0.5530655E+05  0.7772684E+03  0.4361218E+05  0.1440925E+04  0.0000000E+00  0.0000000E+00  0.0000000E+00  0.0000000E+00  0.0000000E+00  0.0000000E+00
 -0.5000000E+00 -0.1317010E+05  0.1526807E+02  0.3284133E+06  0.3612902E+03  0.1213354E+06  0.8139800E+02  0.2923061E+05 -0.2795589E+03 -0.5880307E+05  0.8776938E+03  0.8197759E+05  0.1567293E+04  0.0000000E+00  0.0000000E+00  0.0000000E+00  0.0000000E+00  0.0000000E+00  0.0000000E+00
 -0.4000000E+00 -0.1871130E+05 -0.7230721E+02  0.3317225E+06  0.5022526E+03  0.8202314E+05  0.9020964E+02  0.2843248E+05 -0.3268446E+03 -0.5957505E+05  0.8892034E+03  0.1044703E+06  0.1636409E+04  0.0000000E+00  0.0000000E+00  0.0000000E+00  0.0000000E+00  0.0000000E+00  0.0000000E+00
 -0.3000000E+00 -0.2037554E+05 -0.1390984E+03  0.3263163E+06  0.5499922E+03  0.3461436E+05  0.7427488E+02  0.2420555E+05 -0.3440552E+03 -0.5789492E+05  0.7955231E+03  0.1052782E+06  0.1658375E+04  0.0000000E+00  0.0000000E+00  0.0000000E+00  0.0000000E+00  0.0000000E+00  0.0000000E+00
 -0.2000000E+00 -0.1819150E+05 -0.1659678E+03  0.3152188E+06  0.5146446E+03 -0.2086083E+05  0.4335804E+02  0.1648618E+05 -0.3306363E+03 -0.5465953E+05  0.5959009E+03  0.8357397E+05  0.1657151E+04  0.0000000E+00  0.0000000E+00  0.0000000E+00  0.0000000E+00  0.0000000E+00  0.0000000E+00
 -0.1000000E+00 -0.1301203E+05 -0.1450917E+03  0.3023173E+06  0.4244836E+03 -0.8190311E+05  0.1038722E+02  0.6028787E+04 -0.2918547E+03 -0.5103248E+05  0.3088212E+03  0.4383012E+05  0.1659338E+04  0.0000000E+00  0.0000000E+00  0.0000000E+00  0.0000000E+00  0.0000000E+00  0.0000000E+00
  0.0000000E+00 -0.6310339E+04 -0.8252533E+02  0.2908168E+06  0.3159056E+03 -0.1438748E+06 -0.1321690E+02 -0.5752911E+04 -0.2374182E+03 -0.4801313E+05 -0.2822301E+02 -0.5207519E+04  0.1682168E+04  0.0000000E+00  0.0000000E+00  0.0000000E+00  0.0000000E+00  0.0000000E+00  0.0000000E+00
  0.1000000E+00  0.1736710E+03  0.3281363E+01  0.2820090E+06  0.2221633E+03 -0.2008876E+06 -0.2126962E+02 -0.1711229E+05 -0.1791319E+03 -0.4607932E+05 -0.3637847E+03 -0.5262859E+05  0.1725062E+04  0.0000000E+00  0.0000000E+00  0.0000000E+00  0.0000000E+00  0.0000000E+00  0.0000000E+00
  0.2000000E+00  0.4845599E+04  0.8667435E+02  0.2747895E+06  0.1642698E+03 -0.2470453E+06 -0.1442592E+02 -0.2637922E+05 -0.1282007E+03 -0.4502567E+05 -0.6419052E+03 -0.8800062E+05  0.1767941E+04  0.0000000E+00  0.0000000E+00  0.0000000E+00  0.0000000E+00  0.0000000E+00  0.0000000E+00
  0.3000000E+00  0.6621882E+04  0.1422368E+03  0.2660946E+06  0.1466084E+03 -0.2777444E+06  0.7475778E+00 -0.3234632E+05 -0.9284556E+02 -0.4405244E+05 -0.8140963E+03 -0.1038570E+06  0.1777099E+04  0.0000000E+00  0.0000000E+00  0.0000000E+00  0.0000000E+00  0.0000000E+00  0.0000000E+00
  0.4000000E+00  0.5157504E+04  0.1523174E+03  0.2521107E+06  0.1581819E+03 -0.2907116E+06  0.1476247E+02 -0.3453363E+05 -0.7679497E+02 -0.4207431E+05 -0.8509836E+03 -0.9739225E+05  0.1716970E+04  0.0000000E+00  0.0000000E+00  0.0000000E+00  0.0000000E+00  0.0000000E+00  0.0000000E+00