 VARIABLES="X" "Y" "Z" "abs(p) (Pa)" "angle(p) (rad)"
ZONE N=   2720,E =    2069, F=FEPOINT, ET=QUADRILATERAL
 -0.767116010      -1.12776399       0.00000000       971.218323       1.59657073    
 -0.769354999      -1.12002099     -0.303523988       971.218323       1.59657073    
 -0.896136999      -1.02028203     -0.303463012       971.218323       1.59657073    
 -0.894908011      -1.02288902       0.00000000       971.218323       1.59657073    
 -0.767116010      -1.12776399       0.00000000       1049.54663       1.59656727    
 -0.630888999      -1.20308697       0.00000000       1049.54663       1.59656727    
 -0.635528028      -1.19958198     -0.303541005       1049.54663       1.59656727    
 -0.769354999      -1.12002099     -0.303523988       1049.54663       1.59656727    
 -0.635528028      -1.19958198     -0.303541005       1006.79791       1.60140586    
 -0.495362997      -1.26606500     -0.303519011       1006.79791       1.60140586    
 -0.499298006      -1.26809204     -0.606999993       1006.79791       1.60140586    
 -0.640147984      -1.19813800     -0.606998026       1006.79791       1.60140586    
 -0.635528028      -1.19958198     -0.303541005       946.252808       1.60143578    
 -0.640147984      -1.19813800     -0.606998026       946.252808       1.60143578    
 -0.777105987      -1.11956596     -0.606999993       946.252808       1.60143578    
 -0.769354999      -1.12002099     -0.303523988       946.252808       1.60143578    
 -0.635528028      -1.19958198     -0.303541005       1108.96167       1.59665585    
 -0.630888999      -1.20308697       0.00000000       1108.96167       1.59665585    
 -0.494486004      -1.26955199       0.00000000       1108.96167       1.59665585    
 -0.495362997      -1.26606500     -0.303519011       1108.96167       1.59665585    
 -0.494486004      -1.26955199       0.00000000       1159.33350       1.59662747    
 -0.346311986      -1.31449997       0.00000000       1159.33350       1.59662747    
 -0.346753001      -1.31307304     -0.303510010       1159.33350       1.59662747    
 -0.495362997      -1.26606500     -0.303519011       1159.33350       1.59662747    
 -0.346753001      -1.31307304     -0.303510010       1086.46179       1.60130119    
 -0.193608001      -1.34425998     -0.303494990       1086.46179       1.60130119    
 -0.195028007      -1.34579206     -0.606999993       1086.46179       1.60130119    
 -0.348751009      -1.31376004     -0.606999993       1086.46179       1.60130119    
 -0.346753001      -1.31307304     -0.303510010       1052.75562       1.60137820    
 -0.348751009      -1.31376004     -0.606999993       1052.75562       1.60137820    
 -0.499298006      -1.26809204     -0.606999993       1052.75562       1.60137820    
 -0.495362997      -1.26606500     -0.303519011       1052.75562       1.60137820    
 -0.346753001      -1.31307304     -0.303510010       1197.16516       1.59654450    
 -0.346311986      -1.31449997       0.00000000       1197.16516       1.59654450    
 -0.193381995      -1.34595394       0.00000000       1197.16516       1.59654450    
 -0.193608001      -1.34425998     -0.303494990       1197.16516       1.59654450    
 -0.193381995      -1.34595394       0.00000000       1223.99780       1.59640026    
  -3.75179984E-02  -1.36130500       0.00000000       1223.99780       1.59640026    
  -3.73950005E-02  -1.35827899     -0.303512007       1223.99780       1.59640026    
 -0.193608001      -1.34425998     -0.303494990       1223.99780       1.59640026    
  -3.73950005E-02  -1.35827899     -0.303512007       1107.09741       1.60129166    
  0.119547002      -1.35239303     -0.303498000       1107.09741       1.60129166    
  0.119135000      -1.35326600     -0.606999993       1107.09741       1.60129166    
  -3.82840000E-02  -1.36122894     -0.606998980       1107.09741       1.60129166    
  -3.73950005E-02  -1.35827899     -0.303512007       1105.72644       1.60127532    
  -3.82840000E-02  -1.36122894     -0.606998980       1105.72644       1.60127532    
 -0.195028007      -1.34579206     -0.606999993       1105.72644       1.60127532    
 -0.193608001      -1.34425998     -0.303494990       1105.72644       1.60127532    
  -3.73950005E-02  -1.35827899     -0.303512007       1227.49280       1.59634924    
  -3.75179984E-02  -1.36130500       0.00000000       1227.49280       1.59634924    
  0.119788997      -1.35320199       0.00000000       1227.49280       1.59634924    
  0.119547002      -1.35239303     -0.303498000       1227.49280       1.59634924    
  0.119788997      -1.35320199       0.00000000       1215.40369       1.59633636    
  0.276576012      -1.33565402       0.00000000       1215.40369       1.59633636    
  0.275435001      -1.33191597     -0.303496003       1215.40369       1.59633636    
  0.119547002      -1.35239303     -0.303498000       1215.40369       1.59633636    
  0.275435001      -1.33191597     -0.303496003       1093.48132       1.60081041    
  0.427076995      -1.28898001     -0.303507000       1093.48132       1.60081041    
  0.427242011      -1.28995001     -0.606999993       1093.48132       1.60081041    
  0.275831014      -1.33588004     -0.606999993       1093.48132       1.60081041    
  0.275435001      -1.33191597     -0.303496003       1117.50452       1.60086226    
  0.275831014      -1.33588004     -0.606999993       1117.50452       1.60086226    
  0.119135000      -1.35326600     -0.606999993       1117.50452       1.60086226    
  0.119547002      -1.35239303     -0.303498000       1117.50452       1.60086226    
  0.275435001      -1.33191597     -0.303496003       1187.89050       1.59630764    
  0.276576012      -1.33565402       0.00000000       1187.89050       1.59630764    
  0.427509993      -1.28986895       0.00000000       1187.89050       1.59630764    
  0.427076995      -1.28898001     -0.303507000       1187.89050       1.59630764    
  0.427509993      -1.28986895       0.00000000       1143.48853       1.59620202    
  0.574636996      -1.23315501       0.00000000       1143.48853       1.59620202    
  0.573706985      -1.23136795     -0.303485990       1143.48853       1.59620202    
  0.427076995      -1.28898001     -0.303507000       1143.48853       1.59620202    
  0.573706985      -1.23136795     -0.303485990       1000.46436       1.60067976    
  0.712854981      -1.15688002     -0.303496987       1000.46436       1.60067976    
  0.713809013      -1.15876603     -0.606999993       1000.46436       1.60067976    
  0.574283004      -1.23334301     -0.606999993       1000.46436       1.60067976    
  0.573706985      -1.23136795     -0.303485990       1054.93176       1.60068893    
  0.574283004      -1.23334301     -0.606999993       1054.93176       1.60068893    
  0.427242011      -1.28995001     -0.606999993       1054.93176       1.60068893    
  0.427076995      -1.28898001     -0.303507000       1054.93176       1.60068893    
  0.573706985      -1.23136795     -0.303485990       1082.48059       1.59617603    
  0.574636996      -1.23315501       0.00000000       1082.48059       1.59617603    
  0.713741004      -1.15880203       0.00000000       1082.48059       1.59617603    
  0.712854981      -1.15688002     -0.303496987       1082.48059       1.59617603    
  0.713741004      -1.15880203       0.00000000       1011.50592       1.59605944    
  0.841937006      -1.06636095       0.00000000       1011.50592       1.59605944    
  0.841498017      -1.06573403     -0.303485990       1011.50592       1.59605944    
  0.712854981      -1.15688002     -0.303496987       1011.50592       1.59605944    
  0.841498017      -1.06573403     -0.303485990       856.059082       1.60049558    
  0.960639000     -0.962104976     -0.303470999       856.059082       1.60049558    
  0.964356005     -0.965893984     -0.606999993       856.059082       1.60049558    
  0.841796994      -1.06647599     -0.606999993       856.059082       1.60049558    
  0.841498017      -1.06573403     -0.303485990       935.048279       1.60057449    
  0.841796994      -1.06647599     -0.606999993       935.048279       1.60057449    
  0.713809013      -1.15876603     -0.606999993       935.048279       1.60057449    
  0.712854981      -1.15688002     -0.303496987       935.048279       1.60057449    
  0.841498017      -1.06573403     -0.303485990       941.839294       1.59577167    
  0.841937006      -1.06636095       0.00000000       941.839294       1.59577167    
  0.963932991     -0.966242015       0.00000000       941.839294       1.59577167    
  0.960639000     -0.962104976     -0.303470999       941.839294       1.59577167    
  0.963932991     -0.966242015       0.00000000       848.512512       1.59562445    
   1.06506598     -0.843514979       0.00000000       848.512512       1.59562445    
   1.06428695     -0.842682004     -0.303481996       848.512512       1.59562445    
  0.960639000     -0.962104976     -0.303470999       848.512512       1.59562445    
   1.06428695     -0.842682004     -0.303481996       692.575073       1.59921420    
   1.15591598     -0.714210987     -0.303485006       692.575073       1.59921420    
   1.15788805     -0.715448976     -0.606999993       692.575073       1.59921420    
   1.06537795     -0.843134999     -0.606999993       692.575073       1.59921420    
   1.06428695     -0.842682004     -0.303481996       769.105286       1.60034537    
   1.06537795     -0.843134999     -0.606999993       769.105286       1.60034537    
  0.964356005     -0.965893984     -0.606999993       769.105286       1.60034537    
  0.960639000     -0.962104976     -0.303470999       769.105286       1.60034537    
   1.06428695     -0.842682004     -0.303481996       736.461243       1.59541380    
   1.06506598     -0.843514979       0.00000000       736.461243       1.59541380    
   1.15792501     -0.715381980       0.00000000       736.461243       1.59541380    
   1.15591598     -0.714210987     -0.303485006       736.461243       1.59541380    
   1.15792501     -0.715381980       0.00000000       618.369141       1.59521735    
   1.23237598     -0.576093972       0.00000000       618.369141       1.59521735    
   1.23120904     -0.575251997     -0.303514004       618.369141       1.59521735    
   1.15591598     -0.714210987     -0.303485006       618.369141       1.59521735    
   1.23120904     -0.575251997     -0.303514004       468.497925       1.59815454    
   1.28844094     -0.428344995     -0.303512990       468.497925       1.59815454    
   1.28952503     -0.428642988     -0.606999993       468.497925       1.59815454    
   1.23252702     -0.575810015     -0.606999993       468.497925       1.59815454    
   1.23120904     -0.575251997     -0.303514004       584.198669       1.59882498    
   1.23252702     -0.575810015     -0.606999993       584.198669       1.59882498    
   1.15788805     -0.715448976     -0.606999993       584.198669       1.59882498    
   1.15591598     -0.714210987     -0.303485006       584.198669       1.59882498    
   1.23120904     -0.575251997     -0.303514004       518.825439       1.59383023    
   1.23237598     -0.576093972       0.00000000       518.825439       1.59383023    
   1.28947699     -0.428801000       0.00000000       518.825439       1.59383023    
   1.28844094     -0.428344995     -0.303512990       518.825439       1.59383023    
   1.28947699     -0.428801000       0.00000000       368.763977       1.59334290    
   1.33532202     -0.277671993       0.00000000       368.763977       1.59334290    
   1.33076501     -0.276203990     -0.303492010       368.763977       1.59334290    
   1.28844094     -0.428344995     -0.303512990       368.763977       1.59334290    
   1.33076501     -0.276203990     -0.303492010       231.091949       1.59352493    
   1.35229194     -0.119709998     -0.303514004       231.091949       1.59352493    
   1.35321999     -0.119608998     -0.606999993       231.091949       1.59352493    
   1.33549094     -0.277112991     -0.606999993       231.091949       1.59352493    
   1.33076501     -0.276203990     -0.303492010       348.942413       1.59678257    
   1.33549094     -0.277112991     -0.606999993       348.942413       1.59678257    
   1.28952503     -0.428642988     -0.606999993       348.942413       1.59678257    
   1.28844094     -0.428344995     -0.303512990       348.942413       1.59678257    
   1.33076501     -0.276203990     -0.303492010       208.914719       1.59333777    
   1.33532202     -0.277671993       0.00000000       208.914719       1.59333777    
   1.35319102     -0.119900003       0.00000000       208.914719       1.59333777    
   1.35229194     -0.119709998     -0.303514004       208.914719       1.59333777    
   1.35319102     -0.119900003       0.00000000       66.4553146       1.58600307    
   1.36124396       3.81390005E-02   0.00000000       66.4553146       1.58600307    
   1.35858905       3.79349999E-02 -0.303501010       66.4553146       1.58600307    
   1.35229194     -0.119709998     -0.303514004       66.4553146       1.58600307    
   1.35858905       3.79349999E-02 -0.303501010       46.9277382      -1.51286054    
   1.34464097      0.195331007     -0.303496003       46.9277382      -1.51286054    
   1.34573400      0.195616007     -0.606999993       46.9277382      -1.51286054    
   1.36126804       3.78950015E-02 -0.606999993       46.9277382      -1.51286054    
   1.35858905       3.79349999E-02 -0.303501010       77.0711899       1.58592498    
   1.36126804       3.78950015E-02 -0.606999993       77.0711899       1.58592498    
   1.35321999     -0.119608998     -0.606999993       77.0711899       1.58592498    
   1.35229194     -0.119709998     -0.303514004       77.0711899       1.58592498    
   1.35858905       3.79349999E-02 -0.303501010       67.4971848      -1.53179109    
   1.36124396       3.81390005E-02   0.00000000       67.4971848      -1.53179109    
   1.34575403      0.195406005       0.00000000       67.4971848      -1.53179109    
   1.34464097      0.195331007     -0.303496003       67.4971848      -1.53179109    
   1.34575403      0.195406005       0.00000000       206.732605      -1.54061162    
   1.31339800      0.349945009       0.00000000       206.732605      -1.54061162    
   1.31216300      0.349725991     -0.303487003       206.732605      -1.54061162    
   1.34464097      0.195331007     -0.303496003       206.732605      -1.54061162    
   1.31216300      0.349725991     -0.303487003       311.635864      -1.53679991    
   1.26341999      0.500032008     -0.303494006       311.635864      -1.53679991    
   1.26736605      0.501691997     -0.606999993       311.635864      -1.53679991    
   1.31333196      0.350163996     -0.606999993       311.635864      -1.53679991    
   1.31216300      0.349725991     -0.303487003       172.830307      -1.53257966    
   1.31333196      0.350163996     -0.606999993       172.830307      -1.53257966    
   1.34573400      0.195616007     -0.606999993       172.830307      -1.53257966    
   1.34464097      0.195331007     -0.303496003       172.830307      -1.53257966    
   1.31216300      0.349725991     -0.303487003       343.561035      -1.54228199    
   1.31339800      0.349945009       0.00000000       343.561035      -1.54228199    
   1.26751196      0.501209974       0.00000000       343.561035      -1.54228199    
   1.26341999      0.500032008     -0.303494006       343.561035      -1.54228199    
   1.26751196      0.501209974       0.00000000       477.669098      -1.54344141    
   1.19658697      0.643051028       0.00000000       477.669098      -1.54344141    
   1.19583094      0.642783999     -0.303505003       477.669098      -1.54344141    
   1.26341999      0.500032008     -0.303494006       477.669098      -1.54344141    
   1.19583094      0.642783999     -0.303505003       548.031799      -1.53852034    
   1.11495602      0.778467000     -0.303483993       548.031799      -1.53852034    
   1.11731696      0.779847026     -0.606999993       548.031799      -1.53852034    
   1.19653296      0.643149972     -0.606999993       548.031799      -1.53852034    
   1.19583094      0.642783999     -0.303505003       428.419373      -1.53770292    
   1.19653296      0.643149972     -0.606999993       428.419373      -1.53770292    
   1.26736605      0.501691997     -0.606999993       428.419373      -1.53770292    
   1.26341999      0.500032008     -0.303494006       428.419373      -1.53770292    
   1.19583094      0.642783999     -0.303505003       602.462158      -1.54379427    
   1.19658697      0.643051028       0.00000000       602.462158      -1.54379427    
   1.11705506      0.780165970       0.00000000       602.462158      -1.54379427    
   1.11495602      0.778467000     -0.303483993       602.462158      -1.54379427    
   1.11705506      0.780165970       0.00000000       714.379456      -1.54399204    
   1.01674199      0.902397990       0.00000000       714.379456      -1.54399204    
   1.01591504      0.901737988     -0.303478003       714.379456      -1.54399204    
   1.11495602      0.778467000     -0.303483993       714.379456      -1.54399204    
   1.01591504      0.901737988     -0.303478003       751.516418      -1.53921270    
  0.904204011       1.01322901     -0.303456992       751.516418      -1.53921270    
  0.905143023       1.01448905     -0.606999993       751.516418      -1.53921270    
   1.01659799      0.902572989     -0.606999993       751.516418      -1.53921270    
   1.01591504      0.901737988     -0.303478003       656.452820      -1.53904426    
   1.01659799      0.902572989     -0.606999993       656.452820      -1.53904426    
   1.11731696      0.779847026     -0.606999993       656.452820      -1.53904426    
   1.11495602      0.778467000     -0.303483993       656.452820      -1.53904426    
   1.01591504      0.901737988     -0.303478003       817.943298      -1.54415166    
   1.01674199      0.902397990       0.00000000       817.943298      -1.54415166    
  0.905318975       1.01434398       0.00000000       817.943298      -1.54415166    
  0.904204011       1.01322901     -0.303456992       817.943298      -1.54415166    
  0.905318975       1.01434398       0.00000000       916.340149      -1.54435599    
  0.782918990       1.11479497       0.00000000       916.340149      -1.54435599    
  0.780644000       1.11195600     -0.303485006       916.340149      -1.54435599    
  0.904204011       1.01322901     -0.303456992       916.340149      -1.54435599    
  0.780644000       1.11195600     -0.303485006       906.106873      -1.53933430    
  0.645825028       1.19414902     -0.303514004       906.106873      -1.53933430    
  0.646153986       1.19492805     -0.606999993       906.106873      -1.53933430    
  0.782611012       1.11504900     -0.606999993       906.106873      -1.53933430    
  0.780644000       1.11195600     -0.303485006       835.123352      -1.53926170    
  0.782611012       1.11504900     -0.606999993       835.123352      -1.53926170    
  0.905143023       1.01448905     -0.606999993       835.123352      -1.53926170    
  0.904204011       1.01322901     -0.303456992       835.123352      -1.53926170    
  0.780644000       1.11195600     -0.303485006       995.527222      -1.54438686    
  0.782918990       1.11479497       0.00000000       995.527222      -1.54438686    
  0.646345019       1.19482601       0.00000000       995.527222      -1.54438686    
  0.645825028       1.19414902     -0.303514004       995.527222      -1.54438686    
  0.646345019       1.19482601       0.00000000       1056.75366      -1.54427302    
  0.504974008       1.26637006       0.00000000       1056.75366      -1.54427302    
  0.503772974       1.26314998     -0.303521991       1056.75366      -1.54427302    
  0.645825028       1.19414902     -0.303514004       1056.75366      -1.54427302    
  0.503772974       1.26314998     -0.303521991       1015.87927      -1.53953385    
  0.353130996       1.31116498     -0.303510994       1015.87927      -1.53953385    
  0.353300005       1.31237996     -0.606999993       1015.87927      -1.53953385    
  0.505183995       1.26630700     -0.606999993       1015.87927      -1.53953385    
  0.503772974       1.26314998     -0.303521991       967.770935      -1.53942120    
  0.505183995       1.26630700     -0.606999993       967.770935      -1.53942120    
  0.646153986       1.19492805     -0.606999993       967.770935      -1.53942120    
  0.645825028       1.19414902     -0.303514004       967.770935      -1.53942120    
  0.503772974       1.26314998     -0.303521991       1106.54370      -1.54430008    
  0.504974008       1.26637006       0.00000000       1106.54370      -1.54430008    
  0.353493989       1.31232095       0.00000000       1106.54370      -1.54430008    
  0.353130996       1.31116498     -0.303510994       1106.54370      -1.54430008    
  0.353493989       1.31232095       0.00000000       1142.94287      -1.54437828    
  0.199064001       1.34539402       0.00000000       1142.94287      -1.54437828    
  0.198755994       1.34360003     -0.303496003       1142.94287      -1.54437828    
  0.353130996       1.31116498     -0.303510994       1142.94287      -1.54437828    
  0.198755994       1.34360003     -0.303496003       1060.62915      -1.53947353    
   4.12769988E-02   1.35817802     -0.303508013       1060.62915      -1.53947353    
   4.12410013E-02   1.36093795     -0.606999993       1060.62915      -1.53947353    
  0.199025005       1.34539795     -0.606999993       1060.62915      -1.53947353    
  0.198755994       1.34360003     -0.303496003       1048.88794      -1.53962004    
  0.199025005       1.34539795     -0.606999993       1048.88794      -1.53962004    
  0.353300005       1.31237996     -0.606999993       1048.88794      -1.53962004    
  0.353130996       1.31116498     -0.303510994       1048.88794      -1.53962004    
  0.198755994       1.34360003     -0.303496003       1163.59094      -1.54441154    
  0.199064001       1.34539402       0.00000000       1163.59094      -1.54441154    
   4.17769998E-02   1.36088502       0.00000000       1163.59094      -1.54441154    
   4.12769988E-02   1.35817802     -0.303508013       1163.59094      -1.54441154    
   4.17769998E-02   1.36088502       0.00000000       1175.62036      -1.54458785    
 -0.116410002       1.35353506       0.00000000       1175.62036      -1.54458785    
 -0.116471998       1.35271096     -0.303496987       1175.62036      -1.54458785    
   4.12769988E-02   1.35817802     -0.303508013       1175.62036      -1.54458785    
 -0.116471998       1.35271096     -0.303496987       1075.72314      -1.54005504    
 -0.273027003       1.33229196     -0.303496003       1075.72314      -1.54005504    
 -0.273876995       1.33647299     -0.606999993       1075.72314      -1.54005504    
 -0.116722003       1.35350394     -0.606999993       1075.72314      -1.54005504    
 -0.116471998       1.35271096     -0.303496987       1064.78735      -1.53955257    
 -0.116722003       1.35350394     -0.606999993       1064.78735      -1.53955257    
   4.12410013E-02   1.36093795     -0.606999993       1064.78735      -1.53955257    
   4.12769988E-02   1.35817802     -0.303508013       1064.78735      -1.53955257    
 -0.116471998       1.35271096     -0.303496987       1166.53979      -1.54461086    
 -0.116410002       1.35353506       0.00000000       1166.53979      -1.54461086    
 -0.274069011       1.33641505       0.00000000       1166.53979      -1.54461086    
 -0.273027003       1.33229196     -0.303496003       1166.53979      -1.54461086    
 -0.274069011       1.33641505       0.00000000       1140.32678      -1.54466248    
 -0.425588995       1.29045200       0.00000000       1140.32678      -1.54466248    
 -0.425258011       1.28953803     -0.303507000       1140.32678      -1.54466248    
 -0.273027003       1.33229196     -0.303496003       1140.32678      -1.54466248    
 -0.425258011       1.28953803     -0.303507000       1013.96344      -1.54032946    
 -0.572302997       1.23206902     -0.303485990       1013.96344      -1.54032946    
 -0.573064029       1.23399496     -0.606999993       1013.96344      -1.54032946    
 -0.425651014       1.29043305     -0.606999993       1013.96344      -1.54032946    
 -0.425258011       1.28953803     -0.303507000       1052.05554      -1.54014909    
 -0.425651014       1.29043305     -0.606999993       1052.05554      -1.54014909    
 -0.273876995       1.33647299     -0.606999993       1052.05554      -1.54014909    
 -0.273027003       1.33229196     -0.303496003       1052.05554      -1.54014909    
 -0.425258011       1.28953803     -0.303507000       1093.94849      -1.54477000    
 -0.425588995       1.29045200       0.00000000       1093.94849      -1.54477000    
 -0.573195994       1.23392498       0.00000000       1093.94849      -1.54477000    
 -0.572302997       1.23206902     -0.303485990       1093.94849      -1.54477000    
 -0.573195994       1.23392498       0.00000000       1031.90137      -1.54481161    
 -0.712655008       1.15938199       0.00000000       1031.90137      -1.54481161    
 -0.711889029       1.15749002     -0.303496003       1031.90137      -1.54481161    
 -0.572302997       1.23206902     -0.303485990       1031.90137      -1.54481161    
 -0.711889029       1.15749002     -0.303496003       897.450806      -1.54061759    
 -0.840825975       1.06629205     -0.303485990       897.450806      -1.54061759    
 -0.841368973       1.06682706     -0.606999993       897.450806      -1.54061759    
 -0.712980986       1.15920806     -0.606999993       897.450806      -1.54061759    
 -0.711889029       1.15749002     -0.303496003       961.383545      -1.54042792    
 -0.712980986       1.15920806     -0.606999993       961.383545      -1.54042792    
 -0.573064029       1.23399496     -0.606999993       961.383545      -1.54042792    
 -0.572302997       1.23206902     -0.303485990       961.383545      -1.54042792    
 -0.711889029       1.15749002     -0.303496003       957.227539      -1.54494917    
 -0.712655008       1.15938199       0.00000000       957.227539      -1.54494917    
 -0.841165006       1.06699395       0.00000000       957.227539      -1.54494917    
 -0.840825975       1.06629205     -0.303485990       957.227539      -1.54494917    
 -0.841165006       1.06699395       0.00000000       871.404480      -1.54502869    
 -0.963320017      0.966744006       0.00000000       871.404480      -1.54502869    
 -0.960084975      0.962615013     -0.303470999       871.404480      -1.54502869    
 -0.840825975       1.06629205     -0.303485990       871.404480      -1.54502869    
 -0.960084975      0.962615013     -0.303470999       729.540710      -1.54079878    
  -1.06383705      0.843237996     -0.303481996       729.540710      -1.54079878    
  -1.06481802      0.843816996     -0.606999993       729.540710      -1.54079878    
 -0.963873982      0.966289997     -0.606999993       729.540710      -1.54079878    
 -0.960084975      0.962615013     -0.303470999       817.828186      -1.54070592    
 -0.963873982      0.966289997     -0.606999993       817.828186      -1.54070592    
 -0.841368973       1.06682706     -0.606999993       817.828186      -1.54070592    
 -0.840825975       1.06629205     -0.303485990       817.828186      -1.54070592    
 -0.960084975      0.962615013     -0.303470999       778.559265      -1.54514515    
 -0.963320017      0.966744006       0.00000000       778.559265      -1.54514515    
  -1.06464398      0.844029009       0.00000000       778.559265      -1.54514515    
  -1.06383705      0.843237996     -0.303481996       778.559265      -1.54514515    
  -1.06464398      0.844029009       0.00000000       669.680542      -1.54528999    
  -1.15769398      0.715813994       0.00000000       669.680542      -1.54528999    
  -1.15564799      0.714680016     -0.303483993       669.680542      -1.54528999    
  -1.06383705      0.843237996     -0.303481996       669.680542      -1.54528999    
  -1.15564799      0.714680016     -0.303483993       525.815247      -1.54144287    
  -1.23108304      0.575536013     -0.303514004       525.815247      -1.54144287    
  -1.23232996      0.576179981     -0.606999993       525.815247      -1.54144287    
  -1.15756094      0.716063023     -0.606999993       525.815247      -1.54144287    
  -1.15564799      0.714680016     -0.303483993       631.890564      -1.54110980    
  -1.15756094      0.716063023     -0.606999993       631.890564      -1.54110980    
  -1.06481802      0.843816996     -0.606999993       631.890564      -1.54110980    
  -1.06383705      0.843237996     -0.303481996       631.890564      -1.54110980    
  -1.15564799      0.714680016     -0.303483993       554.593628      -1.54538167    
  -1.15769398      0.715813994       0.00000000       554.593628      -1.54538167    
  -1.23224795      0.576331973       0.00000000       554.593628      -1.54538167    
  -1.23108304      0.575536013     -0.303514004       554.593628      -1.54538167    
  -1.23224795      0.576331973       0.00000000       430.827789      -1.54557371    
  -1.28948605      0.428772002       0.00000000       430.827789      -1.54557371    
  -1.28842103      0.428404987     -0.303512990       430.827789      -1.54557371    
  -1.23108304      0.575536013     -0.303514004       430.827789      -1.54557371    
  -1.28842103      0.428404987     -0.303512990       288.983337      -1.54227698    
  -1.33082402      0.275959998     -0.303492010       288.983337      -1.54227698    
  -1.33550000      0.277083993     -0.606999993       288.983337      -1.54227698    