 VARIABLES="X" "Y" "Z" "abs(p) (Pa)" "angle(p) (rad)"
ZONE N=   2720,E =    2069, F=FEPOINT, ET=QUADRILATERAL
 -0.767116010      -1.12776399       0.00000000       3945.36841      -1.61756015    
 -0.769354999      -1.12002099     -0.303523988       3945.36841      -1.61756015    
 -0.896136999      -1.02028203     -0.303463012       3945.36841      -1.61756015    
 -0.894908011      -1.02288902       0.00000000       3945.36841      -1.61756015    
 -0.767116010      -1.12776399       0.00000000       4271.13428      -1.61749566    
 -0.630888999      -1.20308697       0.00000000       4271.13428      -1.61749566    
 -0.635528028      -1.19958198     -0.303541005       4271.13428      -1.61749566    
 -0.769354999      -1.12002099     -0.303523988       4271.13428      -1.61749566    
 -0.635528028      -1.19958198     -0.303541005       3452.43359      -1.59492326    
 -0.495362997      -1.26606500     -0.303519011       3452.43359      -1.59492326    
 -0.499298006      -1.26809204     -0.606999993       3452.43359      -1.59492326    
 -0.640147984      -1.19813800     -0.606998026       3452.43359      -1.59492326    
 -0.635528028      -1.19958198     -0.303541005       3251.15942      -1.59486663    
 -0.640147984      -1.19813800     -0.606998026       3251.15942      -1.59486663    
 -0.777105987      -1.11956596     -0.606999993       3251.15942      -1.59486663    
 -0.769354999      -1.12002099     -0.303523988       3251.15942      -1.59486663    
 -0.635528028      -1.19958198     -0.303541005       4531.04688      -1.61730409    
 -0.630888999      -1.20308697       0.00000000       4531.04688      -1.61730409    
 -0.494486004      -1.26955199       0.00000000       4531.04688      -1.61730409    
 -0.495362997      -1.26606500     -0.303519011       4531.04688      -1.61730409    
 -0.494486004      -1.26955199       0.00000000       4734.21094      -1.61734760    
 -0.346311986      -1.31449997       0.00000000       4734.21094      -1.61734760    
 -0.346753001      -1.31307304     -0.303510010       4734.21094      -1.61734760    
 -0.495362997      -1.26606500     -0.303519011       4734.21094      -1.61734760    
 -0.346753001      -1.31307304     -0.303510010       3729.12573      -1.59476113    
 -0.193608001      -1.34425998     -0.303494990       3729.12573      -1.59476113    
 -0.195028007      -1.34579206     -0.606999993       3729.12573      -1.59476113    
 -0.348751009      -1.31376004     -0.606999993       3729.12573      -1.59476113    
 -0.346753001      -1.31307304     -0.303510010       3615.34546      -1.59486699    
 -0.348751009      -1.31376004     -0.606999993       3615.34546      -1.59486699    
 -0.499298006      -1.26809204     -0.606999993       3615.34546      -1.59486699    
 -0.495362997      -1.26606500     -0.303519011       3615.34546      -1.59486699    
 -0.346753001      -1.31307304     -0.303510010       4911.19043      -1.61695886    
 -0.346311986      -1.31449997       0.00000000       4911.19043      -1.61695886    
 -0.193381995      -1.34595394       0.00000000       4911.19043      -1.61695886    
 -0.193608001      -1.34425998     -0.303494990       4911.19043      -1.61695886    
 -0.193381995      -1.34595394       0.00000000       4995.70508      -1.61702073    
  -3.75179984E-02  -1.36130500       0.00000000       4995.70508      -1.61702073    
  -3.73950005E-02  -1.35827899     -0.303512007       4995.70508      -1.61702073    
 -0.193608001      -1.34425998     -0.303494990       4995.70508      -1.61702073    
  -3.73950005E-02  -1.35827899     -0.303512007       3794.98462      -1.59449518    
  0.119547002      -1.35239303     -0.303498000       3794.98462      -1.59449518    
  0.119135000      -1.35326600     -0.606999993       3794.98462      -1.59449518    
  -3.82840000E-02  -1.36122894     -0.606998980       3794.98462      -1.59449518    
  -3.73950005E-02  -1.35827899     -0.303512007       3789.23218      -1.59468102    
  -3.82840000E-02  -1.36122894     -0.606998980       3789.23218      -1.59468102    
 -0.195028007      -1.34579206     -0.606999993       3789.23218      -1.59468102    
 -0.193608001      -1.34425998     -0.303494990       3789.23218      -1.59468102    
  -3.73950005E-02  -1.35827899     -0.303512007       4973.01318      -1.61665583    
  -3.75179984E-02  -1.36130500       0.00000000       4973.01318      -1.61665583    
  0.119788997      -1.35320199       0.00000000       4973.01318      -1.61665583    
  0.119547002      -1.35239303     -0.303498000       4973.01318      -1.61665583    
  0.119788997      -1.35320199       0.00000000       4863.81494      -1.61666906    
  0.276576012      -1.33565402       0.00000000       4863.81494      -1.61666906    
  0.275435001      -1.33191597     -0.303496003       4863.81494      -1.61666906    
  0.119547002      -1.35239303     -0.303498000       4863.81494      -1.61666906    
  0.275435001      -1.33191597     -0.303496003       3642.40259      -1.59420121    
  0.427076995      -1.28898001     -0.303507000       3642.40259      -1.59420121    
  0.427242011      -1.28995001     -0.606999993       3642.40259      -1.59420121    
  0.275831014      -1.33588004     -0.606999993       3642.40259      -1.59420121    
  0.275435001      -1.33191597     -0.303496003       3745.35693      -1.59436572    
  0.275831014      -1.33588004     -0.606999993       3745.35693      -1.59436572    
  0.119135000      -1.35326600     -0.606999993       3745.35693      -1.59436572    
  0.119547002      -1.35239303     -0.303498000       3745.35693      -1.59436572    
  0.275435001      -1.33191597     -0.303496003       4693.64404      -1.61646712    
  0.276576012      -1.33565402       0.00000000       4693.64404      -1.61646712    
  0.427509993      -1.28986895       0.00000000       4693.64404      -1.61646712    
  0.427076995      -1.28898001     -0.303507000       4693.64404      -1.61646712    
  0.427509993      -1.28986895       0.00000000       4500.41748      -1.61539018    
  0.574636996      -1.23315501       0.00000000       4500.41748      -1.61539018    
  0.573706985      -1.23136795     -0.303485990       4500.41748      -1.61539018    
  0.427076995      -1.28898001     -0.303507000       4500.41748      -1.61539018    
  0.573706985      -1.23136795     -0.303485990       3307.73779      -1.59378099    
  0.712854981      -1.15688002     -0.303496987       3307.73779      -1.59378099    
  0.713809013      -1.15876603     -0.606999993       3307.73779      -1.59378099    
  0.574283004      -1.23334301     -0.606999993       3307.73779      -1.59378099    
  0.573706985      -1.23136795     -0.303485990       3498.45068      -1.59392345    
  0.574283004      -1.23334301     -0.606999993       3498.45068      -1.59392345    
  0.427242011      -1.28995001     -0.606999993       3498.45068      -1.59392345    
  0.427076995      -1.28898001     -0.303507000       3498.45068      -1.59392345    
  0.573706985      -1.23136795     -0.303485990       4263.48975      -1.61480689    
  0.574636996      -1.23315501       0.00000000       4263.48975      -1.61480689    
  0.713741004      -1.15880203       0.00000000       4263.48975      -1.61480689    
  0.712854981      -1.15688002     -0.303496987       4263.48975      -1.61480689    
  0.713741004      -1.15880203       0.00000000       3971.48853      -1.61449790    
  0.841937006      -1.06636095       0.00000000       3971.48853      -1.61449790    
  0.841498017      -1.06573403     -0.303485990       3971.48853      -1.61449790    
  0.712854981      -1.15688002     -0.303496987       3971.48853      -1.61449790    
  0.841498017      -1.06573403     -0.303485990       2804.19800      -1.59363902    
  0.960639000     -0.962104976     -0.303470999       2804.19800      -1.59363902    
  0.964356005     -0.965893984     -0.606999993       2804.19800      -1.59363902    
  0.841796994      -1.06647599     -0.606999993       2804.19800      -1.59363902    
  0.841498017      -1.06573403     -0.303485990       3076.00073      -1.59365761    
  0.841796994      -1.06647599     -0.606999993       3076.00073      -1.59365761    
  0.713809013      -1.15876603     -0.606999993       3076.00073      -1.59365761    
  0.712854981      -1.15688002     -0.303496987       3076.00073      -1.59365761    
  0.841498017      -1.06573403     -0.303485990       3626.46069      -1.61544466    
  0.841937006      -1.06636095       0.00000000       3626.46069      -1.61544466    
  0.963932991     -0.966242015       0.00000000       3626.46069      -1.61544466    
  0.960639000     -0.962104976     -0.303470999       3626.46069      -1.61544466    
  0.963932991     -0.966242015       0.00000000       3224.56909      -1.61620069    
   1.06506598     -0.843514979       0.00000000       3224.56909      -1.61620069    
   1.06428695     -0.842682004     -0.303481996       3224.56909      -1.61620069    
  0.960639000     -0.962104976     -0.303470999       3224.56909      -1.61620069    
   1.06428695     -0.842682004     -0.303481996       2151.62134      -1.59361589    
   1.15591598     -0.714210987     -0.303485006       2151.62134      -1.59361589    
   1.15788805     -0.715448976     -0.606999993       2151.62134      -1.59361589    
   1.06537795     -0.843134999     -0.606999993       2151.62134      -1.59361589    
   1.06428695     -0.842682004     -0.303481996       2486.91992      -1.59378409    
   1.06537795     -0.843134999     -0.606999993       2486.91992      -1.59378409    
  0.964356005     -0.965893984     -0.606999993       2486.91992      -1.59378409    
  0.960639000     -0.962104976     -0.303470999       2486.91992      -1.59378409    
   1.06428695     -0.842682004     -0.303481996       2770.75977      -1.61587834    
   1.06506598     -0.843514979       0.00000000       2770.75977      -1.61587834    
   1.15792501     -0.715381980       0.00000000       2770.75977      -1.61587834    
   1.15591598     -0.714210987     -0.303485006       2770.75977      -1.61587834    
   1.15792501     -0.715381980       0.00000000       2284.36938      -1.61640918    
   1.23237598     -0.576093972       0.00000000       2284.36938      -1.61640918    
   1.23120904     -0.575251997     -0.303514004       2284.36938      -1.61640918    
   1.15591598     -0.714210987     -0.303485006       2284.36938      -1.61640918    
   1.23120904     -0.575251997     -0.303514004       1381.39111      -1.59356940    
   1.28844094     -0.428344995     -0.303512990       1381.39111      -1.59356940    
   1.28952503     -0.428642988     -0.606999993       1381.39111      -1.59356940    
   1.23252702     -0.575810015     -0.606999993       1381.39111      -1.59356940    
   1.23120904     -0.575251997     -0.303514004       1777.25427      -1.59368944    
   1.23252702     -0.575810015     -0.606999993       1777.25427      -1.59368944    
   1.15788805     -0.715448976     -0.606999993       1777.25427      -1.59368944    
   1.15591598     -0.714210987     -0.303485006       1777.25427      -1.59368944    
   1.23120904     -0.575251997     -0.303514004       1779.79321      -1.61626148    
   1.23237598     -0.576093972       0.00000000       1779.79321      -1.61626148    
   1.28947699     -0.428801000       0.00000000       1779.79321      -1.61626148    
   1.28844094     -0.428344995     -0.303512990       1779.79321      -1.61626148    
   1.28947699     -0.428801000       0.00000000       1257.79285      -1.61570013    
   1.33532202     -0.277671993       0.00000000       1257.79285      -1.61570013    
   1.33076501     -0.276203990     -0.303492010       1257.79285      -1.61570013    
   1.28844094     -0.428344995     -0.303512990       1257.79285      -1.61570013    
   1.33076501     -0.276203990     -0.303492010       535.304138      -1.59284520    
   1.35229194     -0.119709998     -0.303514004       535.304138      -1.59284520    
   1.35321999     -0.119608998     -0.606999993       535.304138      -1.59284520    
   1.33549094     -0.277112991     -0.606999993       535.304138      -1.59284520    
   1.33076501     -0.276203990     -0.303492010       972.264587      -1.59304988    
   1.33549094     -0.277112991     -0.606999993       972.264587      -1.59304988    
   1.28952503     -0.428642988     -0.606999993       972.264587      -1.59304988    
   1.28844094     -0.428344995     -0.303512990       972.264587      -1.59304988    
   1.33076501     -0.276203990     -0.303492010       699.513489      -1.61570799    
   1.33532202     -0.277671993       0.00000000       699.513489      -1.61570799    
   1.35319102     -0.119900003       0.00000000       699.513489      -1.61570799    
   1.35229194     -0.119709998     -0.303514004       699.513489      -1.61570799    
   1.35319102     -0.119900003       0.00000000       133.837326      -1.60166681    
   1.36124396       3.81390005E-02   0.00000000       133.837326      -1.60166681    
   1.35858905       3.79349999E-02 -0.303501010       133.837326      -1.60166681    
   1.35229194     -0.119709998     -0.303514004       133.837326      -1.60166681    
   1.35858905       3.79349999E-02 -0.303501010       334.771545       1.54428387    
   1.34464097      0.195331007     -0.303496003       334.771545       1.54428387    
   1.34573400      0.195616007     -0.606999993       334.771545       1.54428387    
   1.36126804       3.78950015E-02 -0.606999993       334.771545       1.54428387    
   1.35858905       3.79349999E-02 -0.303501010       106.629379      -1.58296084    
   1.36126804       3.78950015E-02 -0.606999993       106.629379      -1.58296084    
   1.35321999     -0.119608998     -0.606999993       106.629379      -1.58296084    
   1.35229194     -0.119709998     -0.303514004       106.629379      -1.58296084    
   1.35858905       3.79349999E-02 -0.303501010       441.462219       1.52021599    
   1.36124396       3.81390005E-02   0.00000000       441.462219       1.52021599    
   1.34575403      0.195406005       0.00000000       441.462219       1.52021599    
   1.34464097      0.195331007     -0.303496003       441.462219       1.52021599    
   1.34575403      0.195406005       0.00000000       1003.88336       1.52239084    
   1.31339800      0.349945009       0.00000000       1003.88336       1.52239084    
   1.31216300      0.349725991     -0.303487003       1003.88336       1.52239084    
   1.34464097      0.195331007     -0.303496003       1003.88336       1.52239084    
   1.31216300      0.349725991     -0.303487003       1182.60364       1.54608405    
   1.26341999      0.500032008     -0.303494006       1182.60364       1.54608405    
   1.26736605      0.501691997     -0.606999993       1182.60364       1.54608405    
   1.31333196      0.350163996     -0.606999993       1182.60364       1.54608405    
   1.31216300      0.349725991     -0.303487003       766.578796       1.54591620    
   1.31333196      0.350163996     -0.606999993       766.578796       1.54591620    
   1.34573400      0.195616007     -0.606999993       766.578796       1.54591620    
   1.34464097      0.195331007     -0.303496003       766.578796       1.54591620    
   1.31216300      0.349725991     -0.303487003       1545.46411       1.52241206    
   1.31339800      0.349945009       0.00000000       1545.46411       1.52241206    
   1.26751196      0.501209974       0.00000000       1545.46411       1.52241206    
   1.26341999      0.500032008     -0.303494006       1545.46411       1.52241206    
   1.26751196      0.501209974       0.00000000       2083.70850       1.52353621    
   1.19658697      0.643051028       0.00000000       2083.70850       1.52353621    
   1.19583094      0.642783999     -0.303505003       2083.70850       1.52353621    
   1.26341999      0.500032008     -0.303494006       2083.70850       1.52353621    
   1.19583094      0.642783999     -0.303505003       1972.34351       1.54675710    
   1.11495602      0.778467000     -0.303483993       1972.34351       1.54675710    
   1.11731696      0.779847026     -0.606999993       1972.34351       1.54675710    
   1.19653296      0.643149972     -0.606999993       1972.34351       1.54675710    
   1.19583094      0.642783999     -0.303505003       1593.77881       1.54669023    
   1.19653296      0.643149972     -0.606999993       1593.77881       1.54669023    
   1.26736605      0.501691997     -0.606999993       1593.77881       1.54669023    
   1.26341999      0.500032008     -0.303494006       1593.77881       1.54669023    
   1.19583094      0.642783999     -0.303505003       2576.36060       1.52392364    
   1.19658697      0.643051028       0.00000000       2576.36060       1.52392364    
   1.11705506      0.780165970       0.00000000       2576.36060       1.52392364    
   1.11495602      0.778467000     -0.303483993       2576.36060       1.52392364    
   1.11705506      0.780165970       0.00000000       3025.85059       1.52465737    
   1.01674199      0.902397990       0.00000000       3025.85059       1.52465737    
   1.01591504      0.901737988     -0.303478003       3025.85059       1.52465737    
   1.11495602      0.778467000     -0.303483993       3025.85059       1.52465737    
   1.01591504      0.901737988     -0.303478003       2656.10645       1.54725373    
  0.904204011       1.01322901     -0.303456992       2656.10645       1.54725373    
  0.905143023       1.01448905     -0.606999993       2656.10645       1.54725373    
   1.01659799      0.902572989     -0.606999993       2656.10645       1.54725373    
   1.01591504      0.901737988     -0.303478003       2332.32715       1.54708433    
   1.01659799      0.902572989     -0.606999993       2332.32715       1.54708433    
   1.11731696      0.779847026     -0.606999993       2332.32715       1.54708433    
   1.11495602      0.778467000     -0.303483993       2332.32715       1.54708433    
   1.01591504      0.901737988     -0.303478003       3429.71484       1.52535355    
   1.01674199      0.902397990       0.00000000       3429.71484       1.52535355    
  0.905318975       1.01434398       0.00000000       3429.71484       1.52535355    
  0.904204011       1.01322901     -0.303456992       3429.71484       1.52535355    
  0.905318975       1.01434398       0.00000000       3816.00537       1.52523649    
  0.782918990       1.11479497       0.00000000       3816.00537       1.52523649    
  0.780644000       1.11195600     -0.303485006       3816.00537       1.52523649    
  0.904204011       1.01322901     -0.303456992       3816.00537       1.52523649    
  0.780644000       1.11195600     -0.303485006       3200.74316       1.54736972    
  0.645825028       1.19414902     -0.303514004       3200.74316       1.54736972    
  0.646153986       1.19492805     -0.606999993       3200.74316       1.54736972    
  0.782611012       1.11504900     -0.606999993       3200.74316       1.54736972    
  0.780644000       1.11195600     -0.303485006       2944.66016       1.54728389    
  0.782611012       1.11504900     -0.606999993       2944.66016       1.54728389    
  0.905143023       1.01448905     -0.606999993       2944.66016       1.54728389    
  0.904204011       1.01322901     -0.303456992       2944.66016       1.54728389    
  0.780644000       1.11195600     -0.303485006       4143.58350       1.52548742    
  0.782918990       1.11479497       0.00000000       4143.58350       1.52548742    
  0.646345019       1.19482601       0.00000000       4143.58350       1.52548742    
  0.645825028       1.19414902     -0.303514004       4143.58350       1.52548742    
  0.646345019       1.19482601       0.00000000       4418.38916       1.52511001    
  0.504974008       1.26637006       0.00000000       4418.38916       1.52511001    
  0.503772974       1.26314998     -0.303521991       4418.38916       1.52511001    
  0.645825028       1.19414902     -0.303514004       4418.38916       1.52511001    
  0.503772974       1.26314998     -0.303521991       3575.69531       1.54718435    
  0.353130996       1.31116498     -0.303510994       3575.69531       1.54718435    
  0.353300005       1.31237996     -0.606999993       3575.69531       1.54718435    
  0.505183995       1.26630700     -0.606999993       3575.69531       1.54718435    
  0.503772974       1.26314998     -0.303521991       3407.78320       1.54723251    
  0.505183995       1.26630700     -0.606999993       3407.78320       1.54723251    
  0.646153986       1.19492805     -0.606999993       3407.78320       1.54723251    
  0.645825028       1.19414902     -0.303514004       3407.78320       1.54723251    
  0.503772974       1.26314998     -0.303521991       4623.51465       1.52490115    
  0.504974008       1.26637006       0.00000000       4623.51465       1.52490115    
  0.353493989       1.31232095       0.00000000       4623.51465       1.52490115    
  0.353130996       1.31116498     -0.303510994       4623.51465       1.52490115    
  0.353493989       1.31232095       0.00000000       4784.11328       1.52495646    
  0.199064001       1.34539402       0.00000000       4784.11328       1.52495646    
  0.198755994       1.34360003     -0.303496003       4784.11328       1.52495646    
  0.353130996       1.31116498     -0.303510994       4784.11328       1.52495646    
  0.198755994       1.34360003     -0.303496003       3765.58643       1.54692900    
   4.12769988E-02   1.35817802     -0.303508013       3765.58643       1.54692900    
   4.12410013E-02   1.36093795     -0.606999993       3765.58643       1.54692900    
  0.199025005       1.34539795     -0.606999993       3765.58643       1.54692900    
  0.198755994       1.34360003     -0.303496003       3695.47046       1.54709744    
  0.199025005       1.34539795     -0.606999993       3695.47046       1.54709744    
  0.353300005       1.31237996     -0.606999993       3695.47046       1.54709744    
  0.353130996       1.31116498     -0.303510994       3695.47046       1.54709744    
  0.198755994       1.34360003     -0.303496003       4889.18408       1.52443612    
  0.199064001       1.34539402       0.00000000       4889.18408       1.52443612    
   4.17769998E-02   1.36088502       0.00000000       4889.18408       1.52443612    
   4.12769988E-02   1.35817802     -0.303508013       4889.18408       1.52443612    
   4.17769998E-02   1.36088502       0.00000000       4963.28809       1.52436340    
 -0.116410002       1.35353506       0.00000000       4963.28809       1.52436340    
 -0.116471998       1.35271096     -0.303496987       4963.28809       1.52436340    
   4.12769988E-02   1.35817802     -0.303508013       4963.28809       1.52436340    
 -0.116471998       1.35271096     -0.303496987       3759.47827       1.54674208    
 -0.273027003       1.33229196     -0.303496003       3759.47827       1.54674208    
 -0.273876995       1.33647299     -0.606999993       3759.47827       1.54674208    
 -0.116722003       1.35350394     -0.606999993       3759.47827       1.54674208    
 -0.116471998       1.35271096     -0.303496987       3790.18555       1.54686689    
 -0.116722003       1.35350394     -0.606999993       3790.18555       1.54686689    
   4.12410013E-02   1.36093795     -0.606999993       3790.18555       1.54686689    
   4.12769988E-02   1.35817802     -0.303508013       3790.18555       1.54686689    
 -0.116471998       1.35271096     -0.303496987       4962.26465       1.52386928    
 -0.116410002       1.35353506       0.00000000       4962.26465       1.52386928    
 -0.274069011       1.33641505       0.00000000       4962.26465       1.52386928    
 -0.273027003       1.33229196     -0.303496003       4962.26465       1.52386928    
 -0.274069011       1.33641505       0.00000000       4849.86768       1.52391136    
 -0.425588995       1.29045200       0.00000000       4849.86768       1.52391136    
 -0.425258011       1.28953803     -0.303507000       4849.86768       1.52391136    
 -0.273027003       1.33229196     -0.303496003       4849.86768       1.52391136    
 -0.425258011       1.28953803     -0.303507000       3538.61157       1.54706192    
 -0.572302997       1.23206902     -0.303485990       3538.61157       1.54706192    
 -0.573064029       1.23399496     -0.606999993       3538.61157       1.54706192    
 -0.425651014       1.29043305     -0.606999993       3538.61157       1.54706192    
 -0.425258011       1.28953803     -0.303507000       3672.24097       1.54676890    
 -0.425651014       1.29043305     -0.606999993       3672.24097       1.54676890    
 -0.273876995       1.33647299     -0.606999993       3672.24097       1.54676890    
 -0.273027003       1.33229196     -0.303496003       3672.24097       1.54676890    
 -0.425258011       1.28953803     -0.303507000       4658.82764       1.52505839    
 -0.425588995       1.29045200       0.00000000       4658.82764       1.52505839    
 -0.573195994       1.23392498       0.00000000       4658.82764       1.52505839    
 -0.572302997       1.23206902     -0.303485990       4658.82764       1.52505839    
 -0.573195994       1.23392498       0.00000000       4403.01758       1.52581346    
 -0.712655008       1.15938199       0.00000000       4403.01758       1.52581346    
 -0.711889029       1.15749002     -0.303496003       4403.01758       1.52581346    
 -0.572302997       1.23206902     -0.303485990       4403.01758       1.52581346    
 -0.711889029       1.15749002     -0.303496003       3110.98535       1.54756343    
 -0.840825975       1.06629205     -0.303485990       3110.98535       1.54756343    
 -0.841368973       1.06682706     -0.606999993       3110.98535       1.54756343    
 -0.712980986       1.15920806     -0.606999993       3110.98535       1.54756343    
 -0.711889029       1.15749002     -0.303496003       3347.35400       1.54727709    
 -0.712980986       1.15920806     -0.606999993       3347.35400       1.54727709    
 -0.573064029       1.23399496     -0.606999993       3347.35400       1.54727709    
 -0.572302997       1.23206902     -0.303485990       3347.35400       1.54727709    
 -0.711889029       1.15749002     -0.303496003       4065.91309       1.52664185    
 -0.712655008       1.15938199       0.00000000       4065.91309       1.52664185    
 -0.841165006       1.06699395       0.00000000       4065.91309       1.52664185    
 -0.840825975       1.06629205     -0.303485990       4065.91309       1.52664185    
 -0.841165006       1.06699395       0.00000000       3679.37500       1.52649260    
 -0.963320017      0.966744006       0.00000000       3679.37500       1.52649260    
 -0.960084975      0.962615013     -0.303470999       3679.37500       1.52649260    
 -0.840825975       1.06629205     -0.303485990       3679.37500       1.52649260    
 -0.960084975      0.962615013     -0.303470999       2515.06860       1.54775345    
  -1.06383705      0.843237996     -0.303481996       2515.06860       1.54775345    
  -1.06481802      0.843816996     -0.606999993       2515.06860       1.54775345    
 -0.963873982      0.966289997     -0.606999993       2515.06860       1.54775345    
 -0.960084975      0.962615013     -0.303470999       2836.90234       1.54782641    
 -0.963873982      0.966289997     -0.606999993       2836.90234       1.54782641    
 -0.841368973       1.06682706     -0.606999993       2836.90234       1.54782641    
 -0.840825975       1.06629205     -0.303485990       2836.90234       1.54782641    
 -0.960084975      0.962615013     -0.303470999       3260.31299       1.52608263    
 -0.963320017      0.966744006       0.00000000       3260.31299       1.52608263    
  -1.06464398      0.844029009       0.00000000       3260.31299       1.52608263    
  -1.06383705      0.843237996     -0.303481996       3260.31299       1.52608263    
  -1.06464398      0.844029009       0.00000000       2816.06104       1.52634275    
  -1.15769398      0.715813994       0.00000000       2816.06104       1.52634275    
  -1.15564799      0.714680016     -0.303483993       2816.06104       1.52634275    
  -1.06383705      0.843237996     -0.303481996       2816.06104       1.52634275    
  -1.15564799      0.714680016     -0.303483993       1799.87817       1.54773319    
  -1.23108304      0.575536013     -0.303514004       1799.87817       1.54773319    
  -1.23232996      0.576179981     -0.606999993       1799.87817       1.54773319    
  -1.15756094      0.716063023     -0.606999993       1799.87817       1.54773319    
  -1.15564799      0.714680016     -0.303483993       2175.57471       1.54785872    
  -1.15756094      0.716063023     -0.606999993       2175.57471       1.54785872    
  -1.06481802      0.843816996     -0.606999993       2175.57471       1.54785872    
  -1.06383705      0.843237996     -0.303481996       2175.57471       1.54785872    
  -1.15564799      0.714680016     -0.303483993       2342.85181       1.52580750    
  -1.15769398      0.715813994       0.00000000       2342.85181       1.52580750    
  -1.23224795      0.576331973       0.00000000       2342.85181       1.52580750    
  -1.23108304      0.575536013     -0.303514004       2342.85181       1.52580750    
  -1.23224795      0.576331973       0.00000000       1827.70642       1.52589977    
  -1.28948605      0.428772002       0.00000000       1827.70642       1.52589977    
  -1.28842103      0.428404987     -0.303512990       1827.70642       1.52589977    
  -1.23108304      0.575536013     -0.303514004       1827.70642       1.52589977    
  -1.28842103      0.428404987     -0.303512990       984.230164       1.54804397    
  -1.33082402      0.275959998     -0.303492010       984.230164       1.54804397    
  -1.33550000      0.277083993     -0.606999993       984.230164       1.54804397    