 VARIABLES="X" "Y" "Z" "abs(p) (Pa)" "angle(p) (rad)"
ZONE N=   2720,E =    2069, F=FEPOINT, ET=QUADRILATERAL
 -0.767116010      -1.12776399       0.00000000       151637.719      -2.97034359    
 -0.769354999      -1.12002099     -0.303523988       151637.719      -2.97034359    
 -0.896136999      -1.02028203     -0.303463012       151637.719      -2.97034359    
 -0.894908011      -1.02288902       0.00000000       151637.719      -2.97034359    
 -0.767116010      -1.12776399       0.00000000       148500.719      -2.98189592    
 -0.630888999      -1.20308697       0.00000000       148500.719      -2.98189592    
 -0.635528028      -1.19958198     -0.303541005       148500.719      -2.98189592    
 -0.769354999      -1.12002099     -0.303523988       148500.719      -2.98189592    
 -0.635528028      -1.19958198     -0.303541005       67657.7578      -2.98269701    
 -0.495362997      -1.26606500     -0.303519011       67657.7578      -2.98269701    
 -0.499298006      -1.26809204     -0.606999993       67657.7578      -2.98269701    
 -0.640147984      -1.19813800     -0.606998026       67657.7578      -2.98269701    
 -0.635528028      -1.19958198     -0.303541005       68687.0938      -2.96762967    
 -0.640147984      -1.19813800     -0.606998026       68687.0938      -2.96762967    
 -0.777105987      -1.11956596     -0.606999993       68687.0938      -2.96762967    
 -0.769354999      -1.12002099     -0.303523988       68687.0938      -2.96762967    
 -0.635528028      -1.19958198     -0.303541005       145408.156      -2.99623799    
 -0.630888999      -1.20308697       0.00000000       145408.156      -2.99623799    
 -0.494486004      -1.26955199       0.00000000       145408.156      -2.99623799    
 -0.495362997      -1.26606500     -0.303519011       145408.156      -2.99623799    
 -0.494486004      -1.26955199       0.00000000       144248.672      -3.01079202    
 -0.346311986      -1.31449997       0.00000000       144248.672      -3.01079202    
 -0.346753001      -1.31307304     -0.303510010       144248.672      -3.01079202    
 -0.495362997      -1.26606500     -0.303519011       144248.672      -3.01079202    
 -0.346753001      -1.31307304     -0.303510010       66598.5156      -3.01035023    
 -0.193608001      -1.34425998     -0.303494990       66598.5156      -3.01035023    
 -0.195028007      -1.34579206     -0.606999993       66598.5156      -3.01035023    
 -0.348751009      -1.31376004     -0.606999993       66598.5156      -3.01035023    
 -0.346753001      -1.31307304     -0.303510010       67056.5781      -2.99755216    
 -0.348751009      -1.31376004     -0.606999993       67056.5781      -2.99755216    
 -0.499298006      -1.26809204     -0.606999993       67056.5781      -2.99755216    
 -0.495362997      -1.26606500     -0.303519011       67056.5781      -2.99755216    
 -0.346753001      -1.31307304     -0.303510010       143835.906      -3.02329278    
 -0.346311986      -1.31449997       0.00000000       143835.906      -3.02329278    
 -0.193381995      -1.34595394       0.00000000       143835.906      -3.02329278    
 -0.193608001      -1.34425998     -0.303494990       143835.906      -3.02329278    
 -0.193381995      -1.34595394       0.00000000       143743.234      -3.03262782    
  -3.75179984E-02  -1.36130500       0.00000000       143743.234      -3.03262782    
  -3.73950005E-02  -1.35827899     -0.303512007       143743.234      -3.03262782    
 -0.193608001      -1.34425998     -0.303494990       143743.234      -3.03262782    
  -3.73950005E-02  -1.35827899     -0.303512007       65417.0195      -3.02761340    
  0.119547002      -1.35239303     -0.303498000       65417.0195      -3.02761340    
  0.119135000      -1.35326600     -0.606999993       65417.0195      -3.02761340    
  -3.82840000E-02  -1.36122894     -0.606998980       65417.0195      -3.02761340    
  -3.73950005E-02  -1.35827899     -0.303512007       66151.5469      -3.02010393    
  -3.82840000E-02  -1.36122894     -0.606998980       66151.5469      -3.02010393    
 -0.195028007      -1.34579206     -0.606999993       66151.5469      -3.02010393    
 -0.193608001      -1.34425998     -0.303494990       66151.5469      -3.02010393    
  -3.73950005E-02  -1.35827899     -0.303512007       141133.625      -3.03939486    
  -3.75179984E-02  -1.36130500       0.00000000       141133.625      -3.03939486    
  0.119788997      -1.35320199       0.00000000       141133.625      -3.03939486    
  0.119547002      -1.35239303     -0.303498000       141133.625      -3.03939486    
  0.119788997      -1.35320199       0.00000000       138420.391      -3.04776692    
  0.276576012      -1.33565402       0.00000000       138420.391      -3.04776692    
  0.275435001      -1.33191597     -0.303496003       138420.391      -3.04776692    
  0.119547002      -1.35239303     -0.303498000       138420.391      -3.04776692    
  0.275435001      -1.33191597     -0.303496003       63444.4023      -3.04752326    
  0.427076995      -1.28898001     -0.303507000       63444.4023      -3.04752326    
  0.427242011      -1.28995001     -0.606999993       63444.4023      -3.04752326    
  0.275831014      -1.33588004     -0.606999993       63444.4023      -3.04752326    
  0.275435001      -1.33191597     -0.303496003       64450.0078      -3.03648448    
  0.275831014      -1.33588004     -0.606999993       64450.0078      -3.03648448    
  0.119135000      -1.35326600     -0.606999993       64450.0078      -3.03648448    
  0.119547002      -1.35239303     -0.303498000       64450.0078      -3.03648448    
  0.275435001      -1.33191597     -0.303496003       135113.625      -3.05863118    
  0.276576012      -1.33565402       0.00000000       135113.625      -3.05863118    
  0.427509993      -1.28986895       0.00000000       135113.625      -3.05863118    
  0.427076995      -1.28898001     -0.303507000       135113.625      -3.05863118    
  0.427509993      -1.28986895       0.00000000       131682.578      -3.07482123    
  0.574636996      -1.23315501       0.00000000       131682.578      -3.07482123    
  0.573706985      -1.23136795     -0.303485990       131682.578      -3.07482123    
  0.427076995      -1.28898001     -0.303507000       131682.578      -3.07482123    
  0.573706985      -1.23136795     -0.303485990       62613.1133      -3.08236670    
  0.712854981      -1.15688002     -0.303496987       62613.1133      -3.08236670    
  0.713809013      -1.15876603     -0.606999993       62613.1133      -3.08236670    
  0.574283004      -1.23334301     -0.606999993       62613.1133      -3.08236670    
  0.573706985      -1.23136795     -0.303485990       62725.3477      -3.06360793    
  0.574283004      -1.23334301     -0.606999993       62725.3477      -3.06360793    
  0.427242011      -1.28995001     -0.606999993       62725.3477      -3.06360793    
  0.427076995      -1.28898001     -0.303507000       62725.3477      -3.06360793    
  0.573706985      -1.23136795     -0.303485990       130877.320      -3.09418392    
  0.574636996      -1.23315501       0.00000000       130877.320      -3.09418392    
  0.713741004      -1.15880203       0.00000000       130877.320      -3.09418392    
  0.712854981      -1.15688002     -0.303496987       130877.320      -3.09418392    
  0.713741004      -1.15880203       0.00000000       131984.016      -3.11293960    
  0.841937006      -1.06636095       0.00000000       131984.016      -3.11293960    
  0.841498017      -1.06573403     -0.303485990       131984.016      -3.11293960    
  0.712854981      -1.15688002     -0.303496987       131984.016      -3.11293960    
  0.841498017      -1.06573403     -0.303485990       64395.6523      -3.11648464    
  0.960639000     -0.962104976     -0.303470999       64395.6523      -3.11648464    
  0.964356005     -0.965893984     -0.606999993       64395.6523      -3.11648464    
  0.841796994      -1.06647599     -0.606999993       64395.6523      -3.11648464    
  0.841498017      -1.06573403     -0.303485990       63157.3359      -3.10105348    
  0.841796994      -1.06647599     -0.606999993       63157.3359      -3.10105348    
  0.713809013      -1.15876603     -0.606999993       63157.3359      -3.10105348    
  0.712854981      -1.15688002     -0.303496987       63157.3359      -3.10105348    
  0.841498017      -1.06573403     -0.303485990       137064.609      -3.12693286    
  0.841937006      -1.06636095       0.00000000       137064.609      -3.12693286    
  0.963932991     -0.966242015       0.00000000       137064.609      -3.12693286    
  0.960639000     -0.962104976     -0.303470999       137064.609      -3.12693286    
  0.963932991     -0.966242015       0.00000000       141220.297      -3.13555336    
   1.06506598     -0.843514979       0.00000000       141220.297      -3.13555336    
   1.06428695     -0.842682004     -0.303481996       141220.297      -3.13555336    
  0.960639000     -0.962104976     -0.303470999       141220.297      -3.13555336    
   1.06428695     -0.842682004     -0.303481996       67575.1094      -3.13175249    
   1.15591598     -0.714210987     -0.303485006       67575.1094      -3.13175249    
   1.15788805     -0.715448976     -0.606999993       67575.1094      -3.13175249    
   1.06537795     -0.843134999     -0.606999993       67575.1094      -3.13175249    
   1.06428695     -0.842682004     -0.303481996       65891.5156      -3.12678790    
   1.06537795     -0.843134999     -0.606999993       65891.5156      -3.12678790    
  0.964356005     -0.965893984     -0.606999993       65891.5156      -3.12678790    
  0.960639000     -0.962104976     -0.303470999       65891.5156      -3.12678790    
   1.06428695     -0.842682004     -0.303481996       143159.000      -3.13873816    
   1.06506598     -0.843514979       0.00000000       143159.000      -3.13873816    
   1.15792501     -0.715381980       0.00000000       143159.000      -3.13873816    
   1.15591598     -0.714210987     -0.303485006       143159.000      -3.13873816    
   1.15792501     -0.715381980       0.00000000       147559.031      -3.13725328    
   1.23237598     -0.576093972       0.00000000       147559.031      -3.13725328    
   1.23120904     -0.575251997     -0.303514004       147559.031      -3.13725328    
   1.15591598     -0.714210987     -0.303485006       147559.031      -3.13725328    
   1.23120904     -0.575251997     -0.303514004       70870.3594      -3.13070846    
   1.28844094     -0.428344995     -0.303512990       70870.3594      -3.13070846    
   1.28952503     -0.428642988     -0.606999993       70870.3594      -3.13070846    
   1.23252702     -0.575810015     -0.606999993       70870.3594      -3.13070846    
   1.23120904     -0.575251997     -0.303514004       69350.4609      -3.13250422    
   1.23252702     -0.575810015     -0.606999993       69350.4609      -3.13250422    
   1.15788805     -0.715448976     -0.606999993       69350.4609      -3.13250422    
   1.15591598     -0.714210987     -0.303485006       69350.4609      -3.13250422    
   1.23120904     -0.575251997     -0.303514004       151305.000      -3.13361573    
   1.23237598     -0.576093972       0.00000000       151305.000      -3.13361573    
   1.28947699     -0.428801000       0.00000000       151305.000      -3.13361573    
   1.28844094     -0.428344995     -0.303512990       151305.000      -3.13361573    
   1.28947699     -0.428801000       0.00000000       155785.156      -3.12933111    
   1.33532202     -0.277671993       0.00000000       155785.156      -3.12933111    
   1.33076501     -0.276203990     -0.303492010       155785.156      -3.12933111    
   1.28844094     -0.428344995     -0.303512990       155785.156      -3.12933111    
   1.33076501     -0.276203990     -0.303492010       72991.5391      -3.12574840    
   1.35229194     -0.119709998     -0.303514004       72991.5391      -3.12574840    
   1.35321999     -0.119608998     -0.606999993       72991.5391      -3.12574840    
   1.33549094     -0.277112991     -0.606999993       72991.5391      -3.12574840    
   1.33076501     -0.276203990     -0.303492010       72098.9141      -3.12799907    
   1.33549094     -0.277112991     -0.606999993       72098.9141      -3.12799907    
   1.28952503     -0.428642988     -0.606999993       72098.9141      -3.12799907    
   1.28844094     -0.428344995     -0.303512990       72098.9141      -3.12799907    
   1.33076501     -0.276203990     -0.303492010       157925.781      -3.12625861    
   1.33532202     -0.277671993       0.00000000       157925.781      -3.12625861    
   1.35319102     -0.119900003       0.00000000       157925.781      -3.12625861    
   1.35229194     -0.119709998     -0.303514004       157925.781      -3.12625861    
   1.35319102     -0.119900003       0.00000000       158914.234      -3.12480950    
   1.36124396       3.81390005E-02   0.00000000       158914.234      -3.12480950    
   1.35858905       3.79349999E-02 -0.303501010       158914.234      -3.12480950    
   1.35229194     -0.119709998     -0.303514004       158914.234      -3.12480950    
   1.35858905       3.79349999E-02 -0.303501010       74047.6406      -3.12479734    
   1.34464097      0.195331007     -0.303496003       74047.6406      -3.12479734    
   1.34573400      0.195616007     -0.606999993       74047.6406      -3.12479734    
   1.36126804       3.78950015E-02 -0.606999993       74047.6406      -3.12479734    
   1.35858905       3.79349999E-02 -0.303501010       73724.6875      -3.12450314    
   1.36126804       3.78950015E-02 -0.606999993       73724.6875      -3.12450314    
   1.35321999     -0.119608998     -0.606999993       73724.6875      -3.12450314    
   1.35229194     -0.119709998     -0.303514004       73724.6875      -3.12450314    
   1.35858905       3.79349999E-02 -0.303501010       160205.078      -3.12519765    
   1.36124396       3.81390005E-02   0.00000000       160205.078      -3.12519765    
   1.34575403      0.195406005       0.00000000       160205.078      -3.12519765    
   1.34464097      0.195331007     -0.303496003       160205.078      -3.12519765    
   1.34575403      0.195406005       0.00000000       160073.359      -3.12754178    
   1.31339800      0.349945009       0.00000000       160073.359      -3.12754178    
   1.31216300      0.349725991     -0.303487003       160073.359      -3.12754178    
   1.34464097      0.195331007     -0.303496003       160073.359      -3.12754178    
   1.31216300      0.349725991     -0.303487003       73323.7734      -3.12908554    
   1.26341999      0.500032008     -0.303494006       73323.7734      -3.12908554    
   1.26736605      0.501691997     -0.606999993       73323.7734      -3.12908554    
   1.31333196      0.350163996     -0.606999993       73323.7734      -3.12908554    
   1.31216300      0.349725991     -0.303487003       73915.0156      -3.12650108    
   1.31333196      0.350163996     -0.606999993       73915.0156      -3.12650108    
   1.34573400      0.195616007     -0.606999993       73915.0156      -3.12650108    
   1.34464097      0.195331007     -0.303496003       73915.0156      -3.12650108    
   1.31216300      0.349725991     -0.303487003       159864.219      -3.13091564    
   1.31339800      0.349945009       0.00000000       159864.219      -3.13091564    
   1.26751196      0.501209974       0.00000000       159864.219      -3.13091564    
   1.26341999      0.500032008     -0.303494006       159864.219      -3.13091564    
   1.26751196      0.501209974       0.00000000       158100.094      -3.13467836    
   1.19658697      0.643051028       0.00000000       158100.094      -3.13467836    
   1.19583094      0.642783999     -0.303505003       158100.094      -3.13467836    
   1.26341999      0.500032008     -0.303494006       158100.094      -3.13467836    
   1.19583094      0.642783999     -0.303505003       70697.2812      -3.13195086    
   1.11495602      0.778467000     -0.303483993       70697.2812      -3.13195086    
   1.11731696      0.779847026     -0.606999993       70697.2812      -3.13195086    
   1.19653296      0.643149972     -0.606999993       70697.2812      -3.13195086    
   1.19583094      0.642783999     -0.303505003       72240.4141      -3.13132381    
   1.19653296      0.643149972     -0.606999993       72240.4141      -3.13132381    
   1.26736605      0.501691997     -0.606999993       72240.4141      -3.13132381    
   1.26341999      0.500032008     -0.303494006       72240.4141      -3.13132381    
   1.19583094      0.642783999     -0.303505003       153685.375      -3.13758445    
   1.19658697      0.643051028       0.00000000       153685.375      -3.13758445    
   1.11705506      0.780165970       0.00000000       153685.375      -3.13758445    
   1.11495602      0.778467000     -0.303483993       153685.375      -3.13758445    
   1.11705506      0.780165970       0.00000000       148184.203      -3.13693357    
   1.01674199      0.902397990       0.00000000       148184.203      -3.13693357    
   1.01591504      0.901737988     -0.303478003       148184.203      -3.13693357    
   1.11495602      0.778467000     -0.303483993       148184.203      -3.13693357    
   1.01591504      0.901737988     -0.303478003       66870.9609      -3.12195921    
  0.904204011       1.01322901     -0.303456992       66870.9609      -3.12195921    
  0.905143023       1.01448905     -0.606999993       66870.9609      -3.12195921    
   1.01659799      0.902572989     -0.606999993       66870.9609      -3.12195921    
   1.01591504      0.901737988     -0.303478003       68843.3125      -3.12926078    
   1.01659799      0.902572989     -0.606999993       68843.3125      -3.12926078    
   1.11731696      0.779847026     -0.606999993       68843.3125      -3.12926078    
   1.11495602      0.778467000     -0.303483993       68843.3125      -3.12926078    
   1.01591504      0.901737988     -0.303478003       142012.219      -3.13153625    
   1.01674199      0.902397990       0.00000000       142012.219      -3.13153625    
  0.905318975       1.01434398       0.00000000       142012.219      -3.13153625    
  0.904204011       1.01322901     -0.303456992       142012.219      -3.13153625    
  0.905318975       1.01434398       0.00000000       139814.719      -3.12014794    
  0.782918990       1.11479497       0.00000000       139814.719      -3.12014794    
  0.780644000       1.11195600     -0.303485006       139814.719      -3.12014794    
  0.904204011       1.01322901     -0.303456992       139814.719      -3.12014794    
  0.780644000       1.11195600     -0.303485006       64306.5273      -3.09249234    
  0.645825028       1.19414902     -0.303514004       64306.5273      -3.09249234    
  0.646153986       1.19492805     -0.606999993       64306.5273      -3.09249234    
  0.782611012       1.11504900     -0.606999993       64306.5273      -3.09249234    
  0.780644000       1.11195600     -0.303485006       65306.5352      -3.10937119    
  0.782611012       1.11504900     -0.606999993       65306.5352      -3.10937119    
  0.905143023       1.01448905     -0.606999993       65306.5352      -3.10937119    
  0.904204011       1.01322901     -0.303456992       65306.5352      -3.10937119    
  0.780644000       1.11195600     -0.303485006       137402.812      -3.10404062    
  0.782918990       1.11479497       0.00000000       137402.812      -3.10404062    
  0.646345019       1.19482601       0.00000000       137402.812      -3.10404062    
  0.645825028       1.19414902     -0.303514004       137402.812      -3.10404062    
  0.646345019       1.19482601       0.00000000       137057.422      -3.08510232    
  0.504974008       1.26637006       0.00000000       137057.422      -3.08510232    
  0.503772974       1.26314998     -0.303521991       137057.422      -3.08510232    
  0.645825028       1.19414902     -0.303514004       137057.422      -3.08510232    
  0.503772974       1.26314998     -0.303521991       64116.8477      -3.05656219    
  0.353130996       1.31116498     -0.303510994       64116.8477      -3.05656219    
  0.353300005       1.31237996     -0.606999993       64116.8477      -3.05656219    
  0.505183995       1.26630700     -0.606999993       64116.8477      -3.05656219    
  0.503772974       1.26314998     -0.303521991       63939.1523      -3.07358837    
  0.505183995       1.26630700     -0.606999993       63939.1523      -3.07358837    
  0.646153986       1.19492805     -0.606999993       63939.1523      -3.07358837    
  0.645825028       1.19414902     -0.303514004       63939.1523      -3.07358837    
  0.503772974       1.26314998     -0.303521991       137255.078      -3.06794596    
  0.504974008       1.26637006       0.00000000       137255.078      -3.06794596    
  0.353493989       1.31232095       0.00000000       137255.078      -3.06794596    
  0.353130996       1.31116498     -0.303510994       137255.078      -3.06794596    
  0.353493989       1.31232095       0.00000000       137889.781      -3.05397058    
  0.199064001       1.34539402       0.00000000       137889.781      -3.05397058    
  0.198755994       1.34360003     -0.303496003       137889.781      -3.05397058    
  0.353130996       1.31116498     -0.303510994       137889.781      -3.05397058    
  0.198755994       1.34360003     -0.303496003       65427.2266      -3.03295994    
   4.12769988E-02   1.35817802     -0.303508013       65427.2266      -3.03295994    
   4.12410013E-02   1.36093795     -0.606999993       65427.2266      -3.03295994    
  0.199025005       1.34539795     -0.606999993       65427.2266      -3.03295994    
  0.198755994       1.34360003     -0.303496003       64668.5234      -3.04269361    
  0.199025005       1.34539795     -0.606999993       64668.5234      -3.04269361    
  0.353300005       1.31237996     -0.606999993       64668.5234      -3.04269361    
  0.353130996       1.31116498     -0.303510994       64668.5234      -3.04269361    
  0.198755994       1.34360003     -0.303496003       140373.797      -3.04438043    
  0.199064001       1.34539402       0.00000000       140373.797      -3.04438043    
   4.17769998E-02   1.36088502       0.00000000       140373.797      -3.04438043    
   4.12769988E-02   1.35817802     -0.303508013       140373.797      -3.04438043    
   4.17769998E-02   1.36088502       0.00000000       142852.438      -3.03737736    
 -0.116410002       1.35353506       0.00000000       142852.438      -3.03737736    
 -0.116471998       1.35271096     -0.303496987       142852.438      -3.03737736    
   4.12769988E-02   1.35817802     -0.303508013       142852.438      -3.03737736    
 -0.116471998       1.35271096     -0.303496987       66560.5391      -3.01665163    
 -0.273027003       1.33229196     -0.303496003       66560.5391      -3.01665163    
 -0.273876995       1.33647299     -0.606999993       66560.5391      -3.01665163    
 -0.116722003       1.35350394     -0.606999993       66560.5391      -3.01665163    
 -0.116471998       1.35271096     -0.303496987       66085.8359      -3.02535939    
 -0.116722003       1.35350394     -0.606999993       66085.8359      -3.02535939    
   4.12410013E-02   1.36093795     -0.606999993       66085.8359      -3.02535939    
   4.12769988E-02   1.35817802     -0.303508013       66085.8359      -3.02535939    
 -0.116471998       1.35271096     -0.303496987       145844.703      -3.02916598    
 -0.116410002       1.35353506       0.00000000       145844.703      -3.02916598    
 -0.274069011       1.33641505       0.00000000       145844.703      -3.02916598    
 -0.273027003       1.33229196     -0.303496003       145844.703      -3.02916598    
 -0.274069011       1.33641505       0.00000000       145789.266      -3.01892900    
 -0.425588995       1.29045200       0.00000000       145789.266      -3.01892900    
 -0.425258011       1.28953803     -0.303507000       145789.266      -3.01892900    
 -0.273027003       1.33229196     -0.303496003       145789.266      -3.01892900    
 -0.425258011       1.28953803     -0.303507000       66648.7500      -2.99119830    
 -0.572302997       1.23206902     -0.303485990       66648.7500      -2.99119830    
 -0.573064029       1.23399496     -0.606999993       66648.7500      -2.99119830    
 -0.425651014       1.29043305     -0.606999993       66648.7500      -2.99119830    
 -0.425258011       1.28953803     -0.303507000       66662.5156      -3.00588965    
 -0.425651014       1.29043305     -0.606999993       66662.5156      -3.00588965    
 -0.273876995       1.33647299     -0.606999993       66662.5156      -3.00588965    
 -0.273027003       1.33229196     -0.303496003       66662.5156      -3.00588965    
 -0.425258011       1.28953803     -0.303507000       143290.156      -3.00450969    
 -0.425588995       1.29045200       0.00000000       143290.156      -3.00450969    
 -0.573195994       1.23392498       0.00000000       143290.156      -3.00450969    
 -0.572302997       1.23206902     -0.303485990       143290.156      -3.00450969    
 -0.573195994       1.23392498       0.00000000       142631.922      -2.98860788    
 -0.712655008       1.15938199       0.00000000       142631.922      -2.98860788    
 -0.711889029       1.15749002     -0.303496003       142631.922      -2.98860788    
 -0.572302997       1.23206902     -0.303485990       142631.922      -2.98860788    
 -0.711889029       1.15749002     -0.303496003       67546.2422      -2.96065521    
 -0.840825975       1.06629205     -0.303485990       67546.2422      -2.96065521    
 -0.841368973       1.06682706     -0.606999993       67546.2422      -2.96065521    
 -0.712980986       1.15920806     -0.606999993       67546.2422      -2.96065521    
 -0.711889029       1.15749002     -0.303496003       66893.9531      -2.97526574    
 -0.712980986       1.15920806     -0.606999993       66893.9531      -2.97526574    
 -0.573064029       1.23399496     -0.606999993       66893.9531      -2.97526574    
 -0.572302997       1.23206902     -0.303485990       66893.9531      -2.97526574    
 -0.711889029       1.15749002     -0.303496003       142148.594      -2.97438765    
 -0.712655008       1.15938199       0.00000000       142148.594      -2.97438765    
 -0.841165006       1.06699395       0.00000000       142148.594      -2.97438765    
 -0.840825975       1.06629205     -0.303485990       142148.594      -2.97438765    
 -0.841165006       1.06699395       0.00000000       145474.969      -2.96556854    
 -0.963320017      0.966744006       0.00000000       145474.969      -2.96556854    
 -0.960084975      0.962615013     -0.303470999       145474.969      -2.96556854    
 -0.840825975       1.06629205     -0.303485990       145474.969      -2.96556854    
 -0.960084975      0.962615013     -0.303470999       70662.3359      -2.94513440    
  -1.06383705      0.843237996     -0.303481996       70662.3359      -2.94513440    
  -1.06481802      0.843816996     -0.606999993       70662.3359      -2.94513440    
 -0.963873982      0.966289997     -0.606999993       70662.3359      -2.94513440    
 -0.960084975      0.962615013     -0.303470999       68824.7578      -2.95022702    
 -0.963873982      0.966289997     -0.606999993       68824.7578      -2.95022702    
 -0.841368973       1.06682706     -0.606999993       68824.7578      -2.95022702    
 -0.840825975       1.06629205     -0.303485990       68824.7578      -2.95022702    
 -0.960084975      0.962615013     -0.303470999       150196.016      -2.96218467    
 -0.963320017      0.966744006       0.00000000       150196.016      -2.96218467    
  -1.06464398      0.844029009       0.00000000       150196.016      -2.96218467    
  -1.06383705      0.843237996     -0.303481996       150196.016      -2.96218467    
  -1.06464398      0.844029009       0.00000000       155140.562      -2.96415997    
  -1.15769398      0.715813994       0.00000000       155140.562      -2.96415997    
  -1.15564799      0.714680016     -0.303483993       155140.562      -2.96415997    
  -1.06383705      0.843237996     -0.303481996       155140.562      -2.96415997    
  -1.15564799      0.714680016     -0.303483993       75288.0938      -2.94880199    
  -1.23108304      0.575536013     -0.303514004       75288.0938      -2.94880199    
  -1.23232996      0.576179981     -0.606999993       75288.0938      -2.94880199    
  -1.15756094      0.716063023     -0.606999993       75288.0938      -2.94880199    
  -1.15564799      0.714680016     -0.303483993       72996.9766      -2.94536471    
  -1.15756094      0.716063023     -0.606999993       72996.9766      -2.94536471    
  -1.06481802      0.843816996     -0.606999993       72996.9766      -2.94536471    
  -1.06383705      0.843237996     -0.303481996       72996.9766      -2.94536471    
  -1.15564799      0.714680016     -0.303483993       162126.297      -2.96962500    
  -1.15769398      0.715813994       0.00000000       162126.297      -2.96962500    
  -1.23224795      0.576331973       0.00000000       162126.297      -2.96962500    
  -1.23108304      0.575536013     -0.303514004       162126.297      -2.96962500    
  -1.23224795      0.576331973       0.00000000       165800.516      -2.97599840    
  -1.28948605      0.428772002       0.00000000       165800.516      -2.97599840    
  -1.28842103      0.428404987     -0.303512990       165800.516      -2.97599840    
  -1.23108304      0.575536013     -0.303514004       165800.516      -2.97599840    
  -1.28842103      0.428404987     -0.303512990       78375.0469      -2.95846701    
  -1.33082402      0.275959998     -0.303492010       78375.0469      -2.95846701    
  -1.33550000      0.277083993     -0.606999993       78375.0469      -2.95846701    