 VARIABLES="X" "Y" "Z" "abs(p) (Pa)" "angle(p) (rad)"
ZONE N=   2720,E =    2069, F=FEPOINT, ET=QUADRILATERAL
 -0.767116010      -1.12776399       0.00000000       3775.53735       1.97334743    
 -0.769354999      -1.12002099     -0.303523988       3775.53735       1.97334743    
 -0.896136999      -1.02028203     -0.303463012       3775.53735       1.97334743    
 -0.894908011      -1.02288902       0.00000000       3775.53735       1.97334743    
 -0.767116010      -1.12776399       0.00000000       3775.24512       1.97335351    
 -0.630888999      -1.20308697       0.00000000       3775.24512       1.97335351    
 -0.635528028      -1.19958198     -0.303541005       3775.24512       1.97335351    
 -0.769354999      -1.12002099     -0.303523988       3775.24512       1.97335351    
 -0.635528028      -1.19958198     -0.303541005       3774.84229       1.97071660    
 -0.495362997      -1.26606500     -0.303519011       3774.84229       1.97071660    
 -0.499298006      -1.26809204     -0.606999993       3774.84229       1.97071660    
 -0.640147984      -1.19813800     -0.606998026       3774.84229       1.97071660    
 -0.635528028      -1.19958198     -0.303541005       3775.02832       1.97070873    
 -0.640147984      -1.19813800     -0.606998026       3775.02832       1.97070873    
 -0.777105987      -1.11956596     -0.606999993       3775.02832       1.97070873    
 -0.769354999      -1.12002099     -0.303523988       3775.02832       1.97070873    
 -0.635528028      -1.19958198     -0.303541005       3773.46045       1.97343731    
 -0.630888999      -1.20308697       0.00000000       3773.46045       1.97343731    
 -0.494486004      -1.26955199       0.00000000       3773.46045       1.97343731    
 -0.495362997      -1.26606500     -0.303519011       3773.46045       1.97343731    
 -0.494486004      -1.26955199       0.00000000       3773.76001       1.97341514    
 -0.346311986      -1.31449997       0.00000000       3773.76001       1.97341514    
 -0.346753001      -1.31307304     -0.303510010       3773.76001       1.97341514    
 -0.495362997      -1.26606500     -0.303519011       3773.76001       1.97341514    
 -0.346753001      -1.31307304     -0.303510010       3774.37451       1.97075462    
 -0.193608001      -1.34425998     -0.303494990       3774.37451       1.97075462    
 -0.195028007      -1.34579206     -0.606999993       3774.37451       1.97075462    
 -0.348751009      -1.31376004     -0.606999993       3774.37451       1.97075462    
 -0.346753001      -1.31307304     -0.303510010       3774.84131       1.97070909    
 -0.348751009      -1.31376004     -0.606999993       3774.84131       1.97070909    
 -0.499298006      -1.26809204     -0.606999993       3774.84131       1.97070909    
 -0.495362997      -1.26606500     -0.303519011       3774.84131       1.97070909    
 -0.346753001      -1.31307304     -0.303510010       3774.01050       1.97341168    
 -0.346311986      -1.31449997       0.00000000       3774.01050       1.97341168    
 -0.193381995      -1.34595394       0.00000000       3774.01050       1.97341168    
 -0.193608001      -1.34425998     -0.303494990       3774.01050       1.97341168    
 -0.193381995      -1.34595394       0.00000000       3775.58911       1.97330463    
  -3.75179984E-02  -1.36130500       0.00000000       3775.58911       1.97330463    
  -3.73950005E-02  -1.35827899     -0.303512007       3775.58911       1.97330463    
 -0.193608001      -1.34425998     -0.303494990       3775.58911       1.97330463    
  -3.73950005E-02  -1.35827899     -0.303512007       3775.04346       1.97065675    
  0.119547002      -1.35239303     -0.303498000       3775.04346       1.97065675    
  0.119135000      -1.35326600     -0.606999993       3775.04346       1.97065675    
  -3.82840000E-02  -1.36122894     -0.606998980       3775.04346       1.97065675    
  -3.73950005E-02  -1.35827899     -0.303512007       3774.78638       1.97068632    
  -3.82840000E-02  -1.36122894     -0.606998980       3774.78638       1.97068632    
 -0.195028007      -1.34579206     -0.606999993       3774.78638       1.97068632    
 -0.193608001      -1.34425998     -0.303494990       3774.78638       1.97068632    
  -3.73950005E-02  -1.35827899     -0.303512007       3775.10327       1.97328711    
  -3.75179984E-02  -1.36130500       0.00000000       3775.10327       1.97328711    
  0.119788997      -1.35320199       0.00000000       3775.10327       1.97328711    
  0.119547002      -1.35239303     -0.303498000       3775.10327       1.97328711    
  0.119788997      -1.35320199       0.00000000       3774.98022       1.97323811    
  0.276576012      -1.33565402       0.00000000       3774.98022       1.97323811    
  0.275435001      -1.33191597     -0.303496003       3774.98022       1.97323811    
  0.119547002      -1.35239303     -0.303498000       3774.98022       1.97323811    
  0.275435001      -1.33191597     -0.303496003       3776.27466       1.97051656    
  0.427076995      -1.28898001     -0.303507000       3776.27466       1.97051656    
  0.427242011      -1.28995001     -0.606999993       3776.27466       1.97051656    
  0.275831014      -1.33588004     -0.606999993       3776.27466       1.97051656    
  0.275435001      -1.33191597     -0.303496003       3776.05469       1.97055364    
  0.275831014      -1.33588004     -0.606999993       3776.05469       1.97055364    
  0.119135000      -1.35326600     -0.606999993       3776.05469       1.97055364    
  0.119547002      -1.35239303     -0.303498000       3776.05469       1.97055364    
  0.275435001      -1.33191597     -0.303496003       3774.95557       1.97319388    
  0.276576012      -1.33565402       0.00000000       3774.95557       1.97319388    
  0.427509993      -1.28986895       0.00000000       3774.95557       1.97319388    
  0.427076995      -1.28898001     -0.303507000       3774.95557       1.97319388    
  0.427509993      -1.28986895       0.00000000       3774.61621       1.97317350    
  0.574636996      -1.23315501       0.00000000       3774.61621       1.97317350    
  0.573706985      -1.23136795     -0.303485990       3774.61621       1.97317350    
  0.427076995      -1.28898001     -0.303507000       3774.61621       1.97317350    
  0.573706985      -1.23136795     -0.303485990       3777.17065       1.97042775    
  0.712854981      -1.15688002     -0.303496987       3777.17065       1.97042775    
  0.713809013      -1.15876603     -0.606999993       3777.17065       1.97042775    
  0.574283004      -1.23334301     -0.606999993       3777.17065       1.97042775    
  0.573706985      -1.23136795     -0.303485990       3775.96387       1.97054434    
  0.574283004      -1.23334301     -0.606999993       3775.96387       1.97054434    
  0.427242011      -1.28995001     -0.606999993       3775.96387       1.97054434    
  0.427076995      -1.28898001     -0.303507000       3775.96387       1.97054434    
  0.573706985      -1.23136795     -0.303485990       3775.02637       1.97311985    
  0.574636996      -1.23315501       0.00000000       3775.02637       1.97311985    
  0.713741004      -1.15880203       0.00000000       3775.02637       1.97311985    
  0.712854981      -1.15688002     -0.303496987       3775.02637       1.97311985    
  0.713741004      -1.15880203       0.00000000       3775.33887       1.97309005    
  0.841937006      -1.06636095       0.00000000       3775.33887       1.97309005    
  0.841498017      -1.06573403     -0.303485990       3775.33887       1.97309005    
  0.712854981      -1.15688002     -0.303496987       3775.33887       1.97309005    
  0.841498017      -1.06573403     -0.303485990       3779.19165       1.97025764    
  0.960639000     -0.962104976     -0.303470999       3779.19165       1.97025764    
  0.964356005     -0.965893984     -0.606999993       3779.19165       1.97025764    
  0.841796994      -1.06647599     -0.606999993       3779.19165       1.97025764    
  0.841498017      -1.06573403     -0.303485990       3777.59326       1.97040987    
  0.841796994      -1.06647599     -0.606999993       3777.59326       1.97040987    
  0.713809013      -1.15876603     -0.606999993       3777.59326       1.97040987    
  0.712854981      -1.15688002     -0.303496987       3777.59326       1.97040987    
  0.841498017      -1.06573403     -0.303485990       3775.21753       1.97312319    
  0.841937006      -1.06636095       0.00000000       3775.21753       1.97312319    
  0.963932991     -0.966242015       0.00000000       3775.21753       1.97312319    
  0.960639000     -0.962104976     -0.303470999       3775.21753       1.97312319    
  0.963932991     -0.966242015       0.00000000       3776.06592       1.97306550    
   1.06506598     -0.843514979       0.00000000       3776.06592       1.97306550    
   1.06428695     -0.842682004     -0.303481996       3776.06592       1.97306550    
  0.960639000     -0.962104976     -0.303470999       3776.06592       1.97306550    
   1.06428695     -0.842682004     -0.303481996       3776.32715       1.97059667    
   1.15591598     -0.714210987     -0.303485006       3776.32715       1.97059667    
   1.15788805     -0.715448976     -0.606999993       3776.32715       1.97059667    
   1.06537795     -0.843134999     -0.606999993       3776.32715       1.97059667    
   1.06428695     -0.842682004     -0.303481996       3780.03979       1.97018862    
   1.06537795     -0.843134999     -0.606999993       3780.03979       1.97018862    
  0.964356005     -0.965893984     -0.606999993       3780.03979       1.97018862    
  0.960639000     -0.962104976     -0.303470999       3780.03979       1.97018862    
   1.06428695     -0.842682004     -0.303481996       3776.20142       1.97297752    
   1.06506598     -0.843514979       0.00000000       3776.20142       1.97297752    
   1.15792501     -0.715381980       0.00000000       3776.20142       1.97297752    
   1.15591598     -0.714210987     -0.303485006       3776.20142       1.97297752    
   1.15792501     -0.715381980       0.00000000       3778.04028       1.97287643    
   1.23237598     -0.576093972       0.00000000       3778.04028       1.97287643    
   1.23120904     -0.575251997     -0.303514004       3778.04028       1.97287643    
   1.15591598     -0.714210987     -0.303485006       3778.04028       1.97287643    
   1.23120904     -0.575251997     -0.303514004       3778.13257       1.97046506    
   1.28844094     -0.428344995     -0.303512990       3778.13257       1.97046506    
   1.28952503     -0.428642988     -0.606999993       3778.13257       1.97046506    
   1.23252702     -0.575810015     -0.606999993       3778.13257       1.97046506    
   1.23120904     -0.575251997     -0.303514004       3777.53491       1.97049737    
   1.23252702     -0.575810015     -0.606999993       3777.53491       1.97049737    
   1.15788805     -0.715448976     -0.606999993       3777.53491       1.97049737    
   1.15591598     -0.714210987     -0.303485006       3777.53491       1.97049737    
   1.23120904     -0.575251997     -0.303514004       3775.53662       1.97323954    
   1.23237598     -0.576093972       0.00000000       3775.53662       1.97323954    
   1.28947699     -0.428801000       0.00000000       3775.53662       1.97323954    
   1.28844094     -0.428344995     -0.303512990       3775.53662       1.97323954    
   1.28947699     -0.428801000       0.00000000       3777.84839       1.97314119    
   1.33532202     -0.277671993       0.00000000       3777.84839       1.97314119    
   1.33076501     -0.276203990     -0.303492010       3777.84839       1.97314119    
   1.28844094     -0.428344995     -0.303512990       3777.84839       1.97314119    
   1.33076501     -0.276203990     -0.303492010       3776.78809       1.97059584    
   1.35229194     -0.119709998     -0.303514004       3776.78809       1.97059584    
   1.35321999     -0.119608998     -0.606999993       3776.78809       1.97059584    
   1.33549094     -0.277112991     -0.606999993       3776.78809       1.97059584    
   1.33076501     -0.276203990     -0.303492010       3779.23022       1.97035789    
   1.33549094     -0.277112991     -0.606999993       3779.23022       1.97035789    
   1.28952503     -0.428642988     -0.606999993       3779.23022       1.97035789    
   1.28844094     -0.428344995     -0.303512990       3779.23022       1.97035789    
   1.33076501     -0.276203990     -0.303492010       3782.23877       1.97269702    
   1.33532202     -0.277671993       0.00000000       3782.23877       1.97269702    
   1.35319102     -0.119900003       0.00000000       3782.23877       1.97269702    
   1.35229194     -0.119709998     -0.303514004       3782.23877       1.97269702    
   1.35319102     -0.119900003       0.00000000       3783.25293       1.97262049    
   1.36124396       3.81390005E-02   0.00000000       3783.25293       1.97262049    
   1.35858905       3.79349999E-02 -0.303501010       3783.25293       1.97262049    
   1.35229194     -0.119709998     -0.303514004       3783.25293       1.97262049    
   1.35858905       3.79349999E-02 -0.303501010       3781.43457       1.97015047    
   1.34464097      0.195331007     -0.303496003       3781.43457       1.97015047    
   1.34573400      0.195616007     -0.606999993       3781.43457       1.97015047    
   1.36126804       3.78950015E-02 -0.606999993       3781.43457       1.97015047    
   1.35858905       3.79349999E-02 -0.303501010       3781.04663       1.97018290    
   1.36126804       3.78950015E-02 -0.606999993       3781.04663       1.97018290    
   1.35321999     -0.119608998     -0.606999993       3781.04663       1.97018290    
   1.35229194     -0.119709998     -0.303514004       3781.04663       1.97018290    
   1.35858905       3.79349999E-02 -0.303501010       3780.89380       1.97284961    
   1.36124396       3.81390005E-02   0.00000000       3780.89380       1.97284961    
   1.34575403      0.195406005       0.00000000       3780.89380       1.97284961    
   1.34464097      0.195331007     -0.303496003       3780.89380       1.97284961    
   1.34575403      0.195406005       0.00000000       3781.82275       1.97278762    
   1.31339800      0.349945009       0.00000000       3781.82275       1.97278762    
   1.31216300      0.349725991     -0.303487003       3781.82275       1.97278762    
   1.34464097      0.195331007     -0.303496003       3781.82275       1.97278762    
   1.31216300      0.349725991     -0.303487003       3784.10449       1.96995568    
   1.26341999      0.500032008     -0.303494006       3784.10449       1.96995568    
   1.26736605      0.501691997     -0.606999993       3784.10449       1.96995568    
   1.31333196      0.350163996     -0.606999993       3784.10449       1.96995568    
   1.31216300      0.349725991     -0.303487003       3781.61719       1.97014761    
   1.31333196      0.350163996     -0.606999993       3781.61719       1.97014761    
   1.34573400      0.195616007     -0.606999993       3781.61719       1.97014761    
   1.34464097      0.195331007     -0.303496003       3781.61719       1.97014761    
   1.31216300      0.349725991     -0.303487003       3782.78442       1.97274411    
   1.31339800      0.349945009       0.00000000       3782.78442       1.97274411    
   1.26751196      0.501209974       0.00000000       3782.78442       1.97274411    
   1.26341999      0.500032008     -0.303494006       3782.78442       1.97274411    
   1.26751196      0.501209974       0.00000000       3786.21411       1.97242832    
   1.19658697      0.643051028       0.00000000       3786.21411       1.97242832    
   1.19583094      0.642783999     -0.303505003       3786.21411       1.97242832    
   1.26341999      0.500032008     -0.303494006       3786.21411       1.97242832    
   1.19583094      0.642783999     -0.303505003       3782.62158       1.97002470    
   1.11495602      0.778467000     -0.303483993       3782.62158       1.97002470    
   1.11731696      0.779847026     -0.606999993       3782.62158       1.97002470    
   1.19653296      0.643149972     -0.606999993       3782.62158       1.97002470    
   1.19583094      0.642783999     -0.303505003       3784.38379       1.96992791    
   1.19653296      0.643149972     -0.606999993       3784.38379       1.96992791    
   1.26736605      0.501691997     -0.606999993       3784.38379       1.96992791    
   1.26341999      0.500032008     -0.303494006       3784.38379       1.96992791    
   1.19583094      0.642783999     -0.303505003       3785.48193       1.97240269    
   1.19658697      0.643051028       0.00000000       3785.48193       1.97240269    
   1.11705506      0.780165970       0.00000000       3785.48193       1.97240269    
   1.11495602      0.778467000     -0.303483993       3785.48193       1.97240269    
   1.11705506      0.780165970       0.00000000       3784.84961       1.97238410    
   1.01674199      0.902397990       0.00000000       3784.84961       1.97238410    
   1.01591504      0.901737988     -0.303478003       3784.84961       1.97238410    
   1.11495602      0.778467000     -0.303483993       3784.84961       1.97238410    
   1.01591504      0.901737988     -0.303478003       3784.43921       1.96980858    
  0.904204011       1.01322901     -0.303456992       3784.43921       1.96980858    
  0.905143023       1.01448905     -0.606999993       3784.43921       1.96980858    
   1.01659799      0.902572989     -0.606999993       3784.43921       1.96980858    
   1.01591504      0.901737988     -0.303478003       3784.97534       1.96977460    
   1.01659799      0.902572989     -0.606999993       3784.97534       1.96977460    
   1.11731696      0.779847026     -0.606999993       3784.97534       1.96977460    
   1.11495602      0.778467000     -0.303483993       3784.97534       1.96977460    
   1.01591504      0.901737988     -0.303478003       3784.15747       1.97237957    
   1.01674199      0.902397990       0.00000000       3784.15747       1.97237957    
  0.905318975       1.01434398       0.00000000       3784.15747       1.97237957    
  0.904204011       1.01322901     -0.303456992       3784.15747       1.97237957    
  0.905318975       1.01434398       0.00000000       3782.24219       1.97249734    
  0.782918990       1.11479497       0.00000000       3782.24219       1.97249734    
  0.780644000       1.11195600     -0.303485006       3782.24219       1.97249734    
  0.904204011       1.01322901     -0.303456992       3782.24219       1.97249734    
  0.780644000       1.11195600     -0.303485006       3784.76074       1.96974087    
  0.645825028       1.19414902     -0.303514004       3784.76074       1.96974087    
  0.646153986       1.19492805     -0.606999993       3784.76074       1.96974087    
  0.782611012       1.11504900     -0.606999993       3784.76074       1.96974087    
  0.780644000       1.11195600     -0.303485006       3784.94507       1.96973336    
  0.782611012       1.11504900     -0.606999993       3784.94507       1.96973336    
  0.905143023       1.01448905     -0.606999993       3784.94507       1.96973336    
  0.904204011       1.01322901     -0.303456992       3784.94507       1.96973336    
  0.780644000       1.11195600     -0.303485006       3781.11914       1.97256875    
  0.782918990       1.11479497       0.00000000       3781.11914       1.97256875    
  0.646345019       1.19482601       0.00000000       3781.11914       1.97256875    
  0.645825028       1.19414902     -0.303514004       3781.11914       1.97256875    
  0.646345019       1.19482601       0.00000000       3783.34375       1.97244465    
  0.504974008       1.26637006       0.00000000       3783.34375       1.97244465    
  0.503772974       1.26314998     -0.303521991       3783.34375       1.97244465    
  0.645825028       1.19414902     -0.303514004       3783.34375       1.97244465    
  0.503772974       1.26314998     -0.303521991       3785.95312       1.96963692    
  0.353130996       1.31116498     -0.303510994       3785.95312       1.96963692    
  0.353300005       1.31237996     -0.606999993       3785.95312       1.96963692    
  0.505183995       1.26630700     -0.606999993       3785.95312       1.96963692    
  0.503772974       1.26314998     -0.303521991       3785.36938       1.96968532    
  0.505183995       1.26630700     -0.606999993       3785.36938       1.96968532    
  0.646153986       1.19492805     -0.606999993       3785.36938       1.96968532    
  0.645825028       1.19414902     -0.303514004       3785.36938       1.96968532    
  0.503772974       1.26314998     -0.303521991       3783.45898       1.97243643    
  0.504974008       1.26637006       0.00000000       3783.45898       1.97243643    
  0.353493989       1.31232095       0.00000000       3783.45898       1.97243643    
  0.353130996       1.31116498     -0.303510994       3783.45898       1.97243643    
  0.353493989       1.31232095       0.00000000       3783.39795       1.97244763    
  0.199064001       1.34539402       0.00000000       3783.39795       1.97244763    
  0.198755994       1.34360003     -0.303496003       3783.39795       1.97244763    
  0.353130996       1.31116498     -0.303510994       3783.39795       1.97244763    
  0.198755994       1.34360003     -0.303496003       3787.60474       1.96956837    
   4.12769988E-02   1.35817802     -0.303508013       3787.60474       1.96956837    
   4.12410013E-02   1.36093795     -0.606999993       3787.60474       1.96956837    
  0.199025005       1.34539795     -0.606999993       3787.60474       1.96956837    
  0.198755994       1.34360003     -0.303496003       3785.43555       1.96970284    
  0.199025005       1.34539795     -0.606999993       3785.43555       1.96970284    
  0.353300005       1.31237996     -0.606999993       3785.43555       1.96970284    
  0.353130996       1.31116498     -0.303510994       3785.43555       1.96970284    
  0.198755994       1.34360003     -0.303496003       3783.26416       1.97247660    
  0.199064001       1.34539402       0.00000000       3783.26416       1.97247660    
   4.17769998E-02   1.36088502       0.00000000       3783.26416       1.97247660    
   4.12769988E-02   1.35817802     -0.303508013       3783.26416       1.97247660    
   4.17769998E-02   1.36088502       0.00000000       3784.46191       1.97244513    
 -0.116410002       1.35353506       0.00000000       3784.46191       1.97244513    
 -0.116471998       1.35271096     -0.303496987       3784.46191       1.97244513    
   4.12769988E-02   1.35817802     -0.303508013       3784.46191       1.97244513    
 -0.116471998       1.35271096     -0.303496987       3787.79224       1.96965861    
 -0.273027003       1.33229196     -0.303496003       3787.79224       1.96965861    
 -0.273876995       1.33647299     -0.606999993       3787.79224       1.96965861    
 -0.116722003       1.35350394     -0.606999993       3787.79224       1.96965861    
 -0.116471998       1.35271096     -0.303496987       3787.18555       1.96962738    
 -0.116722003       1.35350394     -0.606999993       3787.18555       1.96962738    
   4.12410013E-02   1.36093795     -0.606999993       3787.18555       1.96962738    
   4.12769988E-02   1.35817802     -0.303508013       3787.18555       1.96962738    
 -0.116471998       1.35271096     -0.303496987       3785.11377       1.97248137    
 -0.116410002       1.35353506       0.00000000       3785.11377       1.97248137    
 -0.274069011       1.33641505       0.00000000       3785.11377       1.97248137    
 -0.273027003       1.33229196     -0.303496003       3785.11377       1.97248137    
 -0.274069011       1.33641505       0.00000000       3784.90015       1.97252083    
 -0.425588995       1.29045200       0.00000000       3784.90015       1.97252083    
 -0.425258011       1.28953803     -0.303507000       3784.90015       1.97252083    
 -0.273027003       1.33229196     -0.303496003       3784.90015       1.97252083    
 -0.425258011       1.28953803     -0.303507000       3785.63232       1.96987486    
 -0.572302997       1.23206902     -0.303485990       3785.63232       1.96987486    
 -0.573064029       1.23399496     -0.606999993       3785.63232       1.96987486    
 -0.425651014       1.29043305     -0.606999993       3785.63232       1.96987486    
 -0.425258011       1.28953803     -0.303507000       3787.22290       1.96971810    
 -0.425651014       1.29043305     -0.606999993       3787.22290       1.96971810    
 -0.273876995       1.33647299     -0.606999993       3787.22290       1.96971810    
 -0.273027003       1.33229196     -0.303496003       3787.22290       1.96971810    
 -0.425258011       1.28953803     -0.303507000       3782.92749       1.97262776    
 -0.425588995       1.29045200       0.00000000       3782.92749       1.97262776    
 -0.573195994       1.23392498       0.00000000       3782.92749       1.97262776    
 -0.572302997       1.23206902     -0.303485990       3782.92749       1.97262776    
 -0.573195994       1.23392498       0.00000000       3781.04199       1.97274768    
 -0.712655008       1.15938199       0.00000000       3781.04199       1.97274768    
 -0.711889029       1.15749002     -0.303496003       3781.04199       1.97274768    
 -0.572302997       1.23206902     -0.303485990       3781.04199       1.97274768    
 -0.711889029       1.15749002     -0.303496003       3783.61499       1.97003829    
 -0.840825975       1.06629205     -0.303485990       3783.61499       1.97003829    
 -0.841368973       1.06682706     -0.606999993       3783.61499       1.97003829    
 -0.712980986       1.15920806     -0.606999993       3783.61499       1.97003829    
 -0.711889029       1.15749002     -0.303496003       3784.89990       1.96991897    
 -0.712980986       1.15920806     -0.606999993       3784.89990       1.96991897    
 -0.573064029       1.23399496     -0.606999993       3784.89990       1.96991897    
 -0.572302997       1.23206902     -0.303485990       3784.89990       1.96991897    
 -0.711889029       1.15749002     -0.303496003       3780.19189       1.97274888    
 -0.712655008       1.15938199       0.00000000       3780.19189       1.97274888    
 -0.841165006       1.06699395       0.00000000       3780.19189       1.97274888    
 -0.840825975       1.06629205     -0.303485990       3780.19189       1.97274888    
 -0.841165006       1.06699395       0.00000000       3779.16577       1.97284448    
 -0.963320017      0.966744006       0.00000000       3779.16577       1.97284448    
 -0.960084975      0.962615013     -0.303470999       3779.16577       1.97284448    
 -0.840825975       1.06629205     -0.303485990       3779.16577       1.97284448    
 -0.960084975      0.962615013     -0.303470999       3782.10571       1.97016752    
  -1.06383705      0.843237996     -0.303481996       3782.10571       1.97016752    
  -1.06481802      0.843816996     -0.606999993       3782.10571       1.97016752    
 -0.963873982      0.966289997     -0.606999993       3782.10571       1.97016752    
 -0.960084975      0.962615013     -0.303470999       3783.08521       1.97007108    
 -0.963873982      0.966289997     -0.606999993       3783.08521       1.97007108    
 -0.841368973       1.06682706     -0.606999993       3783.08521       1.97007108    
 -0.840825975       1.06629205     -0.303485990       3783.08521       1.97007108    
 -0.960084975      0.962615013     -0.303470999       3779.00146       1.97290874    
 -0.963320017      0.966744006       0.00000000       3779.00146       1.97290874    
  -1.06464398      0.844029009       0.00000000       3779.00146       1.97290874    
  -1.06383705      0.843237996     -0.303481996       3779.00146       1.97290874    
  -1.06464398      0.844029009       0.00000000       3778.91235       1.97292721    
  -1.15769398      0.715813994       0.00000000       3778.91235       1.97292721    
  -1.15564799      0.714680016     -0.303483993       3778.91235       1.97292721    
  -1.06383705      0.843237996     -0.303481996       3778.91235       1.97292721    
  -1.15564799      0.714680016     -0.303483993       3781.88818       1.97025704    
  -1.23108304      0.575536013     -0.303514004       3781.88818       1.97025704    
  -1.23232996      0.576179981     -0.606999993       3781.88818       1.97025704    
  -1.15756094      0.716063023     -0.606999993       3781.88818       1.97025704    
  -1.15564799      0.714680016     -0.303483993       3780.95923       1.97030973    
  -1.15756094      0.716063023     -0.606999993       3780.95923       1.97030973    
  -1.06481802      0.843816996     -0.606999993       3780.95923       1.97030973    
  -1.06383705      0.843237996     -0.303481996       3780.95923       1.97030973    
  -1.15564799      0.714680016     -0.303483993       3780.36328       1.97292912    
  -1.15769398      0.715813994       0.00000000       3780.36328       1.97292912    
  -1.23224795      0.576331973       0.00000000       3780.36328       1.97292912    
  -1.23108304      0.575536013     -0.303514004       3780.36328       1.97292912    
  -1.23224795      0.576331973       0.00000000       3781.03125       1.97295475    
  -1.28948605      0.428772002       0.00000000       3781.03125       1.97295475    
  -1.28842103      0.428404987     -0.303512990       3781.03125       1.97295475    
  -1.23108304      0.575536013     -0.303514004       3781.03125       1.97295475    
  -1.28842103      0.428404987     -0.303512990       3778.67139       1.97058940    
  -1.33082402      0.275959998     -0.303492010       3778.67139       1.97058940    
  -1.33550000      0.277083993     -0.606999993       3778.67139       1.97058940    