 VARIABLES="X" "Y" "Z" "abs(p) (Pa)" "angle(p) (rad)"
ZONE N=   2720,E =    2069, F=FEPOINT, ET=QUADRILATERAL
 -0.767116010      -1.12776399       0.00000000       57.9522896       1.69238412    
 -0.769354999      -1.12002099     -0.303523988       57.9522896       1.69238412    
 -0.896136999      -1.02028203     -0.303463012       57.9522896       1.69238412    
 -0.894908011      -1.02288902       0.00000000       57.9522896       1.69238412    
 -0.767116010      -1.12776399       0.00000000       59.0482674       1.69255972    
 -0.630888999      -1.20308697       0.00000000       59.0482674       1.69255972    
 -0.635528028      -1.19958198     -0.303541005       59.0482674       1.69255972    
 -0.769354999      -1.12002099     -0.303523988       59.0482674       1.69255972    
 -0.635528028      -1.19958198     -0.303541005       93.7510910       1.64508355    
 -0.495362997      -1.26606500     -0.303519011       93.7510910       1.64508355    
 -0.499298006      -1.26809204     -0.606999993       93.7510910       1.64508355    
 -0.640147984      -1.19813800     -0.606998026       93.7510910       1.64508355    
 -0.635528028      -1.19958198     -0.303541005       93.1472855       1.64400816    
 -0.640147984      -1.19813800     -0.606998026       93.1472855       1.64400816    
 -0.777105987      -1.11956596     -0.606999993       93.1472855       1.64400816    
 -0.769354999      -1.12002099     -0.303523988       93.1472855       1.64400816    
 -0.635528028      -1.19958198     -0.303541005       101.292938       1.64287293    
 -0.630888999      -1.20308697       0.00000000       101.292938       1.64287293    
 -0.494486004      -1.26955199       0.00000000       101.292938       1.64287293    
 -0.495362997      -1.26606500     -0.303519011       101.292938       1.64287293    
 -0.494486004      -1.26955199       0.00000000       100.954849       1.64428902    
 -0.346311986      -1.31449997       0.00000000       100.954849       1.64428902    
 -0.346753001      -1.31307304     -0.303510010       100.954849       1.64428902    
 -0.495362997      -1.26606500     -0.303519011       100.954849       1.64428902    
 -0.346753001      -1.31307304     -0.303510010       95.1528320       1.64635181    
 -0.193608001      -1.34425998     -0.303494990       95.1528320       1.64635181    
 -0.195028007      -1.34579206     -0.606999993       95.1528320       1.64635181    
 -0.348751009      -1.31376004     -0.606999993       95.1528320       1.64635181    
 -0.346753001      -1.31307304     -0.303510010       94.3039856       1.64594543    
 -0.348751009      -1.31376004     -0.606999993       94.3039856       1.64594543    
 -0.499298006      -1.26809204     -0.606999993       94.3039856       1.64594543    
 -0.495362997      -1.26606500     -0.303519011       94.3039856       1.64594543    
 -0.346753001      -1.31307304     -0.303510010       100.520363       1.64564288    
 -0.346311986      -1.31449997       0.00000000       100.520363       1.64564288    
 -0.193381995      -1.34595394       0.00000000       100.520363       1.64564288    
 -0.193608001      -1.34425998     -0.303494990       100.520363       1.64564288    
 -0.193381995      -1.34595394       0.00000000       58.9821777       1.70003653    
  -3.75179984E-02  -1.36130500       0.00000000       58.9821777       1.70003653    
  -3.73950005E-02  -1.35827899     -0.303512007       58.9821777       1.70003653    
 -0.193608001      -1.34425998     -0.303494990       58.9821777       1.70003653    
  -3.73950005E-02  -1.35827899     -0.303512007       94.0255356       1.64870143    
  0.119547002      -1.35239303     -0.303498000       94.0255356       1.64870143    
  0.119135000      -1.35326600     -0.606999993       94.0255356       1.64870143    
  -3.82840000E-02  -1.36122894     -0.606998980       94.0255356       1.64870143    
  -3.73950005E-02  -1.35827899     -0.303512007       88.4587326       1.65299773    
  -3.82840000E-02  -1.36122894     -0.606998980       88.4587326       1.65299773    
 -0.195028007      -1.34579206     -0.606999993       88.4587326       1.65299773    
 -0.193608001      -1.34425998     -0.303494990       88.4587326       1.65299773    
  -3.73950005E-02  -1.35827899     -0.303512007       59.1972275       1.70027602    
  -3.75179984E-02  -1.36130500       0.00000000       59.1972275       1.70027602    
  0.119788997      -1.35320199       0.00000000       59.1972275       1.70027602    
  0.119547002      -1.35239303     -0.303498000       59.1972275       1.70027602    
  0.119788997      -1.35320199       0.00000000       52.7436447       1.71682739    
  0.276576012      -1.33565402       0.00000000       52.7436447       1.71682739    
  0.275435001      -1.33191597     -0.303496003       52.7436447       1.71682739    
  0.119547002      -1.35239303     -0.303498000       52.7436447       1.71682739    
  0.275435001      -1.33191597     -0.303496003       38.2152252       1.76490569    
  0.427076995      -1.28898001     -0.303507000       38.2152252       1.76490569    
  0.427242011      -1.28995001     -0.606999993       38.2152252       1.76490569    
  0.275831014      -1.33588004     -0.606999993       38.2152252       1.76490569    
  0.275435001      -1.33191597     -0.303496003       37.0570602       1.77086926    
  0.275831014      -1.33588004     -0.606999993       37.0570602       1.77086926    
  0.119135000      -1.35326600     -0.606999993       37.0570602       1.77086926    
  0.119547002      -1.35239303     -0.303498000       37.0570602       1.77086926    
  0.275435001      -1.33191597     -0.303496003       53.5032082       1.71485531    
  0.276576012      -1.33565402       0.00000000       53.5032082       1.71485531    
  0.427509993      -1.28986895       0.00000000       53.5032082       1.71485531    
  0.427076995      -1.28898001     -0.303507000       53.5032082       1.71485531    
  0.427509993      -1.28986895       0.00000000       61.3324203       1.69591188    
  0.574636996      -1.23315501       0.00000000       61.3324203       1.69591188    
  0.573706985      -1.23136795     -0.303485990       61.3324203       1.69591188    
  0.427076995      -1.28898001     -0.303507000       61.3324203       1.69591188    
  0.573706985      -1.23136795     -0.303485990       43.0494652       1.74154246    
  0.712854981      -1.15688002     -0.303496987       43.0494652       1.74154246    
  0.713809013      -1.15876603     -0.606999993       43.0494652       1.74154246    
  0.574283004      -1.23334301     -0.606999993       43.0494652       1.74154246    
  0.573706985      -1.23136795     -0.303485990       39.3945770       1.75853813    
  0.574283004      -1.23334301     -0.606999993       39.3945770       1.75853813    
  0.427242011      -1.28995001     -0.606999993       39.3945770       1.75853813    
  0.427076995      -1.28898001     -0.303507000       39.3945770       1.75853813    
  0.573706985      -1.23136795     -0.303485990       67.1467133       1.68452978    
  0.574636996      -1.23315501       0.00000000       67.1467133       1.68452978    
  0.713741004      -1.15880203       0.00000000       67.1467133       1.68452978    
  0.712854981      -1.15688002     -0.303496987       67.1467133       1.68452978    
  0.713741004      -1.15880203       0.00000000       67.3110046       1.68351769    
  0.841937006      -1.06636095       0.00000000       67.3110046       1.68351769    
  0.841498017      -1.06573403     -0.303485990       67.3110046       1.68351769    
  0.712854981      -1.15688002     -0.303496987       67.3110046       1.68351769    
  0.841498017      -1.06573403     -0.303485990       51.4256935       1.71067047    
  0.960639000     -0.962104976     -0.303470999       51.4256935       1.71067047    
  0.964356005     -0.965893984     -0.606999993       51.4256935       1.71067047    
  0.841796994      -1.06647599     -0.606999993       51.4256935       1.71067047    
  0.841498017      -1.06573403     -0.303485990       50.8993835       1.71377814    
  0.841796994      -1.06647599     -0.606999993       50.8993835       1.71377814    
  0.713809013      -1.15876603     -0.606999993       50.8993835       1.71377814    
  0.712854981      -1.15688002     -0.303496987       50.8993835       1.71377814    
  0.841498017      -1.06573403     -0.303485990       50.8969383       1.71943426    
  0.841937006      -1.06636095       0.00000000       50.8969383       1.71943426    
  0.963932991     -0.966242015       0.00000000       50.8969383       1.71943426    
  0.960639000     -0.962104976     -0.303470999       50.8969383       1.71943426    
  0.963932991     -0.966242015       0.00000000       47.3474007       1.72899258    
   1.06506598     -0.843514979       0.00000000       47.3474007       1.72899258    
   1.06428695     -0.842682004     -0.303481996       47.3474007       1.72899258    
  0.960639000     -0.962104976     -0.303470999       47.3474007       1.72899258    
   1.06428695     -0.842682004     -0.303481996       12.4104319      -2.16345477    
   1.15591598     -0.714210987     -0.303485006       12.4104319      -2.16345477    
   1.15788805     -0.715448976     -0.606999993       12.4104319      -2.16345477    
   1.06537795     -0.843134999     -0.606999993       12.4104319      -2.16345477    
   1.06428695     -0.842682004     -0.303481996       50.8959465       1.71004677    
   1.06537795     -0.843134999     -0.606999993       50.8959465       1.71004677    
  0.964356005     -0.965893984     -0.606999993       50.8959465       1.71004677    
  0.960639000     -0.962104976     -0.303470999       50.8959465       1.71004677    
   1.06428695     -0.842682004     -0.303481996       45.9011116       1.73100424    
   1.06506598     -0.843514979       0.00000000       45.9011116       1.73100424    
   1.15792501     -0.715381980       0.00000000       45.9011116       1.73100424    
   1.15591598     -0.714210987     -0.303485006       45.9011116       1.73100424    
   1.15792501     -0.715381980       0.00000000       44.7243919       1.73279524    
   1.23237598     -0.576093972       0.00000000       44.7243919       1.73279524    
   1.23120904     -0.575251997     -0.303514004       44.7243919       1.73279524    
   1.15591598     -0.714210987     -0.303485006       44.7243919       1.73279524    
   1.23120904     -0.575251997     -0.303514004       13.8898115      -2.06711292    
   1.28844094     -0.428344995     -0.303512990       13.8898115      -2.06711292    
   1.28952503     -0.428642988     -0.606999993       13.8898115      -2.06711292    
   1.23252702     -0.575810015     -0.606999993       13.8898115      -2.06711292    
   1.23120904     -0.575251997     -0.303514004       12.7757626      -2.13060260    
   1.23252702     -0.575810015     -0.606999993       12.7757626      -2.13060260    
   1.15788805     -0.715448976     -0.606999993       12.7757626      -2.13060260    
   1.15591598     -0.714210987     -0.303485006       12.7757626      -2.13060260    
   1.23120904     -0.575251997     -0.303514004       20.5583820      -1.92276156    
   1.23237598     -0.576093972       0.00000000       20.5583820      -1.92276156    
   1.28947699     -0.428801000       0.00000000       20.5583820      -1.92276156    
   1.28844094     -0.428344995     -0.303512990       20.5583820      -1.92276156    
   1.28947699     -0.428801000       0.00000000       7.38810062      -2.78558660    
   1.33532202     -0.277671993       0.00000000       7.38810062      -2.78558660    
   1.33076501     -0.276203990     -0.303492010       7.38810062      -2.78558660    
   1.28844094     -0.428344995     -0.303512990       7.38810062      -2.78558660    
   1.33076501     -0.276203990     -0.303492010       103.259430      -1.63110054    
   1.35229194     -0.119709998     -0.303514004       103.259430      -1.63110054    
   1.35321999     -0.119608998     -0.606999993       103.259430      -1.63110054    
   1.33549094     -0.277112991     -0.606999993       103.259430      -1.63110054    
   1.33076501     -0.276203990     -0.303492010       20.0660133      -1.89670980    
   1.33549094     -0.277112991     -0.606999993       20.0660133      -1.89670980    
   1.28952503     -0.428642988     -0.606999993       20.0660133      -1.89670980    
   1.28844094     -0.428344995     -0.303512990       20.0660133      -1.89670980    
   1.33076501     -0.276203990     -0.303492010       57.2743416       1.68873739    
   1.33532202     -0.277671993       0.00000000       57.2743416       1.68873739    
   1.35319102     -0.119900003       0.00000000       57.2743416       1.68873739    
   1.35229194     -0.119709998     -0.303514004       57.2743416       1.68873739    
   1.35319102     -0.119900003       0.00000000       54.4703941       1.69113863    
   1.36124396       3.81390005E-02   0.00000000       54.4703941       1.69113863    
   1.35858905       3.79349999E-02 -0.303501010       54.4703941       1.69113863    
   1.35229194     -0.119709998     -0.303514004       54.4703941       1.69113863    
   1.35858905       3.79349999E-02 -0.303501010       47.1408043      -1.69370317    
   1.34464097      0.195331007     -0.303496003       47.1408043      -1.69370317    
   1.34573400      0.195616007     -0.606999993       47.1408043      -1.69370317    
   1.36126804       3.78950015E-02 -0.606999993       47.1408043      -1.69370317    
   1.35858905       3.79349999E-02 -0.303501010       42.7640648      -1.71161830    
   1.36126804       3.78950015E-02 -0.606999993       42.7640648      -1.71161830    
   1.35321999     -0.119608998     -0.606999993       42.7640648      -1.71161830    
   1.35229194     -0.119709998     -0.303514004       42.7640648      -1.71161830    
   1.35858905       3.79349999E-02 -0.303501010       33.1589012      -1.76303315    
   1.36124396       3.81390005E-02   0.00000000       33.1589012      -1.76303315    
   1.34575403      0.195406005       0.00000000       33.1589012      -1.76303315    
   1.34464097      0.195331007     -0.303496003       33.1589012      -1.76303315    
   1.34575403      0.195406005       0.00000000       33.7262306      -1.75337064    
   1.31339800      0.349945009       0.00000000       33.7262306      -1.75337064    
   1.31216300      0.349725991     -0.303487003       33.7262306      -1.75337064    
   1.34464097      0.195331007     -0.303496003       33.7262306      -1.75337064    
   1.31216300      0.349725991     -0.303487003       35.4206772      -1.72095406    
   1.26341999      0.500032008     -0.303494006       35.4206772      -1.72095406    
   1.26736605      0.501691997     -0.606999993       35.4206772      -1.72095406    
   1.31333196      0.350163996     -0.606999993       35.4206772      -1.72095406    
   1.31216300      0.349725991     -0.303487003       49.4366226      -1.68322408    
   1.31333196      0.350163996     -0.606999993       49.4366226      -1.68322408    
   1.34573400      0.195616007     -0.606999993       49.4366226      -1.68322408    
   1.34464097      0.195331007     -0.303496003       49.4366226      -1.68322408    
   1.31216300      0.349725991     -0.303487003       33.5620422      -1.74788499    
   1.31339800      0.349945009       0.00000000       33.5620422      -1.74788499    
   1.26751196      0.501209974       0.00000000       33.5620422      -1.74788499    
   1.26341999      0.500032008     -0.303494006       33.5620422      -1.74788499    
   1.26751196      0.501209974       0.00000000       49.5930862       1.68589783    
   1.19658697      0.643051028       0.00000000       49.5930862       1.68589783    
   1.19583094      0.642783999     -0.303505003       49.5930862       1.68589783    
   1.26341999      0.500032008     -0.303494006       49.5930862       1.68589783    
   1.19583094      0.642783999     -0.303505003       4.99728680       2.87047625    
   1.11495602      0.778467000     -0.303483993       4.99728680       2.87047625    
   1.11731696      0.779847026     -0.606999993       4.99728680       2.87047625    
   1.19653296      0.643149972     -0.606999993       4.99728680       2.87047625    
   1.19583094      0.642783999     -0.303505003       37.5429573      -1.70606256    
   1.19653296      0.643149972     -0.606999993       37.5429573      -1.70606256    
   1.26736605      0.501691997     -0.606999993       37.5429573      -1.70606256    
   1.26341999      0.500032008     -0.303494006       37.5429573      -1.70606256    
   1.19583094      0.642783999     -0.303505003       47.1655540       1.68662179    
   1.19658697      0.643051028       0.00000000       47.1655540       1.68662179    
   1.11705506      0.780165970       0.00000000       47.1655540       1.68662179    
   1.11495602      0.778467000     -0.303483993       47.1655540       1.68662179    
   1.11705506      0.780165970       0.00000000       44.5919075       1.68820167    
   1.01674199      0.902397990       0.00000000       44.5919075       1.68820167    
   1.01591504      0.901737988     -0.303478003       44.5919075       1.68820167    
   1.11495602      0.778467000     -0.303483993       44.5919075       1.68820167    
   1.01591504      0.901737988     -0.303478003       68.5351105       1.63439488    
  0.904204011       1.01322901     -0.303456992       68.5351105       1.63439488    
  0.905143023       1.01448905     -0.606999993       68.5351105       1.63439488    
   1.01659799      0.902572989     -0.606999993       68.5351105       1.63439488    
   1.01591504      0.901737988     -0.303478003       71.0648270       1.63532007    
   1.01659799      0.902572989     -0.606999993       71.0648270       1.63532007    
   1.11731696      0.779847026     -0.606999993       71.0648270       1.63532007    
   1.11495602      0.778467000     -0.303483993       71.0648270       1.63532007    
   1.01591504      0.901737988     -0.303478003       41.9283180       1.69042730    
   1.01674199      0.902397990       0.00000000       41.9283180       1.69042730    
  0.905318975       1.01434398       0.00000000       41.9283180       1.69042730    
  0.904204011       1.01322901     -0.303456992       41.9283180       1.69042730    
  0.905318975       1.01434398       0.00000000       81.0986252       1.63011563    
  0.782918990       1.11479497       0.00000000       81.0986252       1.63011563    
  0.780644000       1.11195600     -0.303485006       81.0986252       1.63011563    
  0.904204011       1.01322901     -0.303456992       81.0986252       1.63011563    
  0.780644000       1.11195600     -0.303485006       63.7456589       1.63276863    
  0.645825028       1.19414902     -0.303514004       63.7456589       1.63276863    
  0.646153986       1.19492805     -0.606999993       63.7456589       1.63276863    
  0.782611012       1.11504900     -0.606999993       63.7456589       1.63276863    
  0.780644000       1.11195600     -0.303485006       66.0823746       1.63350737    
  0.782611012       1.11504900     -0.606999993       66.0823746       1.63350737    
  0.905143023       1.01448905     -0.606999993       66.0823746       1.63350737    
  0.904204011       1.01322901     -0.303456992       66.0823746       1.63350737    
  0.780644000       1.11195600     -0.303485006       68.1878433       1.63874185    
  0.782918990       1.11479497       0.00000000       68.1878433       1.63874185    
  0.646345019       1.19482601       0.00000000       68.1878433       1.63874185    
  0.645825028       1.19414902     -0.303514004       68.1878433       1.63874185    
  0.646345019       1.19482601       0.00000000       26.2590504       1.74232924    
  0.504974008       1.26637006       0.00000000       26.2590504       1.74232924    
  0.503772974       1.26314998     -0.303521991       26.2590504       1.74232924    
  0.645825028       1.19414902     -0.303514004       26.2590504       1.74232924    
  0.503772974       1.26314998     -0.303521991       67.9771729       1.62402511    
  0.353130996       1.31116498     -0.303510994       67.9771729       1.62402511    
  0.353300005       1.31237996     -0.606999993       67.9771729       1.62402511    
  0.505183995       1.26630700     -0.606999993       67.9771729       1.62402511    
  0.503772974       1.26314998     -0.303521991       64.1603394       1.62957132    
  0.505183995       1.26630700     -0.606999993       64.1603394       1.62957132    
  0.646153986       1.19492805     -0.606999993       64.1603394       1.62957132    
  0.645825028       1.19414902     -0.303514004       64.1603394       1.62957132    
  0.503772974       1.26314998     -0.303521991       24.1103840       1.75229752    
  0.504974008       1.26637006       0.00000000       24.1103840       1.75229752    
  0.353493989       1.31232095       0.00000000       24.1103840       1.75229752    
  0.353130996       1.31116498     -0.303510994       24.1103840       1.75229752    
  0.353493989       1.31232095       0.00000000       22.2992935       1.76228285    
  0.199064001       1.34539402       0.00000000       22.2992935       1.76228285    
  0.198755994       1.34360003     -0.303496003       22.2992935       1.76228285    
  0.353130996       1.31116498     -0.303510994       22.2992935       1.76228285    
  0.198755994       1.34360003     -0.303496003       23.0920563       1.71799600    
   4.12769988E-02   1.35817802     -0.303508013       23.0920563       1.71799600    
   4.12410013E-02   1.36093795     -0.606999993       23.0920563       1.71799600    
  0.199025005       1.34539795     -0.606999993       23.0920563       1.71799600    
  0.198755994       1.34360003     -0.303496003       66.2504959       1.62344873    
  0.199025005       1.34539795     -0.606999993       66.2504959       1.62344873    
  0.353300005       1.31237996     -0.606999993       66.2504959       1.62344873    
  0.353130996       1.31116498     -0.303510994       66.2504959       1.62344873    
  0.198755994       1.34360003     -0.303496003       20.3401661       1.77687609    
  0.199064001       1.34539402       0.00000000       20.3401661       1.77687609    
   4.17769998E-02   1.36088502       0.00000000       20.3401661       1.77687609    
   4.12769988E-02   1.35817802     -0.303508013       20.3401661       1.77687609    
   4.17769998E-02   1.36088502       0.00000000       26.9354382       1.72427356    
 -0.116410002       1.35353506       0.00000000       26.9354382       1.72427356    
 -0.116471998       1.35271096     -0.303496987       26.9354382       1.72427356    
   4.12769988E-02   1.35817802     -0.303508013       26.9354382       1.72427356    
 -0.116471998       1.35271096     -0.303496987       39.4914246       1.65331793    
 -0.273027003       1.33229196     -0.303496003       39.4914246       1.65331793    
 -0.273876995       1.33647299     -0.606999993       39.4914246       1.65331793    
 -0.116722003       1.35350394     -0.606999993       39.4914246       1.65331793    
 -0.116471998       1.35271096     -0.303496987       20.7150116       1.73141944    
 -0.116722003       1.35350394     -0.606999993       20.7150116       1.73141944    
   4.12410013E-02   1.36093795     -0.606999993       20.7150116       1.73141944    
   4.12769988E-02   1.35817802     -0.303508013       20.7150116       1.73141944    
 -0.116471998       1.35271096     -0.303496987       26.2993126       1.72729921    
 -0.116410002       1.35353506       0.00000000       26.2993126       1.72729921    
 -0.274069011       1.33641505       0.00000000       26.2993126       1.72729921    
 -0.273027003       1.33229196     -0.303496003       26.2993126       1.72729921    
 -0.274069011       1.33641505       0.00000000       26.3149853       1.72713912    
 -0.425588995       1.29045200       0.00000000       26.3149853       1.72713912    
 -0.425258011       1.28953803     -0.303507000       26.3149853       1.72713912    
 -0.273027003       1.33229196     -0.303496003       26.3149853       1.72713912    
 -0.425258011       1.28953803     -0.303507000       40.0121689       1.65234160    
 -0.572302997       1.23206902     -0.303485990       40.0121689       1.65234160    
 -0.573064029       1.23399496     -0.606999993       40.0121689       1.65234160    
 -0.425651014       1.29043305     -0.606999993       40.0121689       1.65234160    
 -0.425258011       1.28953803     -0.303507000       39.0657082       1.65383351    
 -0.425651014       1.29043305     -0.606999993       39.0657082       1.65383351    
 -0.273876995       1.33647299     -0.606999993       39.0657082       1.65383351    
 -0.273027003       1.33229196     -0.303496003       39.0657082       1.65383351    
 -0.425258011       1.28953803     -0.303507000       25.1389675       1.73510325    
 -0.425588995       1.29045200       0.00000000       25.1389675       1.73510325    
 -0.573195994       1.23392498       0.00000000       25.1389675       1.73510325    
 -0.572302997       1.23206902     -0.303485990       25.1389675       1.73510325    
 -0.573195994       1.23392498       0.00000000       21.5869122       1.76445293    
 -0.712655008       1.15938199       0.00000000       21.5869122       1.76445293    
 -0.711889029       1.15749002     -0.303496003       21.5869122       1.76445293    
 -0.572302997       1.23206902     -0.303485990       21.5869122       1.76445293    
 -0.711889029       1.15749002     -0.303496003       38.0465508       1.65994477    
 -0.840825975       1.06629205     -0.303485990       38.0465508       1.65994477    
 -0.841368973       1.06682706     -0.606999993       38.0465508       1.65994477    
 -0.712980986       1.15920806     -0.606999993       38.0465508       1.65994477    
 -0.711889029       1.15749002     -0.303496003       34.5990143       1.66647959    
 -0.712980986       1.15920806     -0.606999993       34.5990143       1.66647959    
 -0.573064029       1.23399496     -0.606999993       34.5990143       1.66647959    
 -0.572302997       1.23206902     -0.303485990       34.5990143       1.66647959    
 -0.711889029       1.15749002     -0.303496003       28.1403923       1.72138000    
 -0.712655008       1.15938199       0.00000000       28.1403923       1.72138000    
 -0.841165006       1.06699395       0.00000000       28.1403923       1.72138000    
 -0.840825975       1.06629205     -0.303485990       28.1403923       1.72138000    
 -0.841165006       1.06699395       0.00000000       31.2487526       1.70949352    
 -0.963320017      0.966744006       0.00000000       31.2487526       1.70949352    
 -0.960084975      0.962615013     -0.303470999       31.2487526       1.70949352    
 -0.840825975       1.06629205     -0.303485990       31.2487526       1.70949352    
 -0.960084975      0.962615013     -0.303470999       40.0524979       1.66179609    
  -1.06383705      0.843237996     -0.303481996       40.0524979       1.66179609    
  -1.06481802      0.843816996     -0.606999993       40.0524979       1.66179609    
 -0.963873982      0.966289997     -0.606999993       40.0524979       1.66179609    
 -0.960084975      0.962615013     -0.303470999       40.2200050       1.65792561    
 -0.963873982      0.966289997     -0.606999993       40.2200050       1.65792561    
 -0.841368973       1.06682706     -0.606999993       40.2200050       1.65792561    
 -0.840825975       1.06629205     -0.303485990       40.2200050       1.65792561    
 -0.960084975      0.962615013     -0.303470999       42.3236580       1.67601562    
 -0.963320017      0.966744006       0.00000000       42.3236580       1.67601562    
  -1.06464398      0.844029009       0.00000000       42.3236580       1.67601562    
  -1.06383705      0.843237996     -0.303481996       42.3236580       1.67601562    
  -1.06464398      0.844029009       0.00000000       46.9858780       1.66871524    
  -1.15769398      0.715813994       0.00000000       46.9858780       1.66871524    
  -1.15564799      0.714680016     -0.303483993       46.9858780       1.66871524    
  -1.06383705      0.843237996     -0.303481996       46.9858780       1.66871524    
  -1.15564799      0.714680016     -0.303483993       63.7623024       1.63372874    
  -1.23108304      0.575536013     -0.303514004       63.7623024       1.63372874    
  -1.23232996      0.576179981     -0.606999993       63.7623024       1.63372874    
  -1.15756094      0.716063023     -0.606999993       63.7623024       1.63372874    
  -1.15564799      0.714680016     -0.303483993       46.0742188       1.65368593    
  -1.15756094      0.716063023     -0.606999993       46.0742188       1.65368593    
  -1.06481802      0.843816996     -0.606999993       46.0742188       1.65368593    
  -1.06383705      0.843237996     -0.303481996       46.0742188       1.65368593    
  -1.15564799      0.714680016     -0.303483993       51.5003700       1.66369152    
  -1.15769398      0.715813994       0.00000000       51.5003700       1.66369152    
  -1.23224795      0.576331973       0.00000000       51.5003700       1.66369152    
  -1.23108304      0.575536013     -0.303514004       51.5003700       1.66369152    
  -1.23224795      0.576331973       0.00000000       55.4993248       1.66039169    
  -1.28948605      0.428772002       0.00000000       55.4993248       1.66039169    
  -1.28842103      0.428404987     -0.303512990       55.4993248       1.66039169    
  -1.23108304      0.575536013     -0.303514004       55.4993248       1.66039169    
  -1.28842103      0.428404987     -0.303512990       4.58395100      -2.89457512    
  -1.33082402      0.275959998     -0.303492010       4.58395100      -2.89457512    
  -1.33550000      0.277083993     -0.606999993       4.58395100      -2.89457512    