 VARIABLES="X" "Y" "Z" "abs(p) (Pa)" "angle(p) (rad)"
ZONE N=   2720,E =    2069, F=FEPOINT, ET=QUADRILATERAL
 -0.767116010      -1.12776399       0.00000000       91.2237549       1.54084826    
 -0.769354999      -1.12002099     -0.303523988       91.2237549       1.54084826    
 -0.896136999      -1.02028203     -0.303463012       91.2237549       1.54084826    
 -0.894908011      -1.02288902       0.00000000       91.2237549       1.54084826    
 -0.767116010      -1.12776399       0.00000000       76.8712006       1.53518617    
 -0.630888999      -1.20308697       0.00000000       76.8712006       1.53518617    
 -0.635528028      -1.19958198     -0.303541005       76.8712006       1.53518617    
 -0.769354999      -1.12002099     -0.303523988       76.8712006       1.53518617    
 -0.635528028      -1.19958198     -0.303541005       55.7127380       1.52163708    
 -0.495362997      -1.26606500     -0.303519011       55.7127380       1.52163708    
 -0.499298006      -1.26809204     -0.606999993       55.7127380       1.52163708    
 -0.640147984      -1.19813800     -0.606998026       55.7127380       1.52163708    
 -0.635528028      -1.19958198     -0.303541005       70.4492264       1.53201675    
 -0.640147984      -1.19813800     -0.606998026       70.4492264       1.53201675    
 -0.777105987      -1.11956596     -0.606999993       70.4492264       1.53201675    
 -0.769354999      -1.12002099     -0.303523988       70.4492264       1.53201675    
 -0.635528028      -1.19958198     -0.303541005       57.6629791       1.52321017    
 -0.630888999      -1.20308697       0.00000000       57.6629791       1.52321017    
 -0.494486004      -1.26955199       0.00000000       57.6629791       1.52321017    
 -0.495362997      -1.26606500     -0.303519011       57.6629791       1.52321017    
 -0.494486004      -1.26955199       0.00000000       42.1490707       1.50553942    
 -0.346311986      -1.31449997       0.00000000       42.1490707       1.50553942    
 -0.346753001      -1.31307304     -0.303510010       42.1490707       1.50553942    
 -0.495362997      -1.26606500     -0.303519011       42.1490707       1.50553942    
 -0.346753001      -1.31307304     -0.303510010       24.6741505       1.45906889    
 -0.193608001      -1.34425998     -0.303494990       24.6741505       1.45906889    
 -0.195028007      -1.34579206     -0.606999993       24.6741505       1.45906889    
 -0.348751009      -1.31376004     -0.606999993       24.6741505       1.45906889    
 -0.346753001      -1.31307304     -0.303510010       40.6589203       1.50325358    
 -0.348751009      -1.31376004     -0.606999993       40.6589203       1.50325358    
 -0.499298006      -1.26809204     -0.606999993       40.6589203       1.50325358    
 -0.495362997      -1.26606500     -0.303519011       40.6589203       1.50325358    
 -0.346753001      -1.31307304     -0.303510010       25.6176319       1.46305740    
 -0.346311986      -1.31449997       0.00000000       25.6176319       1.46305740    
 -0.193381995      -1.34595394       0.00000000       25.6176319       1.46305740    
 -0.193608001      -1.34425998     -0.303494990       25.6176319       1.46305740    
 -0.193381995      -1.34595394       0.00000000       12.5844631       1.34965098    
  -3.75179984E-02  -1.36130500       0.00000000       12.5844631       1.34965098    
  -3.73950005E-02  -1.35827899     -0.303512007       12.5844631       1.34965098    
 -0.193608001      -1.34425998     -0.303494990       12.5844631       1.34965098    
  -3.73950005E-02  -1.35827899     -0.303512007       9.36652565      -1.27110052    
  0.119547002      -1.35239303     -0.303498000       9.36652565      -1.27110052    
  0.119135000      -1.35326600     -0.606999993       9.36652565      -1.27110052    
  -3.82840000E-02  -1.36122894     -0.606998980       9.36652565      -1.27110052    
  -3.73950005E-02  -1.35827899     -0.303512007       8.03460121       1.22037303    
  -3.82840000E-02  -1.36122894     -0.606998980       8.03460121       1.22037303    
 -0.195028007      -1.34579206     -0.606999993       8.03460121       1.22037303    
 -0.193608001      -1.34425998     -0.303494990       8.03460121       1.22037303    
  -3.73950005E-02  -1.35827899     -0.303512007       5.54297352      -1.04822242    
  -3.75179984E-02  -1.36130500       0.00000000       5.54297352      -1.04822242    
  0.119788997      -1.35320199       0.00000000       5.54297352      -1.04822242    
  0.119547002      -1.35239303     -0.303498000       5.54297352      -1.04822242    
  0.119788997      -1.35320199       0.00000000       23.0472984      -1.45018899    
  0.276576012      -1.33565402       0.00000000       23.0472984      -1.45018899    
  0.275435001      -1.33191597     -0.303496003       23.0472984      -1.45018899    
  0.119547002      -1.35239303     -0.303498000       23.0472984      -1.45018899    
  0.275435001      -1.33191597     -0.303496003       39.0549507      -1.49958408    
  0.427076995      -1.28898001     -0.303507000       39.0549507      -1.49958408    
  0.427242011      -1.28995001     -0.606999993       39.0549507      -1.49958408    
  0.275831014      -1.33588004     -0.606999993       39.0549507      -1.49958408    
  0.275435001      -1.33191597     -0.303496003       23.2141190      -1.45109844    
  0.275831014      -1.33588004     -0.606999993       23.2141190      -1.45109844    
  0.119135000      -1.35326600     -0.606999993       23.2141190      -1.45109844    
  0.119547002      -1.35239303     -0.303498000       23.2141190      -1.45109844    
  0.275435001      -1.33191597     -0.303496003       39.5424652      -1.50046206    
  0.276576012      -1.33565402       0.00000000       39.5424652      -1.50046206    
  0.427509993      -1.28986895       0.00000000       39.5424652      -1.50046206    
  0.427076995      -1.28898001     -0.303507000       39.5424652      -1.50046206    
  0.427509993      -1.28986895       0.00000000       55.5337601      -1.52063000    
  0.574636996      -1.23315501       0.00000000       55.5337601      -1.52063000    
  0.573706985      -1.23136795     -0.303485990       55.5337601      -1.52063000    
  0.427076995      -1.28898001     -0.303507000       55.5337601      -1.52063000    
  0.573706985      -1.23136795     -0.303485990       70.1581039      -1.53098845    
  0.712854981      -1.15688002     -0.303496987       70.1581039      -1.53098845    
  0.713809013      -1.15876603     -0.606999993       70.1581039      -1.53098845    
  0.574283004      -1.23334301     -0.606999993       70.1581039      -1.53098845    
  0.573706985      -1.23136795     -0.303485990       54.9785995      -1.52010679    
  0.574283004      -1.23334301     -0.606999993       54.9785995      -1.52010679    
  0.427242011      -1.28995001     -0.606999993       54.9785995      -1.52010679    
  0.427076995      -1.28898001     -0.303507000       54.9785995      -1.52010679    
  0.573706985      -1.23136795     -0.303485990       71.3638458      -1.53168440    
  0.574636996      -1.23315501       0.00000000       71.3638458      -1.53168440    
  0.713741004      -1.15880203       0.00000000       71.3638458      -1.53168440    
  0.712854981      -1.15688002     -0.303496987       71.3638458      -1.53168440    
  0.713741004      -1.15880203       0.00000000       86.0351334      -1.53829634    
  0.841937006      -1.06636095       0.00000000       86.0351334      -1.53829634    
  0.841498017      -1.06573403     -0.303485990       86.0351334      -1.53829634    
  0.712854981      -1.15688002     -0.303496987       86.0351334      -1.53829634    
  0.841498017      -1.06573403     -0.303485990       96.7653885      -1.54181767    
  0.960639000     -0.962104976     -0.303470999       96.7653885      -1.54181767    
  0.964356005     -0.965893984     -0.606999993       96.7653885      -1.54181767    
  0.841796994      -1.06647599     -0.606999993       96.7653885      -1.54181767    
  0.841498017      -1.06573403     -0.303485990       83.6306152      -1.53733313    
  0.841796994      -1.06647599     -0.606999993       83.6306152      -1.53733313    
  0.713809013      -1.15876603     -0.606999993       83.6306152      -1.53733313    
  0.712854981      -1.15688002     -0.303496987       83.6306152      -1.53733313    
  0.841498017      -1.06573403     -0.303485990       101.006195      -1.54306293    
  0.841937006      -1.06636095       0.00000000       101.006195      -1.54306293    
  0.963932991     -0.966242015       0.00000000       101.006195      -1.54306293    
  0.960639000     -0.962104976     -0.303470999       101.006195      -1.54306293    
  0.963932991     -0.966242015       0.00000000       112.936150      -1.54595459    
   1.06506598     -0.843514979       0.00000000       112.936150      -1.54595459    
   1.06428695     -0.842682004     -0.303481996       112.936150      -1.54595459    
  0.960639000     -0.962104976     -0.303470999       112.936150      -1.54595459    
   1.06428695     -0.842682004     -0.303481996       121.341743      -1.54760861    
   1.15591598     -0.714210987     -0.303485006       121.341743      -1.54760861    
   1.15788805     -0.715448976     -0.606999993       121.341743      -1.54760861    
   1.06537795     -0.843134999     -0.606999993       121.341743      -1.54760861    
   1.06428695     -0.842682004     -0.303481996       108.225838      -1.54484224    
   1.06537795     -0.843134999     -0.606999993       108.225838      -1.54484224    
  0.964356005     -0.965893984     -0.606999993       108.225838      -1.54484224    
  0.960639000     -0.962104976     -0.303470999       108.225838      -1.54484224    
   1.06428695     -0.842682004     -0.303481996       123.795784      -1.54810393    
   1.06506598     -0.843514979       0.00000000       123.795784      -1.54810393    
   1.15792501     -0.715381980       0.00000000       123.795784      -1.54810393    
   1.15591598     -0.714210987     -0.303485006       123.795784      -1.54810393    
   1.15792501     -0.715381980       0.00000000       132.703400      -1.54960132    
   1.23237598     -0.576093972       0.00000000       132.703400      -1.54960132    
   1.23120904     -0.575251997     -0.303514004       132.703400      -1.54960132    
   1.15591598     -0.714210987     -0.303485006       132.703400      -1.54960132    
   1.23120904     -0.575251997     -0.303514004       136.856125      -1.55018997    
   1.28844094     -0.428344995     -0.303512990       136.856125      -1.55018997    
   1.28952503     -0.428642988     -0.606999993       136.856125      -1.55018997    
   1.23252702     -0.575810015     -0.606999993       136.856125      -1.55018997    
   1.23120904     -0.575251997     -0.303514004       129.912933      -1.54910970    
   1.23252702     -0.575810015     -0.606999993       129.912933      -1.54910970    
   1.15788805     -0.715448976     -0.606999993       129.912933      -1.54910970    
   1.15591598     -0.714210987     -0.303485006       129.912933      -1.54910970    
   1.23120904     -0.575251997     -0.303514004       142.372940      -1.55101967    
   1.23237598     -0.576093972       0.00000000       142.372940      -1.55101967    
   1.28947699     -0.428801000       0.00000000       142.372940      -1.55101967    
   1.28844094     -0.428344995     -0.303512990       142.372940      -1.55101967    
   1.28947699     -0.428801000       0.00000000       146.372742      -1.55154824    
   1.33532202     -0.277671993       0.00000000       146.372742      -1.55154824    
   1.33076501     -0.276203990     -0.303492010       146.372742      -1.55154824    
   1.28844094     -0.428344995     -0.303512990       146.372742      -1.55154824    
   1.33076501     -0.276203990     -0.303492010       149.798630      -1.55194235    
   1.35229194     -0.119709998     -0.303514004       149.798630      -1.55194235    
   1.35321999     -0.119608998     -0.606999993       149.798630      -1.55194235    
   1.33549094     -0.277112991     -0.606999993       149.798630      -1.55194235    
   1.33076501     -0.276203990     -0.303492010       141.848434      -1.55089939    
   1.33549094     -0.277112991     -0.606999993       141.848434      -1.55089939    
   1.28952503     -0.428642988     -0.606999993       141.848434      -1.55089939    
   1.28844094     -0.428344995     -0.303512990       141.848434      -1.55089939    
   1.33076501     -0.276203990     -0.303492010       146.946915      -1.55161786    
   1.33532202     -0.277671993       0.00000000       146.946915      -1.55161786    
   1.35319102     -0.119900003       0.00000000       146.946915      -1.55161786    
   1.35229194     -0.119709998     -0.303514004       146.946915      -1.55161786    
   1.35319102     -0.119900003       0.00000000       148.364105      -1.55179846    
   1.36124396       3.81390005E-02   0.00000000       148.364105      -1.55179846    
   1.35858905       3.79349999E-02 -0.303501010       148.364105      -1.55179846    
   1.35229194     -0.119709998     -0.303514004       148.364105      -1.55179846    
   1.35858905       3.79349999E-02 -0.303501010       147.490723      -1.55164850    
   1.34464097      0.195331007     -0.303496003       147.490723      -1.55164850    
   1.34573400      0.195616007     -0.606999993       147.490723      -1.55164850    
   1.36126804       3.78950015E-02 -0.606999993       147.490723      -1.55164850    
   1.35858905       3.79349999E-02 -0.303501010       148.360977      -1.55175841    
   1.36126804       3.78950015E-02 -0.606999993       148.360977      -1.55175841    
   1.35321999     -0.119608998     -0.606999993       148.360977      -1.55175841    
   1.35229194     -0.119709998     -0.303514004       148.360977      -1.55175841    
   1.35858905       3.79349999E-02 -0.303501010       152.551605      -1.55231655    
   1.36124396       3.81390005E-02   0.00000000       152.551605      -1.55231655    
   1.34575403      0.195406005       0.00000000       152.551605      -1.55231655    
   1.34464097      0.195331007     -0.303496003       152.551605      -1.55231655    
   1.34575403      0.195406005       0.00000000       149.771698      -1.55198121    
   1.31339800      0.349945009       0.00000000       149.771698      -1.55198121    
   1.31216300      0.349725991     -0.303487003       149.771698      -1.55198121    
   1.34464097      0.195331007     -0.303496003       149.771698      -1.55198121    
   1.31216300      0.349725991     -0.303487003       139.024063      -1.55050600    
   1.26341999      0.500032008     -0.303494006       139.024063      -1.55050600    
   1.26736605      0.501691997     -0.606999993       139.024063      -1.55050600    
   1.31333196      0.350163996     -0.606999993       139.024063      -1.55050600    
   1.31216300      0.349725991     -0.303487003       144.920425      -1.55131698    
   1.31333196      0.350163996     -0.606999993       144.920425      -1.55131698    
   1.34573400      0.195616007     -0.606999993       144.920425      -1.55131698    
   1.34464097      0.195331007     -0.303496003       144.920425      -1.55131698    
   1.31216300      0.349725991     -0.303487003       144.901184      -1.55136037    
   1.31339800      0.349945009       0.00000000       144.901184      -1.55136037    
   1.26751196      0.501209974       0.00000000       144.901184      -1.55136037    
   1.26341999      0.500032008     -0.303494006       144.901184      -1.55136037    
   1.26751196      0.501209974       0.00000000       133.549759      -1.54973102    
   1.19658697      0.643051028       0.00000000       133.549759      -1.54973102    
   1.19583094      0.642783999     -0.303505003       133.549759      -1.54973102    
   1.26341999      0.500032008     -0.303494006       133.549759      -1.54973102    
   1.19583094      0.642783999     -0.303505003       128.213913      -1.54884183    
   1.11495602      0.778467000     -0.303483993       128.213913      -1.54884183    
   1.11731696      0.779847026     -0.606999993       128.213913      -1.54884183    
   1.19653296      0.643149972     -0.606999993       128.213913      -1.54884183    
   1.19583094      0.642783999     -0.303505003       132.705826      -1.54956043    
   1.19653296      0.643149972     -0.606999993       132.705826      -1.54956043    
   1.26736605      0.501691997     -0.606999993       132.705826      -1.54956043    
   1.26341999      0.500032008     -0.303494006       132.705826      -1.54956043    
   1.19583094      0.642783999     -0.303505003       125.029045      -1.54832149    
   1.19658697      0.643051028       0.00000000       125.029045      -1.54832149    
   1.11705506      0.780165970       0.00000000       125.029045      -1.54832149    
   1.11495602      0.778467000     -0.303483993       125.029045      -1.54832149    
   1.11705506      0.780165970       0.00000000       115.084000      -1.54641211    
   1.01674199      0.902397990       0.00000000       115.084000      -1.54641211    
   1.01591504      0.901737988     -0.303478003       115.084000      -1.54641211    
   1.11495602      0.778467000     -0.303483993       115.084000      -1.54641211    
   1.01591504      0.901737988     -0.303478003       103.328194      -1.54364502    
  0.904204011       1.01322901     -0.303456992       103.328194      -1.54364502    
  0.905143023       1.01448905     -0.606999993       103.328194      -1.54364502    
   1.01659799      0.902572989     -0.606999993       103.328194      -1.54364502    
   1.01591504      0.901737988     -0.303478003       114.444252      -1.54623961    
   1.01659799      0.902572989     -0.606999993       114.444252      -1.54623961    
   1.11731696      0.779847026     -0.606999993       114.444252      -1.54623961    
   1.11495602      0.778467000     -0.303483993       114.444252      -1.54623961    
   1.01591504      0.901737988     -0.303478003       103.414474      -1.54370117    
   1.01674199      0.902397990       0.00000000       103.414474      -1.54370117    
  0.905318975       1.01434398       0.00000000       103.414474      -1.54370117    
  0.904204011       1.01322901     -0.303456992       103.414474      -1.54370117    
  0.905318975       1.01434398       0.00000000       94.1324387      -1.54107463    
  0.782918990       1.11479497       0.00000000       94.1324387      -1.54107463    
  0.780644000       1.11195600     -0.303485006       94.1324387      -1.54107463    
  0.904204011       1.01322901     -0.303456992       94.1324387      -1.54107463    
  0.780644000       1.11195600     -0.303485006       77.2283096      -1.53461099    
  0.645825028       1.19414902     -0.303514004       77.2283096      -1.53461099    
  0.646153986       1.19492805     -0.606999993       77.2283096      -1.53461099    
  0.782611012       1.11504900     -0.606999993       77.2283096      -1.53461099    
  0.780644000       1.11195600     -0.303485006       90.7677536      -1.53994703    
  0.782611012       1.11504900     -0.606999993       90.7677536      -1.53994703    
  0.905143023       1.01448905     -0.606999993       90.7677536      -1.53994703    
  0.904204011       1.01322901     -0.303456992       90.7677536      -1.53994703    
  0.780644000       1.11195600     -0.303485006       80.6100006      -1.53615117    
  0.782918990       1.11479497       0.00000000       80.6100006      -1.53615117    
  0.646345019       1.19482601       0.00000000       80.6100006      -1.53615117    
  0.645825028       1.19414902     -0.303514004       80.6100006      -1.53615117    
  0.646345019       1.19482601       0.00000000       61.2601891      -1.52530086    
  0.504974008       1.26637006       0.00000000       61.2601891      -1.52530086    
  0.503772974       1.26314998     -0.303521991       61.2601891      -1.52530086    
  0.645825028       1.19414902     -0.303514004       61.2601891      -1.52530086    
  0.503772974       1.26314998     -0.303521991       47.4826546      -1.51219726    
  0.353130996       1.31116498     -0.303510994       47.4826546      -1.51219726    
  0.353300005       1.31237996     -0.606999993       47.4826546      -1.51219726    
  0.505183995       1.26630700     -0.606999993       47.4826546      -1.51219726    
  0.503772974       1.26314998     -0.303521991       62.5331001      -1.52620673    
  0.505183995       1.26630700     -0.606999993       62.5331001      -1.52620673    
  0.646153986       1.19492805     -0.606999993       62.5331001      -1.52620673    
  0.645825028       1.19414902     -0.303514004       62.5331001      -1.52620673    
  0.503772974       1.26314998     -0.303521991       45.3144455      -1.50940371    
  0.504974008       1.26637006       0.00000000       45.3144455      -1.50940371    
  0.353493989       1.31232095       0.00000000       45.3144455      -1.50940371    
  0.353130996       1.31116498     -0.303510994       45.3144455      -1.50940371    
  0.353493989       1.31232095       0.00000000       28.2984886      -1.47261202    
  0.199064001       1.34539402       0.00000000       28.2984886      -1.47261202    
  0.198755994       1.34360003     -0.303496003       28.2984886      -1.47261202    
  0.353130996       1.31116498     -0.303510994       28.2984886      -1.47261202    
  0.198755994       1.34360003     -0.303496003       10.8899040      -1.31395793    
   4.12769988E-02   1.35817802     -0.303508013       10.8899040      -1.31395793    
   4.12410013E-02   1.36093795     -0.606999993       10.8899040      -1.31395793    
  0.199025005       1.34539795     -0.606999993       10.8899040      -1.31395793    
  0.198755994       1.34360003     -0.303496003       31.1842270      -1.48172796    
  0.199025005       1.34539795     -0.606999993       31.1842270      -1.48172796    
  0.353300005       1.31237996     -0.606999993       31.1842270      -1.48172796    
  0.353130996       1.31116498     -0.303510994       31.1842270      -1.48172796    
  0.198755994       1.34360003     -0.303496003       11.1271725      -1.31941581    
  0.199064001       1.34539402       0.00000000       11.1271725      -1.31941581    
   4.17769998E-02   1.36088502       0.00000000       11.1271725      -1.31941581    
   4.12769988E-02   1.35817802     -0.303508013       11.1271725      -1.31941581    
   4.17769998E-02   1.36088502       0.00000000       6.79628372       1.15234530    
 -0.116410002       1.35353506       0.00000000       6.79628372       1.15234530    
 -0.116471998       1.35271096     -0.303496987       6.79628372       1.15234530    
   4.12769988E-02   1.35817802     -0.303508013       6.79628372       1.15234530    
 -0.116471998       1.35271096     -0.303496987       25.3832207       1.46217597    
 -0.273027003       1.33229196     -0.303496003       25.3832207       1.46217597    
 -0.273876995       1.33647299     -0.606999993       25.3832207       1.46217597    
 -0.116722003       1.35350394     -0.606999993       25.3832207       1.46217597    
 -0.116471998       1.35271096     -0.303496987       6.79490423       1.15264750    
 -0.116722003       1.35350394     -0.606999993       6.79490423       1.15264750    
   4.12410013E-02   1.36093795     -0.606999993       6.79490423       1.15264750    
   4.12769988E-02   1.35817802     -0.303508013       6.79490423       1.15264750    
 -0.116471998       1.35271096     -0.303496987       24.0320930       1.45589054    
 -0.116410002       1.35353506       0.00000000       24.0320930       1.45589054    
 -0.274069011       1.33641505       0.00000000       24.0320930       1.45589054    
 -0.273027003       1.33229196     -0.303496003       24.0320930       1.45589054    
 -0.274069011       1.33641505       0.00000000       40.7117386       1.50321496    
 -0.425588995       1.29045200       0.00000000       40.7117386       1.50321496    
 -0.425258011       1.28953803     -0.303507000       40.7117386       1.50321496    
 -0.273027003       1.33229196     -0.303496003       40.7117386       1.50321496    
 -0.425258011       1.28953803     -0.303507000       57.6803360       1.52330959    
 -0.572302997       1.23206902     -0.303485990       57.6803360       1.52330959    
 -0.573064029       1.23399496     -0.606999993       57.6803360       1.52330959    
 -0.425651014       1.29043305     -0.606999993       57.6803360       1.52330959    
 -0.425258011       1.28953803     -0.303507000       41.4989777       1.50460434    
 -0.425651014       1.29043305     -0.606999993       41.4989777       1.50460434    
 -0.273876995       1.33647299     -0.606999993       41.4989777       1.50460434    
 -0.273027003       1.33229196     -0.303496003       41.4989777       1.50460434    
 -0.425258011       1.28953803     -0.303507000       57.6645622       1.52320671    
 -0.425588995       1.29045200       0.00000000       57.6645622       1.52320671    
 -0.573195994       1.23392498       0.00000000       57.6645622       1.52320671    
 -0.572302997       1.23206902     -0.303485990       57.6645622       1.52320671    
 -0.573195994       1.23392498       0.00000000       73.6132278       1.53360128    
 -0.712655008       1.15938199       0.00000000       73.6132278       1.53360128    
 -0.711889029       1.15749002     -0.303496003       73.6132278       1.53360128    
 -0.572302997       1.23206902     -0.303485990       73.6132278       1.53360128    
 -0.711889029       1.15749002     -0.303496003       86.3641663       1.53923178    
 -0.840825975       1.06629205     -0.303485990       86.3641663       1.53923178    
 -0.841368973       1.06682706     -0.606999993       86.3641663       1.53923178    
 -0.712980986       1.15920806     -0.606999993       86.3641663       1.53923178    
 -0.711889029       1.15749002     -0.303496003       72.1898422       1.53294766    
 -0.712980986       1.15920806     -0.606999993       72.1898422       1.53294766    
 -0.573064029       1.23399496     -0.606999993       72.1898422       1.53294766    
 -0.572302997       1.23206902     -0.303485990       72.1898422       1.53294766    
 -0.711889029       1.15749002     -0.303496003       88.3109055       1.53985500    
 -0.712655008       1.15938199       0.00000000       88.3109055       1.53985500    
 -0.841165006       1.06699395       0.00000000       88.3109055       1.53985500    
 -0.840825975       1.06629205     -0.303485990       88.3109055       1.53985500    
 -0.841165006       1.06699395       0.00000000       102.057007       1.54407263    
 -0.963320017      0.966744006       0.00000000       102.057007       1.54407263    
 -0.960084975      0.962615013     -0.303470999       102.057007       1.54407263    
 -0.840825975       1.06629205     -0.303485990       102.057007       1.54407263    
 -0.960084975      0.962615013     -0.303470999       111.384804       1.54641855    
  -1.06383705      0.843237996     -0.303481996       111.384804       1.54641855    
  -1.06481802      0.843816996     -0.606999993       111.384804       1.54641855    
 -0.963873982      0.966289997     -0.606999993       111.384804       1.54641855    
 -0.960084975      0.962615013     -0.303470999       99.7553558       1.54352736    
 -0.963873982      0.966289997     -0.606999993       99.7553558       1.54352736    
 -0.841368973       1.06682706     -0.606999993       99.7553558       1.54352736    
 -0.840825975       1.06629205     -0.303485990       99.7553558       1.54352736    
 -0.960084975      0.962615013     -0.303470999       114.593079       1.54703474    
 -0.963320017      0.966744006       0.00000000       114.593079       1.54703474    
  -1.06464398      0.844029009       0.00000000       114.593079       1.54703474    
  -1.06383705      0.843237996     -0.303481996       114.593079       1.54703474    
  -1.06464398      0.844029009       0.00000000       125.448479       1.54912221    
  -1.15769398      0.715813994       0.00000000       125.448479       1.54912221    
  -1.15564799      0.714680016     -0.303483993       125.448479       1.54912221    
  -1.06383705      0.843237996     -0.303481996       125.448479       1.54912221    
  -1.15564799      0.714680016     -0.303483993       130.902344       1.55011594    
  -1.23108304      0.575536013     -0.303514004       130.902344       1.55011594    
  -1.23232996      0.576179981     -0.606999993       130.902344       1.55011594    
  -1.15756094      0.716063023     -0.606999993       130.902344       1.55011594    
  -1.15564799      0.714680016     -0.303483993       121.774269       1.54853487    
  -1.15756094      0.716063023     -0.606999993       121.774269       1.54853487    
  -1.06481802      0.843816996     -0.606999993       121.774269       1.54853487    
  -1.06383705      0.843237996     -0.303481996       121.774269       1.54853487    
  -1.15564799      0.714680016     -0.303483993       134.341400       1.55058098    
  -1.15769398      0.715813994       0.00000000       134.341400       1.55058098    
  -1.23224795      0.576331973       0.00000000       134.341400       1.55058098    
  -1.23108304      0.575536013     -0.303514004       134.341400       1.55058098    
  -1.23224795      0.576331973       0.00000000       141.493881       1.55162024    
  -1.28948605      0.428772002       0.00000000       141.493881       1.55162024    
  -1.28842103      0.428404987     -0.303512990       141.493881       1.55162024    
  -1.23108304      0.575536013     -0.303514004       141.493881       1.55162024    
  -1.28842103      0.428404987     -0.303512990       138.617828       1.55129886    
  -1.33082402      0.275959998     -0.303492010       138.617828       1.55129886    
  -1.33550000      0.277083993     -0.606999993       138.617828       1.55129886    