 VARIABLES="X" "Y" "Z" "abs(p) (Pa)" "angle(p) (rad)"
ZONE N=   2720,E =    2069, F=FEPOINT, ET=QUADRILATERAL
 -0.767116010      -1.12776399       0.00000000       132.377930       1.57082880    
 -0.769354999      -1.12002099     -0.303523988       132.377930       1.57082880    
 -0.896136999      -1.02028203     -0.303463012       132.377930       1.57082880    
 -0.894908011      -1.02288902       0.00000000       132.377930       1.57082880    
 -0.767116010      -1.12776399       0.00000000       111.888435       1.57083476    
 -0.630888999      -1.20308697       0.00000000       111.888435       1.57083476    
 -0.635528028      -1.19958198     -0.303541005       111.888435       1.57083476    
 -0.769354999      -1.12002099     -0.303523988       111.888435       1.57083476    
 -0.635528028      -1.19958198     -0.303541005       101.640793       1.57083857    
 -0.495362997      -1.26606500     -0.303519011       101.640793       1.57083857    
 -0.499298006      -1.26809204     -0.606999993       101.640793       1.57083857    
 -0.640147984      -1.19813800     -0.606998026       101.640793       1.57083857    
 -0.635528028      -1.19958198     -0.303541005       126.862480       1.57083023    
 -0.640147984      -1.19813800     -0.606998026       126.862480       1.57083023    
 -0.777105987      -1.11956596     -0.606999993       126.862480       1.57083023    
 -0.769354999      -1.12002099     -0.303523988       126.862480       1.57083023    
 -0.635528028      -1.19958198     -0.303541005       88.4136734       1.57084501    
 -0.630888999      -1.20308697       0.00000000       88.4136734       1.57084501    
 -0.494486004      -1.26955199       0.00000000       88.4136734       1.57084501    
 -0.495362997      -1.26606500     -0.303519011       88.4136734       1.57084501    
 -0.494486004      -1.26955199       0.00000000       66.0036469       1.57086146    
 -0.346311986      -1.31449997       0.00000000       66.0036469       1.57086146    
 -0.346753001      -1.31307304     -0.303510010       66.0036469       1.57086146    
 -0.495362997      -1.26606500     -0.303519011       66.0036469       1.57086146    
 -0.346753001      -1.31307304     -0.303510010       48.1771698       1.57088542    
 -0.193608001      -1.34425998     -0.303494990       48.1771698       1.57088542    
 -0.195028007      -1.34579206     -0.606999993       48.1771698       1.57088542    
 -0.348751009      -1.31376004     -0.606999993       48.1771698       1.57088542    
 -0.346753001      -1.31307304     -0.303510010       75.7283173       1.57085311    
 -0.348751009      -1.31376004     -0.606999993       75.7283173       1.57085311    
 -0.499298006      -1.26809204     -0.606999993       75.7283173       1.57085311    
 -0.495362997      -1.26606500     -0.303519011       75.7283173       1.57085311    
 -0.346753001      -1.31307304     -0.303510010       41.9628677       1.57089865    
 -0.346311986      -1.31449997       0.00000000       41.9628677       1.57089865    
 -0.193381995      -1.34595394       0.00000000       41.9628677       1.57089865    
 -0.193608001      -1.34425998     -0.303494990       41.9628677       1.57089865    
 -0.193381995      -1.34595394       0.00000000       18.8124714       1.57102454    
  -3.75179984E-02  -1.36130500       0.00000000       18.8124714       1.57102454    
  -3.73950005E-02  -1.35827899     -0.303512007       18.8124714       1.57102454    
 -0.193608001      -1.34425998     -0.303494990       18.8124714       1.57102454    
  -3.73950005E-02  -1.35827899     -0.303512007       8.17010212      -1.57132137    
  0.119547002      -1.35239303     -0.303498000       8.17010212      -1.57132137    
  0.119135000      -1.35326600     -0.606999993       8.17010212      -1.57132137    
  -3.82840000E-02  -1.36122894     -0.606998980       8.17010212      -1.57132137    
  -3.73950005E-02  -1.35827899     -0.303512007       19.9424973       1.57101154    
  -3.82840000E-02  -1.36122894     -0.606998980       19.9424973       1.57101154    
 -0.195028007      -1.34579206     -0.606999993       19.9424973       1.57101154    
 -0.193608001      -1.34425998     -0.303494990       19.9424973       1.57101154    
  -3.73950005E-02  -1.35827899     -0.303512007       5.85320807      -1.57152927    
  -3.75179984E-02  -1.36130500       0.00000000       5.85320807      -1.57152927    
  0.119788997      -1.35320199       0.00000000       5.85320807      -1.57152927    
  0.119547002      -1.35239303     -0.303498000       5.85320807      -1.57152927    
  0.119788997      -1.35320199       0.00000000       31.2714672      -1.57093346    
  0.276576012      -1.33565402       0.00000000       31.2714672      -1.57093346    
  0.275435001      -1.33191597     -0.303496003       31.2714672      -1.57093346    
  0.119547002      -1.35239303     -0.303498000       31.2714672      -1.57093346    
  0.275435001      -1.33191597     -0.303496003       63.2861137      -1.57086408    
  0.427076995      -1.28898001     -0.303507000       63.2861137      -1.57086408    
  0.427242011      -1.28995001     -0.606999993       63.2861137      -1.57086408    
  0.275831014      -1.33588004     -0.606999993       63.2861137      -1.57086408    
  0.275435001      -1.33191597     -0.303496003       35.9086952      -1.57091570    
  0.275831014      -1.33588004     -0.606999993       35.9086952      -1.57091570    
  0.119135000      -1.35326600     -0.606999993       35.9086952      -1.57091570    
  0.119547002      -1.35239303     -0.303498000       35.9086952      -1.57091570    
  0.275435001      -1.33191597     -0.303496003       55.1957245      -1.57087398    
  0.276576012      -1.33565402       0.00000000       55.1957245      -1.57087398    
  0.427509993      -1.28986895       0.00000000       55.1957245      -1.57087398    
  0.427076995      -1.28898001     -0.303507000       55.1957245      -1.57087398    
  0.427509993      -1.28986895       0.00000000       78.8923721      -1.57085061    
  0.574636996      -1.23315501       0.00000000       78.8923721      -1.57085061    
  0.573706985      -1.23136795     -0.303485990       78.8923721      -1.57085061    
  0.427076995      -1.28898001     -0.303507000       78.8923721      -1.57085061    
  0.573706985      -1.23136795     -0.303485990       116.333305      -1.57083309    
  0.712854981      -1.15688002     -0.303496987       116.333305      -1.57083309    
  0.713809013      -1.15876603     -0.606999993       116.333305      -1.57083309    
  0.574283004      -1.23334301     -0.606999993       116.333305      -1.57083309    
  0.573706985      -1.23136795     -0.303485990       90.4654541      -1.57084370    
  0.574283004      -1.23334301     -0.606999993       90.4654541      -1.57084370    
  0.427242011      -1.28995001     -0.606999993       90.4654541      -1.57084370    
  0.427076995      -1.28898001     -0.303507000       90.4654541      -1.57084370    
  0.573706985      -1.23136795     -0.303485990       101.474350      -1.57083845    
  0.574636996      -1.23315501       0.00000000       101.474350      -1.57083845    
  0.713741004      -1.15880203       0.00000000       101.474350      -1.57083845    
  0.712854981      -1.15688002     -0.303496987       101.474350      -1.57083845    
  0.713741004      -1.15880203       0.00000000       122.611237      -1.57083118    
  0.841937006      -1.06636095       0.00000000       122.611237      -1.57083118    
  0.841498017      -1.06573403     -0.303485990       122.611237      -1.57083118    
  0.712854981      -1.15688002     -0.303496987       122.611237      -1.57083118    
  0.841498017      -1.06573403     -0.303485990       163.162125      -1.57082248    
  0.960639000     -0.962104976     -0.303470999       163.162125      -1.57082248    
  0.964356005     -0.965893984     -0.606999993       163.162125      -1.57082248    
  0.841796994      -1.06647599     -0.606999993       163.162125      -1.57082248    
  0.841498017      -1.06573403     -0.303485990       140.261063      -1.57082689    
  0.841796994      -1.06647599     -0.606999993       140.261063      -1.57082689    
  0.713809013      -1.15876603     -0.606999993       140.261063      -1.57082689    
  0.712854981      -1.15688002     -0.303496987       140.261063      -1.57082689    
  0.841498017      -1.06573403     -0.303485990       143.220551      -1.57082617    
  0.841937006      -1.06636095       0.00000000       143.220551      -1.57082617    
  0.963932991     -0.966242015       0.00000000       143.220551      -1.57082617    
  0.960639000     -0.962104976     -0.303470999       143.220551      -1.57082617    
  0.963932991     -0.966242015       0.00000000       160.580963      -1.57082295    
   1.06506598     -0.843514979       0.00000000       160.580963      -1.57082295    
   1.06428695     -0.842682004     -0.303481996       160.580963      -1.57082295    
  0.960639000     -0.962104976     -0.303470999       160.580963      -1.57082295    
   1.06428695     -0.842682004     -0.303481996       201.492203      -1.57081759    
   1.15591598     -0.714210987     -0.303485006       201.492203      -1.57081759    
   1.15788805     -0.715448976     -0.606999993       201.492203      -1.57081759    
   1.06537795     -0.843134999     -0.606999993       201.492203      -1.57081759    
   1.06428695     -0.842682004     -0.303481996       183.051773      -1.57081974    
   1.06537795     -0.843134999     -0.606999993       183.051773      -1.57081974    
  0.964356005     -0.965893984     -0.606999993       183.051773      -1.57081974    
  0.960639000     -0.962104976     -0.303470999       183.051773      -1.57081974    
   1.06428695     -0.842682004     -0.303481996       176.358658      -1.57082057    
   1.06506598     -0.843514979       0.00000000       176.358658      -1.57082057    
   1.15792501     -0.715381980       0.00000000       176.358658      -1.57082057    
   1.15591598     -0.714210987     -0.303485006       176.358658      -1.57082057    
   1.15792501     -0.715381980       0.00000000       189.709686      -1.57081878    
   1.23237598     -0.576093972       0.00000000       189.709686      -1.57081878    
   1.23120904     -0.575251997     -0.303514004       189.709686      -1.57081878    
   1.15591598     -0.714210987     -0.303485006       189.709686      -1.57081878    
   1.23120904     -0.575251997     -0.303514004       228.462082      -1.57081497    
   1.28844094     -0.428344995     -0.303512990       228.462082      -1.57081497    
   1.28952503     -0.428642988     -0.606999993       228.462082      -1.57081497    
   1.23252702     -0.575810015     -0.606999993       228.462082      -1.57081497    
   1.23120904     -0.575251997     -0.303514004       216.585571      -1.57081604    
   1.23252702     -0.575810015     -0.606999993       216.585571      -1.57081604    
   1.15788805     -0.715448976     -0.606999993       216.585571      -1.57081604    
   1.15591598     -0.714210987     -0.303485006       216.585571      -1.57081604    
   1.23120904     -0.575251997     -0.303514004       201.018509      -1.57081759    
   1.23237598     -0.576093972       0.00000000       201.018509      -1.57081759    
   1.28947699     -0.428801000       0.00000000       201.018509      -1.57081759    
   1.28844094     -0.428344995     -0.303512990       201.018509      -1.57081759    
   1.28947699     -0.428801000       0.00000000       208.324341      -1.57081676    
   1.33532202     -0.277671993       0.00000000       208.324341      -1.57081676    
   1.33076501     -0.276203990     -0.303492010       208.324341      -1.57081676    
   1.28844094     -0.428344995     -0.303512990       208.324341      -1.57081676    
   1.33076501     -0.276203990     -0.303492010       244.760574      -1.57081378    
   1.35229194     -0.119709998     -0.303514004       244.760574      -1.57081378    
   1.35321999     -0.119608998     -0.606999993       244.760574      -1.57081378    
   1.33549094     -0.277112991     -0.606999993       244.760574      -1.57081378    
   1.33076501     -0.276203990     -0.303492010       237.833344      -1.57081425    
   1.33549094     -0.277112991     -0.606999993       237.833344      -1.57081425    
   1.28952503     -0.428642988     -0.606999993       237.833344      -1.57081425    
   1.28844094     -0.428344995     -0.303512990       237.833344      -1.57081425    
   1.33076501     -0.276203990     -0.303492010       212.387146      -1.57081640    
   1.33532202     -0.277671993       0.00000000       212.387146      -1.57081640    
   1.35319102     -0.119900003       0.00000000       212.387146      -1.57081640    
   1.35229194     -0.119709998     -0.303514004       212.387146      -1.57081640    
   1.35319102     -0.119900003       0.00000000       214.598770      -1.57081616    
   1.36124396       3.81390005E-02   0.00000000       214.598770      -1.57081616    
   1.35858905       3.79349999E-02 -0.303501010       214.598770      -1.57081616    
   1.35229194     -0.119709998     -0.303514004       214.598770      -1.57081616    
   1.35858905       3.79349999E-02 -0.303501010       245.597153      -1.57081366    
   1.34464097      0.195331007     -0.303496003       245.597153      -1.57081366    
   1.34573400      0.195616007     -0.606999993       245.597153      -1.57081366    
   1.36126804       3.78950015E-02 -0.606999993       245.597153      -1.57081366    
   1.35858905       3.79349999E-02 -0.303501010       246.272278      -1.57081366    
   1.36126804       3.78950015E-02 -0.606999993       246.272278      -1.57081366    
   1.35321999     -0.119608998     -0.606999993       246.272278      -1.57081366    
   1.35229194     -0.119709998     -0.303514004       246.272278      -1.57081366    
   1.35858905       3.79349999E-02 -0.303501010       215.317703      -1.57081616    
   1.36124396       3.81390005E-02   0.00000000       215.317703      -1.57081616    
   1.34575403      0.195406005       0.00000000       215.317703      -1.57081616    
   1.34464097      0.195331007     -0.303496003       215.317703      -1.57081616    
   1.34575403      0.195406005       0.00000000       211.634140      -1.57081652    
   1.31339800      0.349945009       0.00000000       211.634140      -1.57081652    
   1.31216300      0.349725991     -0.303487003       211.634140      -1.57081652    
   1.34464097      0.195331007     -0.303496003       211.634140      -1.57081652    
   1.31216300      0.349725991     -0.303487003       233.478485      -1.57081461    
   1.26341999      0.500032008     -0.303494006       233.478485      -1.57081461    
   1.26736605      0.501691997     -0.606999993       233.478485      -1.57081461    
   1.31333196      0.350163996     -0.606999993       233.478485      -1.57081461    
   1.31216300      0.349725991     -0.303487003       241.231949      -1.57081401    
   1.31333196      0.350163996     -0.606999993       241.231949      -1.57081401    
   1.34573400      0.195616007     -0.606999993       241.231949      -1.57081401    
   1.34464097      0.195331007     -0.303496003       241.231949      -1.57081401    
   1.31216300      0.349725991     -0.303487003       205.247681      -1.57081711    
   1.31339800      0.349945009       0.00000000       205.247681      -1.57081711    
   1.26751196      0.501209974       0.00000000       205.247681      -1.57081711    
   1.26341999      0.500032008     -0.303494006       205.247681      -1.57081711    
   1.26751196      0.501209974       0.00000000       194.655136      -1.57081831    
   1.19658697      0.643051028       0.00000000       194.655136      -1.57081831    
   1.19583094      0.642783999     -0.303505003       194.655136      -1.57081831    
   1.26341999      0.500032008     -0.303494006       194.655136      -1.57081831    
   1.19583094      0.642783999     -0.303505003       210.551880      -1.57081664    
   1.11495602      0.778467000     -0.303483993       210.551880      -1.57081664    
   1.11731696      0.779847026     -0.606999993       210.551880      -1.57081664    
   1.19653296      0.643149972     -0.606999993       210.551880      -1.57081664    
   1.19583094      0.642783999     -0.303505003       222.937134      -1.57081544    
   1.19653296      0.643149972     -0.606999993       222.937134      -1.57081544    
   1.26736605      0.501691997     -0.606999993       222.937134      -1.57081544    
   1.26341999      0.500032008     -0.303494006       222.937134      -1.57081544    
   1.19583094      0.642783999     -0.303505003       182.404160      -1.57081974    
   1.19658697      0.643051028       0.00000000       182.404160      -1.57081974    
   1.11705506      0.780165970       0.00000000       182.404160      -1.57081974    
   1.11495602      0.778467000     -0.303483993       182.404160      -1.57081974    
   1.11705506      0.780165970       0.00000000       168.180374      -1.57082176    
   1.01674199      0.902397990       0.00000000       168.180374      -1.57082176    
   1.01591504      0.901737988     -0.303478003       168.180374      -1.57082176    
   1.11495602      0.778467000     -0.303483993       168.180374      -1.57082176    
   1.01591504      0.901737988     -0.303478003       174.016418      -1.57082093    
  0.904204011       1.01322901     -0.303456992       174.016418      -1.57082093    
  0.905143023       1.01448905     -0.606999993       174.016418      -1.57082093    
   1.01659799      0.902572989     -0.606999993       174.016418      -1.57082093    
   1.01591504      0.901737988     -0.303478003       193.294479      -1.57081842    
   1.01659799      0.902572989     -0.606999993       193.294479      -1.57081842    
   1.11731696      0.779847026     -0.606999993       193.294479      -1.57081842    
   1.11495602      0.778467000     -0.303483993       193.294479      -1.57081842    
   1.01591504      0.901737988     -0.303478003       151.296951      -1.57082462    
   1.01674199      0.902397990       0.00000000       151.296951      -1.57082462    
  0.905318975       1.01434398       0.00000000       151.296951      -1.57082462    
  0.904204011       1.01322901     -0.303456992       151.296951      -1.57082462    
  0.905318975       1.01434398       0.00000000       133.986755      -1.57082820    
  0.782918990       1.11479497       0.00000000       133.986755      -1.57082820    
  0.780644000       1.11195600     -0.303485006       133.986755      -1.57082820    
  0.904204011       1.01322901     -0.303456992       133.986755      -1.57082820    
  0.780644000       1.11195600     -0.303485006       129.513535      -1.57082939    
  0.645825028       1.19414902     -0.303514004       129.513535      -1.57082939    
  0.646153986       1.19492805     -0.606999993       129.513535      -1.57082939    
  0.782611012       1.11504900     -0.606999993       129.513535      -1.57082939    
  0.780644000       1.11195600     -0.303485006       152.769287      -1.57082438    
  0.782611012       1.11504900     -0.606999993       152.769287      -1.57082438    
  0.905143023       1.01448905     -0.606999993       152.769287      -1.57082438    
  0.904204011       1.01322901     -0.303456992       152.769287      -1.57082438    
  0.780644000       1.11195600     -0.303485006       113.838028      -1.57083392    
  0.782918990       1.11479497       0.00000000       113.838028      -1.57083392    
  0.646345019       1.19482601       0.00000000       113.838028      -1.57083392    
  0.645825028       1.19414902     -0.303514004       113.838028      -1.57083392    
  0.646345019       1.19482601       0.00000000       90.0897369      -1.57084382    
  0.504974008       1.26637006       0.00000000       90.0897369      -1.57084382    
  0.503772974       1.26314998     -0.303521991       90.0897369      -1.57084382    
  0.645825028       1.19414902     -0.303514004       90.0897369      -1.57084382    
  0.503772974       1.26314998     -0.303521991       78.0374756      -1.57085121    
  0.353130996       1.31116498     -0.303510994       78.0374756      -1.57085121    
  0.353300005       1.31237996     -0.606999993       78.0374756      -1.57085121    
  0.505183995       1.26630700     -0.606999993       78.0374756      -1.57085121    
  0.503772974       1.26314998     -0.303521991       104.148132      -1.57083738    
  0.505183995       1.26630700     -0.606999993       104.148132      -1.57083738    
  0.646153986       1.19492805     -0.606999993       104.148132      -1.57083738    
  0.645825028       1.19414902     -0.303514004       104.148132      -1.57083738    
  0.503772974       1.26314998     -0.303521991       67.2551117      -1.57086003    
  0.504974008       1.26637006       0.00000000       67.2551117      -1.57086003    
  0.353493989       1.31232095       0.00000000       67.2551117      -1.57086003    
  0.353130996       1.31116498     -0.303510994       67.2551117      -1.57086003    
  0.353493989       1.31232095       0.00000000       42.7918243      -1.57089651    
  0.199064001       1.34539402       0.00000000       42.7918243      -1.57089651    
  0.198755994       1.34360003     -0.303496003       42.7918243      -1.57089651    
  0.353130996       1.31116498     -0.303510994       42.7918243      -1.57089651    
  0.198755994       1.34360003     -0.303496003       20.4625397      -1.57100594    
   4.12769988E-02   1.35817802     -0.303508013       20.4625397      -1.57100594    
   4.12410013E-02   1.36093795     -0.606999993       20.4625397      -1.57100594    
  0.199025005       1.34539795     -0.606999993       20.4625397      -1.57100594    
  0.198755994       1.34360003     -0.303496003       50.1864548      -1.57088172    
  0.199025005       1.34539795     -0.606999993       50.1864548      -1.57088172    
  0.353300005       1.31237996     -0.606999993       50.1864548      -1.57088172    
  0.353130996       1.31116498     -0.303510994       50.1864548      -1.57088172    
  0.198755994       1.34360003     -0.303496003       17.9488678      -1.57103527    
  0.199064001       1.34539402       0.00000000       17.9488678      -1.57103527    
   4.17769998E-02   1.36088502       0.00000000       17.9488678      -1.57103527    
   4.12769988E-02   1.35817802     -0.303508013       17.9488678      -1.57103527    
   4.17769998E-02   1.36088502       0.00000000       6.98728037       1.57141042    
 -0.116410002       1.35353506       0.00000000       6.98728037       1.57141042    
 -0.116471998       1.35271096     -0.303496987       6.98728037       1.57141042    
   4.12769988E-02   1.35817802     -0.303508013       6.98728037       1.57141042    
 -0.116471998       1.35271096     -0.303496987       37.2156067       1.57091165    
 -0.273027003       1.33229196     -0.303496003       37.2156067       1.57091165    
 -0.273876995       1.33647299     -0.606999993       37.2156067       1.57091165    
 -0.116722003       1.35350394     -0.606999993       37.2156067       1.57091165    
 -0.116471998       1.35271096     -0.303496987       7.93707037       1.57133687    
 -0.116722003       1.35350394     -0.606999993       7.93707037       1.57133687    
   4.12410013E-02   1.36093795     -0.606999993       7.93707037       1.57133687    
   4.12769988E-02   1.35817802     -0.303508013       7.93707037       1.57133687    
 -0.116471998       1.35271096     -0.303496987       32.3450279       1.57092905    
 -0.116410002       1.35353506       0.00000000       32.3450279       1.57092905    
 -0.274069011       1.33641505       0.00000000       32.3450279       1.57092905    
 -0.273027003       1.33229196     -0.303496003       32.3450279       1.57092905    
 -0.274069011       1.33641505       0.00000000       56.3686790       1.57087255    
 -0.425588995       1.29045200       0.00000000       56.3686790       1.57087255    
 -0.425258011       1.28953803     -0.303507000       56.3686790       1.57087255    
 -0.273027003       1.33229196     -0.303496003       56.3686790       1.57087255    
 -0.425258011       1.28953803     -0.303507000       91.9473267       1.57084310    
 -0.572302997       1.23206902     -0.303485990       91.9473267       1.57084310    
 -0.573064029       1.23399496     -0.606999993       91.9473267       1.57084310    
 -0.425651014       1.29043305     -0.606999993       91.9473267       1.57084310    
 -0.425258011       1.28953803     -0.303507000       64.6933365       1.57086277    
 -0.425651014       1.29043305     -0.606999993       64.6933365       1.57086277    
 -0.273876995       1.33647299     -0.606999993       64.6933365       1.57086277    
 -0.273027003       1.33229196     -0.303496003       64.6933365       1.57086277    
 -0.425258011       1.28953803     -0.303507000       80.2992935       1.57084990    
 -0.425588995       1.29045200       0.00000000       80.2992935       1.57084990    
 -0.573195994       1.23392498       0.00000000       80.2992935       1.57084990    
 -0.572302997       1.23206902     -0.303485990       80.2992935       1.57084990    
 -0.573195994       1.23392498       0.00000000       102.891205       1.57083809    
 -0.712655008       1.15938199       0.00000000       102.891205       1.57083809    
 -0.711889029       1.15749002     -0.303496003       102.891205       1.57083809    
 -0.572302997       1.23206902     -0.303485990       102.891205       1.57083809    
 -0.711889029       1.15749002     -0.303496003       141.781601       1.57082665    
 -0.840825975       1.06629205     -0.303485990       141.781601       1.57082665    
 -0.841368973       1.06682706     -0.606999993       141.781601       1.57082665    
 -0.712980986       1.15920806     -0.606999993       141.781601       1.57082665    
 -0.711889029       1.15749002     -0.303496003       117.662476       1.57083285    
 -0.712980986       1.15920806     -0.606999993       117.662476       1.57083285    
 -0.573064029       1.23399496     -0.606999993       117.662476       1.57083285    
 -0.572302997       1.23206902     -0.303485990       117.662476       1.57083285    
 -0.711889029       1.15749002     -0.303496003       123.971764       1.57083106    
 -0.712655008       1.15938199       0.00000000       123.971764       1.57083106    
 -0.841165006       1.06699395       0.00000000       123.971764       1.57083106    
 -0.840825975       1.06629205     -0.303485990       123.971764       1.57083106    
 -0.841165006       1.06699395       0.00000000       143.918625       1.57082629    
 -0.963320017      0.966744006       0.00000000       143.918625       1.57082629    
 -0.960084975      0.962615013     -0.303470999       143.918625       1.57082629    
 -0.840825975       1.06629205     -0.303485990       143.918625       1.57082629    
 -0.960084975      0.962615013     -0.303470999       184.416473       1.57081962    
  -1.06383705      0.843237996     -0.303481996       184.416473       1.57081962    
  -1.06481802      0.843816996     -0.606999993       184.416473       1.57081962    
 -0.963873982      0.966289997     -0.606999993       184.416473       1.57081962    
 -0.960084975      0.962615013     -0.303470999       164.602112       1.57082248    
 -0.963873982      0.966289997     -0.606999993       164.602112       1.57082248    
 -0.841368973       1.06682706     -0.606999993       164.602112       1.57082248    
 -0.840825975       1.06629205     -0.303485990       164.602112       1.57082248    
 -0.960084975      0.962615013     -0.303470999       161.444733       1.57082295    
 -0.963320017      0.966744006       0.00000000       161.444733       1.57082295    
  -1.06464398      0.844029009       0.00000000       161.444733       1.57082295    
  -1.06383705      0.843237996     -0.303481996       161.444733       1.57082295    
  -1.06464398      0.844029009       0.00000000       177.253235       1.57082069    
  -1.15769398      0.715813994       0.00000000       177.253235       1.57082069    
  -1.15564799      0.714680016     -0.303483993       177.253235       1.57082069    
  -1.06383705      0.843237996     -0.303481996       177.253235       1.57082069    
  -1.15564799      0.714680016     -0.303483993       217.354340       1.57081616    
  -1.23108304      0.575536013     -0.303514004       217.354340       1.57081616    
  -1.23232996      0.576179981     -0.606999993       217.354340       1.57081616    
  -1.15756094      0.716063023     -0.606999993       217.354340       1.57081616    
  -1.15564799      0.714680016     -0.303483993       202.090912       1.57081759    
  -1.15756094      0.716063023     -0.606999993       202.090912       1.57081759    
  -1.06481802      0.843816996     -0.606999993       202.090912       1.57081759    
  -1.06383705      0.843237996     -0.303481996       202.090912       1.57081759    
  -1.15564799      0.714680016     -0.303483993       190.628555       1.57081890    
  -1.15769398      0.715813994       0.00000000       190.628555       1.57081890    
  -1.23224795      0.576331973       0.00000000       190.628555       1.57081890    
  -1.23108304      0.575536013     -0.303514004       190.628555       1.57081890    
  -1.23224795      0.576331973       0.00000000       201.263611       1.57081771    
  -1.28948605      0.428772002       0.00000000       201.263611       1.57081771    
  -1.28842103      0.428404987     -0.303512990       201.263611       1.57081771    
  -1.23108304      0.575536013     -0.303514004       201.263611       1.57081771    
  -1.28842103      0.428404987     -0.303512990       237.562164       1.57081449    
  -1.33082402      0.275959998     -0.303492010       237.562164       1.57081449    
  -1.33550000      0.277083993     -0.606999993       237.562164       1.57081449    