 VARIABLES="X" "Y" "Z" "abs(p) (Pa)" "angle(p) (rad)"
ZONE N=   2720,E =    2069, F=FEPOINT, ET=QUADRILATERAL
 -0.767116010      -1.12776399       0.00000000       1239.47546       1.58470595    
 -0.769354999      -1.12002099     -0.303523988       1239.47546       1.58470595    
 -0.896136999      -1.02028203     -0.303463012       1239.47546       1.58470595    
 -0.894908011      -1.02288902       0.00000000       1239.47546       1.58470595    
 -0.767116010      -1.12776399       0.00000000       1338.96216       1.58470130    
 -0.630888999      -1.20308697       0.00000000       1338.96216       1.58470130    
 -0.635528028      -1.19958198     -0.303541005       1338.96216       1.58470130    
 -0.769354999      -1.12002099     -0.303523988       1338.96216       1.58470130    
 -0.635528028      -1.19958198     -0.303541005       1250.38196       1.58720744    
 -0.495362997      -1.26606500     -0.303519011       1250.38196       1.58720744    
 -0.499298006      -1.26809204     -0.606999993       1250.38196       1.58720744    
 -0.640147984      -1.19813800     -0.606998026       1250.38196       1.58720744    
 -0.635528028      -1.19958198     -0.303541005       1175.28223       1.58722091    
 -0.640147984      -1.19813800     -0.606998026       1175.28223       1.58722091    
 -0.777105987      -1.11956596     -0.606999993       1175.28223       1.58722091    
 -0.769354999      -1.12002099     -0.303523988       1175.28223       1.58722091    
 -0.635528028      -1.19958198     -0.303541005       1414.97913       1.58473420    
 -0.630888999      -1.20308697       0.00000000       1414.97913       1.58473420    
 -0.494486004      -1.26955199       0.00000000       1414.97913       1.58473420    
 -0.495362997      -1.26606500     -0.303519011       1414.97913       1.58473420    
 -0.494486004      -1.26955199       0.00000000       1479.65503       1.58471382    
 -0.346311986      -1.31449997       0.00000000       1479.65503       1.58471382    
 -0.346753001      -1.31307304     -0.303510010       1479.65503       1.58471382    
 -0.495362997      -1.26606500     -0.303519011       1479.65503       1.58471382    
 -0.346753001      -1.31307304     -0.303510010       1349.18774       1.58715212    
 -0.193608001      -1.34425998     -0.303494990       1349.18774       1.58715212    
 -0.195028007      -1.34579206     -0.606999993       1349.18774       1.58715212    
 -0.348751009      -1.31376004     -0.606999993       1349.18774       1.58715212    
 -0.346753001      -1.31307304     -0.303510010       1307.42102       1.58719158    
 -0.348751009      -1.31376004     -0.606999993       1307.42102       1.58719158    
 -0.499298006      -1.26809204     -0.606999993       1307.42102       1.58719158    
 -0.495362997      -1.26606500     -0.303519011       1307.42102       1.58719158    
 -0.346753001      -1.31307304     -0.303510010       1528.41504       1.58465731    
 -0.346311986      -1.31449997       0.00000000       1528.41504       1.58465731    
 -0.193381995      -1.34595394       0.00000000       1528.41504       1.58465731    
 -0.193608001      -1.34425998     -0.303494990       1528.41504       1.58465731    
 -0.193381995      -1.34595394       0.00000000       1562.16565       1.58457804    
  -3.75179984E-02  -1.36130500       0.00000000       1562.16565       1.58457804    
  -3.73950005E-02  -1.35827899     -0.303512007       1562.16565       1.58457804    
 -0.193608001      -1.34425998     -0.303494990       1562.16565       1.58457804    
  -3.73950005E-02  -1.35827899     -0.303512007       1374.38232       1.58714783    
  0.119547002      -1.35239303     -0.303498000       1374.38232       1.58714783    
  0.119135000      -1.35326600     -0.606999993       1374.38232       1.58714783    
  -3.82840000E-02  -1.36122894     -0.606998980       1374.38232       1.58714783    
  -3.73950005E-02  -1.35827899     -0.303512007       1372.95569       1.58713818    
  -3.82840000E-02  -1.36122894     -0.606998980       1372.95569       1.58713818    
 -0.195028007      -1.34579206     -0.606999993       1372.95569       1.58713818    
 -0.193608001      -1.34425998     -0.303494990       1372.95569       1.58713818    
  -3.73950005E-02  -1.35827899     -0.303512007       1565.14905       1.58454192    
  -3.75179984E-02  -1.36130500       0.00000000       1565.14905       1.58454192    
  0.119788997      -1.35320199       0.00000000       1565.14905       1.58454192    
  0.119547002      -1.35239303     -0.303498000       1565.14905       1.58454192    
  0.119788997      -1.35320199       0.00000000       1548.50549       1.58453357    
  0.276576012      -1.33565402       0.00000000       1548.50549       1.58453357    
  0.275435001      -1.33191597     -0.303496003       1548.50549       1.58453357    
  0.119547002      -1.35239303     -0.303498000       1548.50549       1.58453357    
  0.275435001      -1.33191597     -0.303496003       1356.22156       1.58689058    
  0.427076995      -1.28898001     -0.303507000       1356.22156       1.58689058    
  0.427242011      -1.28995001     -0.606999993       1356.22156       1.58689058    
  0.275831014      -1.33588004     -0.606999993       1356.22156       1.58689058    
  0.275435001      -1.33191597     -0.303496003       1386.46704       1.58691692    
  0.275831014      -1.33588004     -0.606999993       1386.46704       1.58691692    
  0.119135000      -1.35326600     -0.606999993       1386.46704       1.58691692    
  0.119547002      -1.35239303     -0.303498000       1386.46704       1.58691692    
  0.275435001      -1.33191597     -0.303496003       1512.14417       1.58451438    
  0.276576012      -1.33565402       0.00000000       1512.14417       1.58451438    
  0.427509993      -1.28986895       0.00000000       1512.14417       1.58451438    
  0.427076995      -1.28898001     -0.303507000       1512.14417       1.58451438    
  0.427509993      -1.28986895       0.00000000       1453.83435       1.58443975    
  0.574636996      -1.23315501       0.00000000       1453.83435       1.58443975    
  0.573706985      -1.23136795     -0.303485990       1453.83435       1.58443975    
  0.427076995      -1.28898001     -0.303507000       1453.83435       1.58443975    
  0.573706985      -1.23136795     -0.303485990       1240.22644       1.58681941    
  0.712854981      -1.15688002     -0.303496987       1240.22644       1.58681941    
  0.713809013      -1.15876603     -0.606999993       1240.22644       1.58681941    
  0.574283004      -1.23334301     -0.606999993       1240.22644       1.58681941    
  0.573706985      -1.23136795     -0.303485990       1307.96985       1.58682573    
  0.574283004      -1.23334301     -0.606999993       1307.96985       1.58682573    
  0.427242011      -1.28995001     -0.606999993       1307.96985       1.58682573    
  0.427076995      -1.28898001     -0.303507000       1307.96985       1.58682573    
  0.573706985      -1.23136795     -0.303485990       1375.42407       1.58441830    
  0.574636996      -1.23315501       0.00000000       1375.42407       1.58441830    
  0.713741004      -1.15880203       0.00000000       1375.42407       1.58441830    
  0.712854981      -1.15688002     -0.303496987       1375.42407       1.58441830    
  0.713741004      -1.15880203       0.00000000       1284.77576       1.58434319    
  0.841937006      -1.06636095       0.00000000       1284.77576       1.58434319    
  0.841498017      -1.06573403     -0.303485990       1284.77576       1.58434319    
  0.712854981      -1.15688002     -0.303496987       1284.77576       1.58434319    
  0.841498017      -1.06573403     -0.303485990       1061.18262       1.58671188    
  0.960639000     -0.962104976     -0.303470999       1061.18262       1.58671188    
  0.964356005     -0.965893984     -0.606999993       1061.18262       1.58671188    
  0.841796994      -1.06647599     -0.606999993       1061.18262       1.58671188    
  0.841498017      -1.06573403     -0.303485990       1159.02820       1.58675969    
  0.841796994      -1.06647599     -0.606999993       1159.02820       1.58675969    
  0.713809013      -1.15876603     -0.606999993       1159.02820       1.58675969    
  0.712854981      -1.15688002     -0.303496987       1159.02820       1.58675969    
  0.841498017      -1.06573403     -0.303485990       1196.83948       1.58418393    
  0.841937006      -1.06636095       0.00000000       1196.83948       1.58418393    
  0.963932991     -0.966242015       0.00000000       1196.83948       1.58418393    
  0.960639000     -0.962104976     -0.303470999       1196.83948       1.58418393    
  0.963932991     -0.966242015       0.00000000       1078.68079       1.58409786    
   1.06506598     -0.843514979       0.00000000       1078.68079       1.58409786    
   1.06428695     -0.842682004     -0.303481996       1078.68079       1.58409786    
  0.960639000     -0.962104976     -0.303470999       1078.68079       1.58409786    
   1.06428695     -0.842682004     -0.303481996       858.057861       1.58597565    
   1.15591598     -0.714210987     -0.303485006       858.057861       1.58597565    
   1.15788805     -0.715448976     -0.606999993       858.057861       1.58597565    
   1.06537795     -0.843134999     -0.606999993       858.057861       1.58597565    
   1.06428695     -0.842682004     -0.303481996       953.410339       1.58662581    
   1.06537795     -0.843134999     -0.606999993       953.410339       1.58662581    
  0.964356005     -0.965893984     -0.606999993       953.410339       1.58662581    
  0.960639000     -0.962104976     -0.303470999       953.410339       1.58662581    
   1.06428695     -0.842682004     -0.303481996       934.971069       1.58397210    
   1.06506598     -0.843514979       0.00000000       934.971069       1.58397210    
   1.15792501     -0.715381980       0.00000000       934.971069       1.58397210    
   1.15591598     -0.714210987     -0.303485006       934.971069       1.58397210    
   1.15792501     -0.715381980       0.00000000       785.118408       1.58385599    
   1.23237598     -0.576093972       0.00000000       785.118408       1.58385599    
   1.23120904     -0.575251997     -0.303514004       785.118408       1.58385599    
   1.15591598     -0.714210987     -0.303485006       785.118408       1.58385599    
   1.23120904     -0.575251997     -0.303514004       580.243530       1.58536649    
   1.28844094     -0.428344995     -0.303512990       580.243530       1.58536649    
   1.28952503     -0.428642988     -0.606999993       580.243530       1.58536649    
   1.23252702     -0.575810015     -0.606999993       580.243530       1.58536649    
   1.23120904     -0.575251997     -0.303514004       723.709656       1.58575368    
   1.23252702     -0.575810015     -0.606999993       723.709656       1.58575368    
   1.15788805     -0.715448976     -0.606999993       723.709656       1.58575368    
   1.15591598     -0.714210987     -0.303485006       723.709656       1.58575368    
   1.23120904     -0.575251997     -0.303514004       657.718323       1.58304536    
   1.23237598     -0.576093972       0.00000000       657.718323       1.58304536    
   1.28947699     -0.428801000       0.00000000       657.718323       1.58304536    
   1.28844094     -0.428344995     -0.303512990       657.718323       1.58304536    
   1.28947699     -0.428801000       0.00000000       467.898346       1.58272815    
   1.33532202     -0.277671993       0.00000000       467.898346       1.58272815    
   1.33076501     -0.276203990     -0.303492010       467.898346       1.58272815    
   1.28844094     -0.428344995     -0.303512990       467.898346       1.58272815    
   1.33076501     -0.276203990     -0.303492010       285.704590       1.58265412    
   1.35229194     -0.119709998     -0.303514004       285.704590       1.58265412    
   1.35321999     -0.119608998     -0.606999993       285.704590       1.58265412    
   1.33549094     -0.277112991     -0.606999993       285.704590       1.58265412    
   1.33076501     -0.276203990     -0.303492010       431.913940       1.58457732    
   1.33549094     -0.277112991     -0.606999993       431.913940       1.58457732    
   1.28952503     -0.428642988     -0.606999993       431.913940       1.58457732    
   1.28844094     -0.428344995     -0.303512990       431.913940       1.58457732    
   1.33076501     -0.276203990     -0.303492010       265.616638       1.58268094    
   1.33532202     -0.277671993       0.00000000       265.616638       1.58268094    
   1.35319102     -0.119900003       0.00000000       265.616638       1.58268094    
   1.35229194     -0.119709998     -0.303514004       265.616638       1.58268094    
   1.35319102     -0.119900003       0.00000000       84.0785294       1.57813776    
   1.36124396       3.81390005E-02   0.00000000       84.0785294       1.57813776    
   1.35858905       3.79349999E-02 -0.303501010       84.0785294       1.57813776    
   1.35229194     -0.119709998     -0.303514004       84.0785294       1.57813776    
   1.35858905       3.79349999E-02 -0.303501010       58.6764793      -1.53861344    
   1.34464097      0.195331007     -0.303496003       58.6764793      -1.53861344    
   1.34573400      0.195616007     -0.606999993       58.6764793      -1.53861344    
   1.36126804       3.78950015E-02 -0.606999993       58.6764793      -1.53861344    
   1.35858905       3.79349999E-02 -0.303501010       95.0943832       1.57820165    
   1.36126804       3.78950015E-02 -0.606999993       95.0943832       1.57820165    
   1.35321999     -0.119608998     -0.606999993       95.0943832       1.57820165    
   1.35229194     -0.119709998     -0.303514004       95.0943832       1.57820165    
   1.35858905       3.79349999E-02 -0.303501010       86.7381439      -1.54887331    
   1.36124396       3.81390005E-02   0.00000000       86.7381439      -1.54887331    
   1.34575403      0.195406005       0.00000000       86.7381439      -1.54887331    
   1.34464097      0.195331007     -0.303496003       86.7381439      -1.54887331    
   1.34575403      0.195406005       0.00000000       264.126831      -1.55422831    
   1.31339800      0.349945009       0.00000000       264.126831      -1.55422831    
   1.31216300      0.349725991     -0.303487003       264.126831      -1.55422831    
   1.34464097      0.195331007     -0.303496003       264.126831      -1.55422831    
   1.31216300      0.349725991     -0.303487003       386.610382      -1.55234647    
   1.26341999      0.500032008     -0.303494006       386.610382      -1.55234647    
   1.26736605      0.501691997     -0.606999993       386.610382      -1.55234647    
   1.31333196      0.350163996     -0.606999993       386.610382      -1.55234647    
   1.31216300      0.349725991     -0.303487003       214.799423      -1.54993117    
   1.31333196      0.350163996     -0.606999993       214.799423      -1.54993117    
   1.34573400      0.195616007     -0.606999993       214.799423      -1.54993117    
   1.34464097      0.195331007     -0.303496003       214.799423      -1.54993117    
   1.31216300      0.349725991     -0.303487003       438.435730      -1.55524576    
   1.31339800      0.349945009       0.00000000       438.435730      -1.55524576    
   1.26751196      0.501209974       0.00000000       438.435730      -1.55524576    
   1.26341999      0.500032008     -0.303494006       438.435730      -1.55524576    
   1.26751196      0.501209974       0.00000000       608.803955      -1.55595636    
   1.19658697      0.643051028       0.00000000       608.803955      -1.55595636    
   1.19583094      0.642783999     -0.303505003       608.803955      -1.55595636    
   1.26341999      0.500032008     -0.303494006       608.803955      -1.55595636    
   1.19583094      0.642783999     -0.303505003       679.405334      -1.55333567    
   1.11495602      0.778467000     -0.303483993       679.405334      -1.55333567    
   1.11731696      0.779847026     -0.606999993       679.405334      -1.55333567    
   1.19653296      0.643149972     -0.606999993       679.405334      -1.55333567    
   1.19583094      0.642783999     -0.303505003       531.312988      -1.55287540    
   1.19653296      0.643149972     -0.606999993       531.312988      -1.55287540    
   1.26736605      0.501691997     -0.606999993       531.312988      -1.55287540    
   1.26341999      0.500032008     -0.303494006       531.312988      -1.55287540    
   1.19583094      0.642783999     -0.303505003       767.062805      -1.55617166    
   1.19658697      0.643051028       0.00000000       767.062805      -1.55617166    
   1.11705506      0.780165970       0.00000000       767.062805      -1.55617166    
   1.11495602      0.778467000     -0.303483993       767.062805      -1.55617166    
   1.11705506      0.780165970       0.00000000       908.774536      -1.55629504    
   1.01674199      0.902397990       0.00000000       908.774536      -1.55629504    
   1.01591504      0.901737988     -0.303478003       908.774536      -1.55629504    
   1.11495602      0.778467000     -0.303483993       908.774536      -1.55629504    
   1.01591504      0.901737988     -0.303478003       931.159668      -1.55375612    
  0.904204011       1.01322901     -0.303456992       931.159668      -1.55375612    
  0.905143023       1.01448905     -0.606999993       931.159668      -1.55375612    
   1.01659799      0.902572989     -0.606999993       931.159668      -1.55375612    
   1.01591504      0.901737988     -0.303478003       813.563599      -1.55365860    
   1.01659799      0.902572989     -0.606999993       813.563599      -1.55365860    
   1.11731696      0.779847026     -0.606999993       813.563599      -1.55365860    
   1.11495602      0.778467000     -0.303483993       813.563599      -1.55365860    
   1.01591504      0.901737988     -0.303478003       1039.61719      -1.55639398    
   1.01674199      0.902397990       0.00000000       1039.61719      -1.55639398    
  0.905318975       1.01434398       0.00000000       1039.61719      -1.55639398    
  0.904204011       1.01322901     -0.303456992       1039.61719      -1.55639398    
  0.905318975       1.01434398       0.00000000       1164.42957      -1.55649817    
  0.782918990       1.11479497       0.00000000       1164.42957      -1.55649817    
  0.780644000       1.11195600     -0.303485006       1164.42957      -1.55649817    
  0.904204011       1.01322901     -0.303456992       1164.42957      -1.55649817    
  0.780644000       1.11195600     -0.303485006       1122.53625      -1.55383492    
  0.645825028       1.19414902     -0.303514004       1122.53625      -1.55383492    
  0.646153986       1.19492805     -0.606999993       1122.53625      -1.55383492    
  0.782611012       1.11504900     -0.606999993       1122.53625      -1.55383492    
  0.780644000       1.11195600     -0.303485006       1034.63733      -1.55378902    
  0.782611012       1.11504900     -0.606999993       1034.63733      -1.55378902    
  0.905143023       1.01448905     -0.606999993       1034.63733      -1.55378902    
  0.904204011       1.01322901     -0.303456992       1034.63733      -1.55378902    
  0.780644000       1.11195600     -0.303485006       1264.67822      -1.55651569    
  0.782918990       1.11479497       0.00000000       1264.67822      -1.55651569    
  0.646345019       1.19482601       0.00000000       1264.67822      -1.55651569    
  0.645825028       1.19414902     -0.303514004       1264.67822      -1.55651569    
  0.646345019       1.19482601       0.00000000       1343.78320      -1.55646098    
  0.504974008       1.26637006       0.00000000       1343.78320      -1.55646098    
  0.503772974       1.26314998     -0.303521991       1343.78320      -1.55646098    
  0.645825028       1.19414902     -0.303514004       1343.78320      -1.55646098    
  0.503772974       1.26314998     -0.303521991       1258.86108      -1.55395114    
  0.353130996       1.31116498     -0.303510994       1258.86108      -1.55395114    
  0.353300005       1.31237996     -0.606999993       1258.86108      -1.55395114    
  0.505183995       1.26630700     -0.606999993       1258.86108      -1.55395114    
  0.503772974       1.26314998     -0.303521991       1199.07544      -1.55388534    
  0.505183995       1.26630700     -0.606999993       1199.07544      -1.55388534    
  0.646153986       1.19492805     -0.606999993       1199.07544      -1.55388534    
  0.645825028       1.19414902     -0.303514004       1199.07544      -1.55388534    
  0.503772974       1.26314998     -0.303521991       1407.58301      -1.55647576    
  0.504974008       1.26637006       0.00000000       1407.58301      -1.55647576    
  0.353493989       1.31232095       0.00000000       1407.58301      -1.55647576    
  0.353130996       1.31116498     -0.303510994       1407.58301      -1.55647576    
  0.353493989       1.31232095       0.00000000       1454.13953      -1.55652308    
  0.199064001       1.34539402       0.00000000       1454.13953      -1.55652308    
  0.198755994       1.34360003     -0.303496003       1454.13953      -1.55652308    
  0.353130996       1.31116498     -0.303510994       1454.13953      -1.55652308    
  0.198755994       1.34360003     -0.303496003       1315.16028      -1.55393231    
   4.12769988E-02   1.35817802     -0.303508013       1315.16028      -1.55393231    
   4.12410013E-02   1.36093795     -0.606999993       1315.16028      -1.55393231    
  0.199025005       1.34539795     -0.606999993       1315.16028      -1.55393231    
  0.198755994       1.34360003     -0.303496003       1300.06958      -1.55400252    
  0.199025005       1.34539795     -0.606999993       1300.06958      -1.55400252    
  0.353300005       1.31237996     -0.606999993       1300.06958      -1.55400252    
  0.353130996       1.31116498     -0.303510994       1300.06958      -1.55400252    
  0.198755994       1.34360003     -0.303496003       1481.17114      -1.55653894    
  0.199064001       1.34539402       0.00000000       1481.17114      -1.55653894    
   4.17769998E-02   1.36088502       0.00000000       1481.17114      -1.55653894    
   4.12769988E-02   1.35817802     -0.303508013       1481.17114      -1.55653894    
   4.17769998E-02   1.36088502       0.00000000       1497.75891      -1.55663919    
 -0.116410002       1.35353506       0.00000000       1497.75891      -1.55663919    
 -0.116471998       1.35271096     -0.303496987       1497.75891      -1.55663919    
   4.12769988E-02   1.35817802     -0.303508013       1497.75891      -1.55663919    
 -0.116471998       1.35271096     -0.303496987       1334.21594      -1.55427206    
 -0.273027003       1.33229196     -0.303496003       1334.21594      -1.55427206    
 -0.273876995       1.33647299     -0.606999993       1334.21594      -1.55427206    
 -0.116722003       1.35350394     -0.606999993       1334.21594      -1.55427206    
 -0.116471998       1.35271096     -0.303496987       1320.69800      -1.55398118    
 -0.116722003       1.35350394     -0.606999993       1320.69800      -1.55398118    
   4.12410013E-02   1.36093795     -0.606999993       1320.69800      -1.55398118    
   4.12769988E-02   1.35817802     -0.303508013       1320.69800      -1.55398118    
 -0.116471998       1.35271096     -0.303496987       1488.31580      -1.55665064    
 -0.116410002       1.35353506       0.00000000       1488.31580      -1.55665064    
 -0.274069011       1.33641505       0.00000000       1488.31580      -1.55665064    
 -0.273027003       1.33229196     -0.303496003       1488.31580      -1.55665064    
 -0.274069011       1.33641505       0.00000000       1455.17419      -1.55667973    
 -0.425588995       1.29045200       0.00000000       1455.17419      -1.55667973    
 -0.425258011       1.28953803     -0.303507000       1455.17419      -1.55667973    
 -0.273027003       1.33229196     -0.303496003       1455.17419      -1.55667973    
 -0.425258011       1.28953803     -0.303507000       1257.35706      -1.55443084    
 -0.572302997       1.23206902     -0.303485990       1257.35706      -1.55443084    
 -0.573064029       1.23399496     -0.606999993       1257.35706      -1.55443084    
 -0.425651014       1.29043305     -0.606999993       1257.35706      -1.55443084    
 -0.425258011       1.28953803     -0.303507000       1304.90149      -1.55432761    
 -0.425651014       1.29043305     -0.606999993       1304.90149      -1.55432761    
 -0.273876995       1.33647299     -0.606999993       1304.90149      -1.55432761    
 -0.273027003       1.33229196     -0.303496003       1304.90149      -1.55432761    
 -0.425258011       1.28953803     -0.303507000       1394.18091      -1.55675054    
 -0.425588995       1.29045200       0.00000000       1394.18091      -1.55675054    
 -0.573195994       1.23392498       0.00000000       1394.18091      -1.55675054    
 -0.572302997       1.23206902     -0.303485990       1394.18091      -1.55675054    
 -0.573195994       1.23392498       0.00000000       1313.66589      -1.55677867    
 -0.712655008       1.15938199       0.00000000       1313.66589      -1.55677867    
 -0.711889029       1.15749002     -0.303496003       1313.66589      -1.55677867    
 -0.572302997       1.23206902     -0.303485990       1313.66589      -1.55677867    
 -0.711889029       1.15749002     -0.303496003       1112.08350      -1.55459917    
 -0.840825975       1.06629205     -0.303485990       1112.08350      -1.55459917    
 -0.841368973       1.06682706     -0.606999993       1112.08350      -1.55459917    
 -0.712980986       1.15920806     -0.606999993       1112.08350      -1.55459917    
 -0.711889029       1.15749002     -0.303496003       1191.77905      -1.55449128    
 -0.712980986       1.15920806     -0.606999993       1191.77905      -1.55449128    
 -0.573064029       1.23399496     -0.606999993       1191.77905      -1.55449128    
 -0.572302997       1.23206902     -0.303485990       1191.77905      -1.55449128    
 -0.711889029       1.15749002     -0.303496003       1216.71716      -1.55686831    
 -0.712655008       1.15938199       0.00000000       1216.71716      -1.55686831    
 -0.841165006       1.06699395       0.00000000       1216.71716      -1.55686831    
 -0.840825975       1.06629205     -0.303485990       1216.71716      -1.55686831    
 -0.841165006       1.06699395       0.00000000       1107.25708      -1.55691409    
 -0.963320017      0.966744006       0.00000000       1107.25708      -1.55691409    
 -0.960084975      0.962615013     -0.303470999       1107.25708      -1.55691409    
 -0.840825975       1.06629205     -0.303485990       1107.25708      -1.55691409    
 -0.960084975      0.962615013     -0.303470999       903.626160      -1.55470908    
  -1.06383705      0.843237996     -0.303481996       903.626160      -1.55470908    
  -1.06481802      0.843816996     -0.606999993       903.626160      -1.55470908    
 -0.963873982      0.966289997     -0.606999993       903.626160      -1.55470908    
 -0.960084975      0.962615013     -0.303470999       1013.13733      -1.55465662    
 -0.963873982      0.966289997     -0.606999993       1013.13733      -1.55465662    
 -0.841368973       1.06682706     -0.606999993       1013.13733      -1.55465662    
 -0.840825975       1.06629205     -0.303485990       1013.13733      -1.55465662    
 -0.960084975      0.962615013     -0.303470999       989.436401      -1.55698144    
 -0.963320017      0.966744006       0.00000000       989.436401      -1.55698144    
  -1.06464398      0.844029009       0.00000000       989.436401      -1.55698144    
  -1.06383705      0.843237996     -0.303481996       989.436401      -1.55698144    
  -1.06464398      0.844029009       0.00000000       850.685730      -1.55706811    
  -1.15769398      0.715813994       0.00000000       850.685730      -1.55706811    
  -1.15564799      0.714680016     -0.303483993       850.685730      -1.55706811    
  -1.06383705      0.843237996     -0.303481996       850.685730      -1.55706811    
  -1.15564799      0.714680016     -0.303483993       651.012878      -1.55506492    
  -1.23108304      0.575536013     -0.303514004       651.012878      -1.55506492    
  -1.23232996      0.576179981     -0.606999993       651.012878      -1.55506492    
  -1.15756094      0.716063023     -0.606999993       651.012878      -1.55506492    
  -1.15564799      0.714680016     -0.303483993       782.488892      -1.55487871    
  -1.15756094      0.716063023     -0.606999993       782.488892      -1.55487871    
  -1.06481802      0.843816996     -0.606999993       782.488892      -1.55487871    
  -1.06383705      0.843237996     -0.303481996       782.488892      -1.55487871    
  -1.15564799      0.714680016     -0.303483993       705.277588      -1.55712438    
  -1.15769398      0.715813994       0.00000000       705.277588      -1.55712438    
  -1.23224795      0.576331973       0.00000000       705.277588      -1.55712438    
  -1.23108304      0.575536013     -0.303514004       705.277588      -1.55712438    
  -1.23224795      0.576331973       0.00000000       548.177063      -1.55724597    
  -1.28948605      0.428772002       0.00000000       548.177063      -1.55724597    
  -1.28842103      0.428404987     -0.303512990       548.177063      -1.55724597    
  -1.23108304      0.575536013     -0.303514004       548.177063      -1.55724597    
  -1.28842103      0.428404987     -0.303512990       357.153595      -1.55547190    
  -1.33082402      0.275959998     -0.303492010       357.153595      -1.55547190    
  -1.33550000      0.277083993     -0.606999993       357.153595      -1.55547190    