 VARIABLES="X" "Y" "Z" "abs(p) (Pa)" "angle(p) (rad)"
ZONE N=   2720,E =    2069, F=FEPOINT, ET=QUADRILATERAL
 -0.767116010      -1.12776399       0.00000000       466.702606       1.65858042    
 -0.769354999      -1.12002099     -0.303523988       466.702606       1.65858042    
 -0.896136999      -1.02028203     -0.303463012       466.702606       1.65858042    
 -0.894908011      -1.02288902       0.00000000       466.702606       1.65858042    
 -0.767116010      -1.12776399       0.00000000       504.655853       1.65824139    
 -0.630888999      -1.20308697       0.00000000       504.655853       1.65824139    
 -0.635528028      -1.19958198     -0.303541005       504.655853       1.65824139    
 -0.769354999      -1.12002099     -0.303523988       504.655853       1.65824139    
 -0.635528028      -1.19958198     -0.303541005       507.818329       1.67284894    
 -0.495362997      -1.26606500     -0.303519011       507.818329       1.67284894    
 -0.499298006      -1.26809204     -0.606999993       507.818329       1.67284894    
 -0.640147984      -1.19813800     -0.606998026       507.818329       1.67284894    
 -0.635528028      -1.19958198     -0.303541005       477.223694       1.67321265    
 -0.640147984      -1.19813800     -0.606998026       477.223694       1.67321265    
 -0.777105987      -1.11956596     -0.606999993       477.223694       1.67321265    
 -0.769354999      -1.12002099     -0.303523988       477.223694       1.67321265    
 -0.635528028      -1.19958198     -0.303541005       533.223572       1.65826321    
 -0.630888999      -1.20308697       0.00000000       533.223572       1.65826321    
 -0.494486004      -1.26955199       0.00000000       533.223572       1.65826321    
 -0.495362997      -1.26606500     -0.303519011       533.223572       1.65826321    
 -0.494486004      -1.26955199       0.00000000       557.239502       1.65799963    
 -0.346311986      -1.31449997       0.00000000       557.239502       1.65799963    
 -0.346753001      -1.31307304     -0.303510010       557.239502       1.65799963    
 -0.495362997      -1.26606500     -0.303519011       557.239502       1.65799963    
 -0.346753001      -1.31307304     -0.303510010       547.918884       1.67214775    
 -0.193608001      -1.34425998     -0.303494990       547.918884       1.67214775    
 -0.195028007      -1.34579206     -0.606999993       547.918884       1.67214775    
 -0.348751009      -1.31376004     -0.606999993       547.918884       1.67214775    
 -0.346753001      -1.31307304     -0.303510010       530.993652       1.67254722    
 -0.348751009      -1.31376004     -0.606999993       530.993652       1.67254722    
 -0.499298006      -1.26809204     -0.606999993       530.993652       1.67254722    
 -0.495362997      -1.26606500     -0.303519011       530.993652       1.67254722    
 -0.346753001      -1.31307304     -0.303510010       574.996277       1.65763414    
 -0.346311986      -1.31449997       0.00000000       574.996277       1.65763414    
 -0.193381995      -1.34595394       0.00000000       574.996277       1.65763414    
 -0.193608001      -1.34425998     -0.303494990       574.996277       1.65763414    
 -0.193381995      -1.34595394       0.00000000       587.996155       1.65710270    
  -3.75179984E-02  -1.36130500       0.00000000       587.996155       1.65710270    
  -3.73950005E-02  -1.35827899     -0.303512007       587.996155       1.65710270    
 -0.193608001      -1.34425998     -0.303494990       587.996155       1.65710270    
  -3.73950005E-02  -1.35827899     -0.303512007       558.522034       1.67185593    
  0.119547002      -1.35239303     -0.303498000       558.522034       1.67185593    
  0.119135000      -1.35326600     -0.606999993       558.522034       1.67185593    
  -3.82840000E-02  -1.36122894     -0.606998980       558.522034       1.67185593    
  -3.73950005E-02  -1.35827899     -0.303512007       557.687317       1.67193508    
  -3.82840000E-02  -1.36122894     -0.606998980       557.687317       1.67193508    
 -0.195028007      -1.34579206     -0.606999993       557.687317       1.67193508    
 -0.193608001      -1.34425998     -0.303494990       557.687317       1.67193508    
  -3.73950005E-02  -1.35827899     -0.303512007       590.317749       1.65687299    
  -3.75179984E-02  -1.36130500       0.00000000       590.317749       1.65687299    
  0.119788997      -1.35320199       0.00000000       590.317749       1.65687299    
  0.119547002      -1.35239303     -0.303498000       590.317749       1.65687299    
  0.119788997      -1.35320199       0.00000000       585.060669       1.65674579    
  0.276576012      -1.33565402       0.00000000       585.060669       1.65674579    
  0.275435001      -1.33191597     -0.303496003       585.060669       1.65674579    
  0.119547002      -1.35239303     -0.303498000       585.060669       1.65674579    
  0.275435001      -1.33191597     -0.303496003       551.536987       1.67025900    
  0.427076995      -1.28898001     -0.303507000       551.536987       1.67025900    
  0.427242011      -1.28995001     -0.606999993       551.536987       1.67025900    
  0.275831014      -1.33588004     -0.606999993       551.536987       1.67025900    
  0.275435001      -1.33191597     -0.303496003       563.536133       1.67047322    
  0.275831014      -1.33588004     -0.606999993       563.536133       1.67047322    
  0.119135000      -1.35326600     -0.606999993       563.536133       1.67047322    
  0.119547002      -1.35239303     -0.303498000       563.536133       1.67047322    
  0.275435001      -1.33191597     -0.303496003       572.367371       1.65661919    
  0.276576012      -1.33565402       0.00000000       572.367371       1.65661919    
  0.427509993      -1.28986895       0.00000000       572.367371       1.65661919    
  0.427076995      -1.28898001     -0.303507000       572.367371       1.65661919    
  0.427509993      -1.28986895       0.00000000       551.581543       1.65632796    
  0.574636996      -1.23315501       0.00000000       551.581543       1.65632796    
  0.573706985      -1.23136795     -0.303485990       551.581543       1.65632796    
  0.427076995      -1.28898001     -0.303507000       551.581543       1.65632796    
  0.573706985      -1.23136795     -0.303485990       504.638550       1.66982293    
  0.712854981      -1.15688002     -0.303496987       504.638550       1.66982293    
  0.713809013      -1.15876603     -0.606999993       504.638550       1.66982293    
  0.574283004      -1.23334301     -0.606999993       504.638550       1.66982293    
  0.573706985      -1.23136795     -0.303485990       532.073730       1.66986489    
  0.574283004      -1.23334301     -0.606999993       532.073730       1.66986489    
  0.427242011      -1.28995001     -0.606999993       532.073730       1.66986489    
  0.427076995      -1.28898001     -0.303507000       532.073730       1.66986489    
  0.573706985      -1.23136795     -0.303485990       522.466980       1.65627766    
  0.574636996      -1.23315501       0.00000000       522.466980       1.65627766    
  0.713741004      -1.15880203       0.00000000       522.466980       1.65627766    
  0.712854981      -1.15688002     -0.303496987       522.466980       1.65627766    
  0.713741004      -1.15880203       0.00000000       488.171509       1.65602803    
  0.841937006      -1.06636095       0.00000000       488.171509       1.65602803    
  0.841498017      -1.06573403     -0.303485990       488.171509       1.65602803    
  0.712854981      -1.15688002     -0.303496987       488.171509       1.65602803    
  0.841498017      -1.06573403     -0.303485990       431.467804       1.66942537    
  0.960639000     -0.962104976     -0.303470999       431.467804       1.66942537    
  0.964356005     -0.965893984     -0.606999993       431.467804       1.66942537    
  0.841796994      -1.06647599     -0.606999993       431.467804       1.66942537    
  0.841498017      -1.06573403     -0.303485990       471.482147       1.66955352    
  0.841796994      -1.06647599     -0.606999993       471.482147       1.66955352    
  0.713809013      -1.15876603     -0.606999993       471.482147       1.66955352    
  0.712854981      -1.15688002     -0.303496987       471.482147       1.66955352    
  0.841498017      -1.06573403     -0.303485990       453.848785       1.65518641    
  0.841937006      -1.06636095       0.00000000       453.848785       1.65518641    
  0.963932991     -0.966242015       0.00000000       453.848785       1.65518641    
  0.960639000     -0.962104976     -0.303470999       453.848785       1.65518641    
  0.963932991     -0.966242015       0.00000000       408.440887       1.65492141    
   1.06506598     -0.843514979       0.00000000       408.440887       1.65492141    
   1.06428695     -0.842682004     -0.303481996       408.440887       1.65492141    
  0.960639000     -0.962104976     -0.303470999       408.440887       1.65492141    
   1.06428695     -0.842682004     -0.303481996       348.009186       1.66634715    
   1.15591598     -0.714210987     -0.303485006       348.009186       1.66634715    
   1.15788805     -0.715448976     -0.606999993       348.009186       1.66634715    
   1.06537795     -0.843134999     -0.606999993       348.009186       1.66634715    
   1.06428695     -0.842682004     -0.303481996       387.381287       1.66915405    
   1.06537795     -0.843134999     -0.606999993       387.381287       1.66915405    
  0.964356005     -0.965893984     -0.606999993       387.381287       1.66915405    
  0.960639000     -0.962104976     -0.303470999       387.381287       1.66915405    
   1.06428695     -0.842682004     -0.303481996       354.869751       1.65460479    
   1.06506598     -0.843514979       0.00000000       354.869751       1.65460479    
   1.15792501     -0.715381980       0.00000000       354.869751       1.65460479    
   1.15591598     -0.714210987     -0.303485006       354.869751       1.65460479    
   1.15792501     -0.715381980       0.00000000       297.648193       1.65447795    
   1.23237598     -0.576093972       0.00000000       297.648193       1.65447795    
   1.23120904     -0.575251997     -0.303514004       297.648193       1.65447795    
   1.15591598     -0.714210987     -0.303485006       297.648193       1.65447795    
   1.23120904     -0.575251997     -0.303514004       234.614273       1.66453552    
   1.28844094     -0.428344995     -0.303512990       234.614273       1.66453552    
   1.28952503     -0.428642988     -0.606999993       234.614273       1.66453552    
   1.23252702     -0.575810015     -0.606999993       234.614273       1.66453552    
   1.23120904     -0.575251997     -0.303514004       293.175690       1.66568840    
   1.23252702     -0.575810015     -0.606999993       293.175690       1.66568840    
   1.15788805     -0.715448976     -0.606999993       293.175690       1.66568840    
   1.15591598     -0.714210987     -0.303485006       293.175690       1.66568840    
   1.23120904     -0.575251997     -0.303514004       249.217407       1.65135479    
   1.23237598     -0.576093972       0.00000000       249.217407       1.65135479    
   1.28947699     -0.428801000       0.00000000       249.217407       1.65135479    
   1.28844094     -0.428344995     -0.303512990       249.217407       1.65135479    
   1.28947699     -0.428801000       0.00000000       176.496674       1.65181589    
   1.33532202     -0.277671993       0.00000000       176.496674       1.65181589    
   1.33076501     -0.276203990     -0.303492010       176.496674       1.65181589    
   1.28844094     -0.428344995     -0.303512990       176.496674       1.65181589    
   1.33076501     -0.276203990     -0.303492010       114.270683       1.65610754    
   1.35229194     -0.119709998     -0.303514004       114.270683       1.65610754    
   1.35321999     -0.119608998     -0.606999993       114.270683       1.65610754    
   1.33549094     -0.277112991     -0.606999993       114.270683       1.65610754    
   1.33076501     -0.276203990     -0.303492010       174.060242       1.66205227    
   1.33549094     -0.277112991     -0.606999993       174.060242       1.66205227    
   1.28952503     -0.428642988     -0.606999993       174.060242       1.66205227    
   1.28844094     -0.428344995     -0.303512990       174.060242       1.66205227    
   1.33076501     -0.276203990     -0.303492010       99.3345871       1.65580857    
   1.33532202     -0.277671993       0.00000000       99.3345871       1.65580857    
   1.35319102     -0.119900003       0.00000000       99.3345871       1.65580857    
   1.35229194     -0.119709998     -0.303514004       99.3345871       1.65580857    
   1.35319102     -0.119900003       0.00000000       30.6350994       1.65683734    
   1.36124396       3.81390005E-02   0.00000000       30.6350994       1.65683734    
   1.35858905       3.79349999E-02 -0.303501010       30.6350994       1.65683734    
   1.35229194     -0.119709998     -0.303514004       30.6350994       1.65683734    
   1.35858905       3.79349999E-02 -0.303501010       25.8845539      -1.44073915    
   1.34464097      0.195331007     -0.303496003       25.8845539      -1.44073915    
   1.34573400      0.195616007     -0.606999993       25.8845539      -1.44073915    
   1.36126804       3.78950015E-02 -0.606999993       25.8845539      -1.44073915    
   1.35858905       3.79349999E-02 -0.303501010       36.9142761       1.65021253    
   1.36126804       3.78950015E-02 -0.606999993       36.9142761       1.65021253    
   1.35321999     -0.119608998     -0.606999993       36.9142761       1.65021253    
   1.35229194     -0.119709998     -0.303514004       36.9142761       1.65021253    
   1.35858905       3.79349999E-02 -0.303501010       34.0626183      -1.48269188    
   1.36124396       3.81390005E-02   0.00000000       34.0626183      -1.48269188    
   1.34575403      0.195406005       0.00000000       34.0626183      -1.48269188    
   1.34464097      0.195331007     -0.303496003       34.0626183      -1.48269188    
   1.34575403      0.195406005       0.00000000       101.217957      -1.48523033    
   1.31339800      0.349945009       0.00000000       101.217957      -1.48523033    
   1.31216300      0.349725991     -0.303487003       101.217957      -1.48523033    
   1.34464097      0.195331007     -0.303496003       101.217957      -1.48523033    
   1.31216300      0.349725991     -0.303487003       159.604523      -1.46960557    
   1.26341999      0.500032008     -0.303494006       159.604523      -1.46960557    
   1.26736605      0.501691997     -0.606999993       159.604523      -1.46960557    
   1.31333196      0.350163996     -0.606999993       159.604523      -1.46960557    
   1.31216300      0.349725991     -0.303487003       89.5927582      -1.46282327    
   1.31333196      0.350163996     -0.606999993       89.5927582      -1.46282327    
   1.34573400      0.195616007     -0.606999993       89.5927582      -1.46282327    
   1.34464097      0.195331007     -0.303496003       89.5927582      -1.46282327    
   1.31216300      0.349725991     -0.303487003       167.208664      -1.48569167    
   1.31339800      0.349945009       0.00000000       167.208664      -1.48569167    
   1.26751196      0.501209974       0.00000000       167.208664      -1.48569167    
   1.26341999      0.500032008     -0.303494006       167.208664      -1.48569167    
   1.26751196      0.501209974       0.00000000       231.908722      -1.48689187    
   1.19658697      0.643051028       0.00000000       231.908722      -1.48689187    
   1.19583094      0.642783999     -0.303505003       231.908722      -1.48689187    
   1.26341999      0.500032008     -0.303494006       231.908722      -1.48689187    
   1.19583094      0.642783999     -0.303505003       279.137665      -1.47154784    
   1.11495602      0.778467000     -0.303483993       279.137665      -1.47154784    
   1.11731696      0.779847026     -0.606999993       279.137665      -1.47154784    
   1.19653296      0.643149972     -0.606999993       279.137665      -1.47154784    
   1.19583094      0.642783999     -0.303505003       218.723663      -1.47035110    
   1.19653296      0.643149972     -0.606999993       218.723663      -1.47035110    
   1.26736605      0.501691997     -0.606999993       218.723663      -1.47035110    
   1.26341999      0.500032008     -0.303494006       218.723663      -1.47035110    
   1.19583094      0.642783999     -0.303505003       292.432953      -1.48696494    
   1.19658697      0.643051028       0.00000000       292.432953      -1.48696494    
   1.11705506      0.780165970       0.00000000       292.432953      -1.48696494    
   1.11495602      0.778467000     -0.303483993       292.432953      -1.48696494    
   1.11705506      0.780165970       0.00000000       346.777008      -1.48697221    
   1.01674199      0.902397990       0.00000000       346.777008      -1.48697221    
   1.01591504      0.901737988     -0.303478003       346.777008      -1.48697221    
   1.11495602      0.778467000     -0.303483993       346.777008      -1.48697221    
   1.01591504      0.901737988     -0.303478003       382.171906      -1.47243905    
  0.904204011       1.01322901     -0.303456992       382.171906      -1.47243905    
  0.905143023       1.01448905     -0.606999993       382.171906      -1.47243905    
   1.01659799      0.902572989     -0.606999993       382.171906      -1.47243905    
   1.01591504      0.901737988     -0.303478003       333.963257      -1.47232258    
   1.01659799      0.902572989     -0.606999993       333.963257      -1.47232258    
   1.11731696      0.779847026     -0.606999993       333.963257      -1.47232258    
   1.11495602      0.778467000     -0.303483993       333.963257      -1.47232258    
   1.01591504      0.901737988     -0.303478003       397.246674      -1.48704410    
   1.01674199      0.902397990       0.00000000       397.246674      -1.48704410    
  0.905318975       1.01434398       0.00000000       397.246674      -1.48704410    
  0.904204011       1.01322901     -0.303456992       397.246674      -1.48704410    
  0.905318975       1.01434398       0.00000000       444.860840      -1.48735976    
  0.782918990       1.11479497       0.00000000       444.860840      -1.48735976    
  0.780644000       1.11195600     -0.303485006       444.860840      -1.48735976    
  0.904204011       1.01322901     -0.303456992       444.860840      -1.48735976    
  0.780644000       1.11195600     -0.303485006       460.636749      -1.47234917    
  0.645825028       1.19414902     -0.303514004       460.636749      -1.47234917    
  0.646153986       1.19492805     -0.606999993       460.636749      -1.47234917    
  0.782611012       1.11504900     -0.606999993       460.636749      -1.47234917    
  0.780644000       1.11195600     -0.303485006       424.650970      -1.47231996    
  0.782611012       1.11504900     -0.606999993       424.650970      -1.47231996    
  0.905143023       1.01448905     -0.606999993       424.650970      -1.47231996    
  0.904204011       1.01322901     -0.303456992       424.650970      -1.47231996    
  0.780644000       1.11195600     -0.303485006       483.406372      -1.48734653    
  0.782918990       1.11479497       0.00000000       483.406372      -1.48734653    
  0.646345019       1.19482601       0.00000000       483.406372      -1.48734653    
  0.645825028       1.19414902     -0.303514004       483.406372      -1.48734653    
  0.646345019       1.19482601       0.00000000       512.569763      -1.48693907    
  0.504974008       1.26637006       0.00000000       512.569763      -1.48693907    
  0.503772974       1.26314998     -0.303521991       512.569763      -1.48693907    
  0.645825028       1.19414902     -0.303514004       512.569763      -1.48693907    
  0.503772974       1.26314998     -0.303521991       516.001282      -1.47262788    
  0.353130996       1.31116498     -0.303510994       516.001282      -1.47262788    
  0.353300005       1.31237996     -0.606999993       516.001282      -1.47262788    
  0.505183995       1.26630700     -0.606999993       516.001282      -1.47262788    
  0.503772974       1.26314998     -0.303521991       491.799408      -1.47242820    
  0.505183995       1.26630700     -0.606999993       491.799408      -1.47242820    
  0.646153986       1.19492805     -0.606999993       491.799408      -1.47242820    
  0.645825028       1.19414902     -0.303514004       491.799408      -1.47242820    
  0.503772974       1.26314998     -0.303521991       536.474915      -1.48692596    
  0.504974008       1.26637006       0.00000000       536.474915      -1.48692596    
  0.353493989       1.31232095       0.00000000       536.474915      -1.48692596    
  0.353130996       1.31116498     -0.303510994       536.474915      -1.48692596    
  0.353493989       1.31232095       0.00000000       553.857422      -1.48706639    
  0.199064001       1.34539402       0.00000000       553.857422      -1.48706639    
  0.198755994       1.34360003     -0.303496003       553.857422      -1.48706639    
  0.353130996       1.31116498     -0.303510994       553.857422      -1.48706639    
  0.198755994       1.34360003     -0.303496003       538.438538      -1.47238004    
   4.12769988E-02   1.35817802     -0.303508013       538.438538      -1.47238004    
   4.12410013E-02   1.36093795     -0.606999993       538.438538      -1.47238004    
  0.199025005       1.34539795     -0.606999993       538.438538      -1.47238004    
  0.198755994       1.34360003     -0.303496003       532.488098      -1.47280121    
  0.199025005       1.34539795     -0.606999993       532.488098      -1.47280121    
  0.353300005       1.31237996     -0.606999993       532.488098      -1.47280121    
  0.353130996       1.31116498     -0.303510994       532.488098      -1.47280121    
  0.198755994       1.34360003     -0.303496003       563.574890      -1.48713183    
  0.199064001       1.34539402       0.00000000       563.574890      -1.48713183    
   4.17769998E-02   1.36088502       0.00000000       563.574890      -1.48713183    
   4.12769988E-02   1.35817802     -0.303508013       563.574890      -1.48713183    
   4.17769998E-02   1.36088502       0.00000000       568.456787      -1.48758233    
 -0.116410002       1.35353506       0.00000000       568.456787      -1.48758233    
 -0.116471998       1.35271096     -0.303496987       568.456787      -1.48758233    
   4.12769988E-02   1.35817802     -0.303508013       568.456787      -1.48758233    
 -0.116471998       1.35271096     -0.303496987       545.191528      -1.47393382    
 -0.273027003       1.33229196     -0.303496003       545.191528      -1.47393382    
 -0.273876995       1.33647299     -0.606999993       545.191528      -1.47393382    
 -0.116722003       1.35350394     -0.606999993       545.191528      -1.47393382    
 -0.116471998       1.35271096     -0.303496987       540.268799      -1.47257638    
 -0.116722003       1.35350394     -0.606999993       540.268799      -1.47257638    
   4.12410013E-02   1.36093795     -0.606999993       540.268799      -1.47257638    
   4.12769988E-02   1.35817802     -0.303508013       540.268799      -1.47257638    
 -0.116471998       1.35271096     -0.303496987       562.989380      -1.48767805    
 -0.116410002       1.35353506       0.00000000       562.989380      -1.48767805    
 -0.274069011       1.33641505       0.00000000       562.989380      -1.48767805    
 -0.273027003       1.33229196     -0.303496003       562.989380      -1.48767805    
 -0.274069011       1.33641505       0.00000000       550.123230      -1.48787129    
 -0.425588995       1.29045200       0.00000000       550.123230      -1.48787129    
 -0.425258011       1.28953803     -0.303507000       550.123230      -1.48787129    
 -0.273027003       1.33229196     -0.303496003       550.123230      -1.48787129    
 -0.425258011       1.28953803     -0.303507000       513.744507      -1.47480261    
 -0.572302997       1.23206902     -0.303485990       513.744507      -1.47480261    
 -0.573064029       1.23399496     -0.606999993       513.744507      -1.47480261    
 -0.425651014       1.29043305     -0.606999993       513.744507      -1.47480261    
 -0.425258011       1.28953803     -0.303507000       533.099182      -1.47422159    
 -0.425651014       1.29043305     -0.606999993       533.099182      -1.47422159    
 -0.273876995       1.33647299     -0.606999993       533.099182      -1.47422159    
 -0.273027003       1.33229196     -0.303496003       533.099182      -1.47422159    
 -0.425258011       1.28953803     -0.303507000       528.493347      -1.48824859    
 -0.425588995       1.29045200       0.00000000       528.493347      -1.48824859    
 -0.573195994       1.23392498       0.00000000       528.493347      -1.48824859    
 -0.572302997       1.23206902     -0.303485990       528.493347      -1.48824859    
 -0.573195994       1.23392498       0.00000000       499.238312      -1.48851013    
 -0.712655008       1.15938199       0.00000000       499.238312      -1.48851013    
 -0.711889029       1.15749002     -0.303496003       499.238312      -1.48851013    
 -0.572302997       1.23206902     -0.303485990       499.238312      -1.48851013    
 -0.711889029       1.15749002     -0.303496003       454.908997      -1.47590959    
 -0.840825975       1.06629205     -0.303485990       454.908997      -1.47590959    
 -0.841368973       1.06682706     -0.606999993       454.908997      -1.47590959    
 -0.712980986       1.15920806     -0.606999993       454.908997      -1.47590959    
 -0.711889029       1.15749002     -0.303496003       487.248779      -1.47519028    
 -0.712980986       1.15920806     -0.606999993       487.248779      -1.47519028    
 -0.573064029       1.23399496     -0.606999993       487.248779      -1.47519028    
 -0.572302997       1.23206902     -0.303485990       487.248779      -1.47519028    
 -0.711889029       1.15749002     -0.303496003       463.951385      -1.48902237    
 -0.712655008       1.15938199       0.00000000       463.951385      -1.48902237    
 -0.841165006       1.06699395       0.00000000       463.951385      -1.48902237    
 -0.840825975       1.06629205     -0.303485990       463.951385      -1.48902237    
 -0.841165006       1.06699395       0.00000000       422.540375      -1.48953760    
 -0.963320017      0.966744006       0.00000000       422.540375      -1.48953760    
 -0.960084975      0.962615013     -0.303470999       422.540375      -1.48953760    
 -0.840825975       1.06629205     -0.303485990       422.540375      -1.48953760    
 -0.960084975      0.962615013     -0.303470999       370.011139      -1.47713828    
  -1.06383705      0.843237996     -0.303481996       370.011139      -1.47713828    
  -1.06481802      0.843816996     -0.606999993       370.011139      -1.47713828    
 -0.963873982      0.966289997     -0.606999993       370.011139      -1.47713828    
 -0.960084975      0.962615013     -0.303470999       414.696838      -1.47644556    
 -0.963873982      0.966289997     -0.606999993       414.696838      -1.47644556    
 -0.841368973       1.06682706     -0.606999993       414.696838      -1.47644556    
 -0.840825975       1.06629205     -0.303485990       414.696838      -1.47644556    
 -0.960084975      0.962615013     -0.303470999       377.432526      -1.49027860    
 -0.963320017      0.966744006       0.00000000       377.432526      -1.49027860    
  -1.06464398      0.844029009       0.00000000       377.432526      -1.49027860    
  -1.06383705      0.843237996     -0.303481996       377.432526      -1.49027860    
  -1.06464398      0.844029009       0.00000000       324.871674      -1.49133253    
  -1.15769398      0.715813994       0.00000000       324.871674      -1.49133253    
  -1.15564799      0.714680016     -0.303483993       324.871674      -1.49133253    
  -1.06383705      0.843237996     -0.303481996       324.871674      -1.49133253    
  -1.15564799      0.714680016     -0.303483993       266.628052      -1.48044229    
  -1.23108304      0.575536013     -0.303514004       266.628052      -1.48044229    
  -1.23232996      0.576179981     -0.606999993       266.628052      -1.48044229    
  -1.15756094      0.716063023     -0.606999993       266.628052      -1.48044229    
  -1.15564799      0.714680016     -0.303483993       320.417419      -1.47865224    
  -1.15756094      0.716063023     -0.606999993       320.417419      -1.47865224    
  -1.06481802      0.843816996     -0.606999993       320.417419      -1.47865224    
  -1.06383705      0.843237996     -0.303481996       320.417419      -1.47865224    
  -1.15564799      0.714680016     -0.303483993       268.741577      -1.49258983    
  -1.15769398      0.715813994       0.00000000       268.741577      -1.49258983    
  -1.23224795      0.576331973       0.00000000       268.741577      -1.49258983    
  -1.23108304      0.575536013     -0.303514004       268.741577      -1.49258983    
  -1.23224795      0.576331973       0.00000000       208.663055      -1.49476445    
  -1.28948605      0.428772002       0.00000000       208.663055      -1.49476445    
  -1.28842103      0.428404987     -0.303512990       208.663055      -1.49476445    
  -1.23108304      0.575536013     -0.303514004       208.663055      -1.49476445    
  -1.28842103      0.428404987     -0.303512990       146.901657      -1.48787177    
  -1.33082402      0.275959998     -0.303492010       146.901657      -1.48787177    
  -1.33550000      0.277083993     -0.606999993       146.901657      -1.48787177    