 VARIABLES="X" "Y" "Z" "abs(p) (Pa)" "angle(p) (rad)"
ZONE N=   2720,E =    2069, F=FEPOINT, ET=QUADRILATERAL
 -0.767116010      -1.12776399       0.00000000       1599.91455       1.60098684    
 -0.769354999      -1.12002099     -0.303523988       1599.91455       1.60098684    
 -0.896136999      -1.02028203     -0.303463012       1599.91455       1.60098684    
 -0.894908011      -1.02288902       0.00000000       1599.91455       1.60098684    
 -0.767116010      -1.12776399       0.00000000       1366.30469       1.60890818    
 -0.630888999      -1.20308697       0.00000000       1366.30469       1.60890818    
 -0.635528028      -1.19958198     -0.303541005       1366.30469       1.60890818    
 -0.769354999      -1.12002099     -0.303523988       1366.30469       1.60890818    
 -0.635528028      -1.19958198     -0.303541005       982.918457       1.62591517    
 -0.495362997      -1.26606500     -0.303519011       982.918457       1.62591517    
 -0.499298006      -1.26809204     -0.606999993       982.918457       1.62591517    
 -0.640147984      -1.19813800     -0.606998026       982.918457       1.62591517    
 -0.635528028      -1.19958198     -0.303541005       1209.33167       1.61181235    
 -0.640147984      -1.19813800     -0.606998026       1209.33167       1.61181235    
 -0.777105987      -1.11956596     -0.606999993       1209.33167       1.61181235    
 -0.769354999      -1.12002099     -0.303523988       1209.33167       1.61181235    
 -0.635528028      -1.19958198     -0.303541005       1068.83972       1.62367380    
 -0.630888999      -1.20308697       0.00000000       1068.83972       1.62367380    
 -0.494486004      -1.26955199       0.00000000       1068.83972       1.62367380    
 -0.495362997      -1.26606500     -0.303519011       1068.83972       1.62367380    
 -0.494486004      -1.26955199       0.00000000       816.393616       1.64503789    
 -0.346311986      -1.31449997       0.00000000       816.393616       1.64503789    
 -0.346753001      -1.31307304     -0.303510010       816.393616       1.64503789    
 -0.495362997      -1.26606500     -0.303519011       816.393616       1.64503789    
 -0.346753001      -1.31307304     -0.303510010       506.989655       1.69674563    
 -0.193608001      -1.34425998     -0.303494990       506.989655       1.69674563    
 -0.195028007      -1.34579206     -0.606999993       506.989655       1.69674563    
 -0.348751009      -1.31376004     -0.606999993       506.989655       1.69674563    
 -0.346753001      -1.31307304     -0.303510010       751.745728       1.64905834    
 -0.348751009      -1.31376004     -0.606999993       751.745728       1.64905834    
 -0.499298006      -1.26809204     -0.606999993       751.745728       1.64905834    
 -0.495362997      -1.26606500     -0.303519011       751.745728       1.64905834    
 -0.346753001      -1.31307304     -0.303510010       548.003296       1.68950438    
 -0.346311986      -1.31449997       0.00000000       548.003296       1.68950438    
 -0.193381995      -1.34595394       0.00000000       548.003296       1.68950438    
 -0.193608001      -1.34425998     -0.303494990       548.003296       1.68950438    
 -0.193381995      -1.34595394       0.00000000       322.205780       1.78633487    
  -3.75179984E-02  -1.36130500       0.00000000       322.205780       1.78633487    
  -3.73950005E-02  -1.35827899     -0.303512007       322.205780       1.78633487    
 -0.193608001      -1.34425998     -0.303494990       322.205780       1.78633487    
  -3.73950005E-02  -1.35827899     -0.303512007       74.4435043      -2.99816537    
  0.119547002      -1.35239303     -0.303498000       74.4435043      -2.99816537    
  0.119135000      -1.35326600     -0.606999993       74.4435043      -2.99816537    
  -3.82840000E-02  -1.36122894     -0.606998980       74.4435043      -2.99816537    
  -3.73950005E-02  -1.35827899     -0.303512007       252.939911       1.84595931    
  -3.82840000E-02  -1.36122894     -0.606998980       252.939911       1.84595931    
 -0.195028007      -1.34579206     -0.606999993       252.939911       1.84595931    
 -0.193608001      -1.34425998     -0.303494990       252.939911       1.84595931    
  -3.73950005E-02  -1.35827899     -0.303512007       82.2084808       2.67173624    
  -3.75179984E-02  -1.36130500       0.00000000       82.2084808       2.67173624    
  0.119788997      -1.35320199       0.00000000       82.2084808       2.67173624    
  0.119547002      -1.35239303     -0.303498000       82.2084808       2.67173624    
  0.119788997      -1.35320199       0.00000000       265.900970      -1.86790657    
  0.276576012      -1.33565402       0.00000000       265.900970      -1.86790657    
  0.275435001      -1.33191597     -0.303496003       265.900970      -1.86790657    
  0.119547002      -1.35239303     -0.303498000       265.900970      -1.86790657    
  0.275435001      -1.33191597     -0.303496003       482.712433      -1.74403858    
  0.427076995      -1.28898001     -0.303507000       482.712433      -1.74403858    
  0.427242011      -1.28995001     -0.606999993       482.712433      -1.74403858    
  0.275831014      -1.33588004     -0.606999993       482.712433      -1.74403858    
  0.275435001      -1.33191597     -0.303496003       244.380234      -1.89765203    
  0.275831014      -1.33588004     -0.606999993       244.380234      -1.89765203    
  0.119135000      -1.35326600     -0.606999993       244.380234      -1.89765203    
  0.119547002      -1.35239303     -0.303498000       244.380234      -1.89765203    
  0.275435001      -1.33191597     -0.303496003       529.705261      -1.72632456    
  0.276576012      -1.33565402       0.00000000       529.705261      -1.72632456    
  0.427509993      -1.28986895       0.00000000       529.705261      -1.72632456    
  0.427076995      -1.28898001     -0.303507000       529.705261      -1.72632456    
  0.427509993      -1.28986895       0.00000000       790.319641      -1.68004501    
  0.574636996      -1.23315501       0.00000000       790.319641      -1.68004501    
  0.573706985      -1.23136795     -0.303485990       790.319641      -1.68004501    
  0.427076995      -1.28898001     -0.303507000       790.319641      -1.68004501    
  0.573706985      -1.23136795     -0.303485990       957.896423      -1.66741455    
  0.712854981      -1.15688002     -0.303496987       957.896423      -1.66741455    
  0.713809013      -1.15876603     -0.606999993       957.896423      -1.66741455    
  0.574283004      -1.23334301     -0.606999993       957.896423      -1.66741455    
  0.573706985      -1.23136795     -0.303485990       725.638672      -1.69227529    
  0.574283004      -1.23334301     -0.606999993       725.638672      -1.69227529    
  0.427242011      -1.28995001     -0.606999993       725.638672      -1.69227529    
  0.427076995      -1.28898001     -0.303507000       725.638672      -1.69227529    
  0.573706985      -1.23136795     -0.303485990       1047.07825      -1.65697443    
  0.574636996      -1.23315501       0.00000000       1047.07825      -1.65697443    
  0.713741004      -1.15880203       0.00000000       1047.07825      -1.65697443    
  0.712854981      -1.15688002     -0.303496987       1047.07825      -1.65697443    
  0.713741004      -1.15880203       0.00000000       1284.95532      -1.64384592    
  0.841937006      -1.06636095       0.00000000       1284.95532      -1.64384592    
  0.841498017      -1.06573403     -0.303485990       1284.95532      -1.64384592    
  0.712854981      -1.15688002     -0.303496987       1284.95532      -1.64384592    
  0.841498017      -1.06573403     -0.303485990       1365.24707      -1.64437473    
  0.960639000     -0.962104976     -0.303470999       1365.24707      -1.64437473    
  0.964356005     -0.965893984     -0.606999993       1365.24707      -1.64437473    
  0.841796994      -1.06647599     -0.606999993       1365.24707      -1.64437473    
  0.841498017      -1.06573403     -0.303485990       1165.43555      -1.65366232    
  0.841796994      -1.06647599     -0.606999993       1165.43555      -1.65366232    
  0.713809013      -1.15876603     -0.606999993       1165.43555      -1.65366232    
  0.712854981      -1.15688002     -0.303496987       1165.43555      -1.65366232    
  0.841498017      -1.06573403     -0.303485990       1518.98083      -1.63496232    
  0.841937006      -1.06636095       0.00000000       1518.98083      -1.63496232    
  0.963932991     -0.966242015       0.00000000       1518.98083      -1.63496232    
  0.960639000     -0.962104976     -0.303470999       1518.98083      -1.63496232    
  0.963932991     -0.966242015       0.00000000       1712.04749      -1.62944806    
   1.06506598     -0.843514979       0.00000000       1712.04749      -1.62944806    
   1.06428695     -0.842682004     -0.303481996       1712.04749      -1.62944806    
  0.960639000     -0.962104976     -0.303470999       1712.04749      -1.62944806    
   1.06428695     -0.842682004     -0.303481996       1737.96606      -1.63235092    
   1.15591598     -0.714210987     -0.303485006       1737.96606      -1.63235092    
   1.15788805     -0.715448976     -0.606999993       1737.96606      -1.63235092    
   1.06537795     -0.843134999     -0.606999993       1737.96606      -1.63235092    
   1.06428695     -0.842682004     -0.303481996       1540.18628      -1.63816738    
   1.06537795     -0.843134999     -0.606999993       1540.18628      -1.63816738    
  0.964356005     -0.965893984     -0.606999993       1540.18628      -1.63816738    
  0.960639000     -0.962104976     -0.303470999       1540.18628      -1.63816738    
   1.06428695     -0.842682004     -0.303481996       1887.42871      -1.62538517    
   1.06506598     -0.843514979       0.00000000       1887.42871      -1.62538517    
   1.15792501     -0.715381980       0.00000000       1887.42871      -1.62538517    
   1.15591598     -0.714210987     -0.303485006       1887.42871      -1.62538517    
   1.15792501     -0.715381980       0.00000000       2031.05505      -1.62262022    
   1.23237598     -0.576093972       0.00000000       2031.05505      -1.62262022    
   1.23120904     -0.575251997     -0.303514004       2031.05505      -1.62262022    
   1.15591598     -0.714210987     -0.303485006       2031.05505      -1.62262022    
   1.23120904     -0.575251997     -0.303514004       1975.00098      -1.62716353    
   1.28844094     -0.428344995     -0.303512990       1975.00098      -1.62716353    
   1.28952503     -0.428642988     -0.606999993       1975.00098      -1.62716353    
   1.23252702     -0.575810015     -0.606999993       1975.00098      -1.62716353    
   1.23120904     -0.575251997     -0.303514004       1868.41455      -1.62936878    
   1.23252702     -0.575810015     -0.606999993       1868.41455      -1.62936878    
   1.15788805     -0.715448976     -0.606999993       1868.41455      -1.62936878    
   1.15591598     -0.714210987     -0.303485006       1868.41455      -1.62936878    
   1.23120904     -0.575251997     -0.303514004       2181.89551      -1.61994493    
   1.23237598     -0.576093972       0.00000000       2181.89551      -1.61994493    
   1.28947699     -0.428801000       0.00000000       2181.89551      -1.61994493    
   1.28844094     -0.428344995     -0.303512990       2181.89551      -1.61994493    
   1.28947699     -0.428801000       0.00000000       2254.85718      -1.61883545    
   1.33532202     -0.277671993       0.00000000       2254.85718      -1.61883545    
   1.33076501     -0.276203990     -0.303492010       2254.85718      -1.61883545    
   1.28844094     -0.428344995     -0.303512990       2254.85718      -1.61883545    
   1.33076501     -0.276203990     -0.303492010       2166.02393      -1.62341011    
   1.35229194     -0.119709998     -0.303514004       2166.02393      -1.62341011    
   1.35321999     -0.119608998     -0.606999993       2166.02393      -1.62341011    
   1.33549094     -0.277112991     -0.606999993       2166.02393      -1.62341011    
   1.33076501     -0.276203990     -0.303492010       2049.98340      -1.62578535    
   1.33549094     -0.277112991     -0.606999993       2049.98340      -1.62578535    
   1.28952503     -0.428642988     -0.606999993       2049.98340      -1.62578535    
   1.28844094     -0.428344995     -0.303512990       2049.98340      -1.62578535    
   1.33076501     -0.276203990     -0.303492010       2270.32739      -1.61867523    
   1.33532202     -0.277671993       0.00000000       2270.32739      -1.61867523    
   1.35319102     -0.119900003       0.00000000       2270.32739      -1.61867523    
   1.35229194     -0.119709998     -0.303514004       2270.32739      -1.61867523    
   1.35319102     -0.119900003       0.00000000       2293.45679      -1.61827338    
   1.36124396       3.81390005E-02   0.00000000       2293.45679      -1.61827338    
   1.35858905       3.79349999E-02 -0.303501010       2293.45679      -1.61827338    
   1.35229194     -0.119709998     -0.303514004       2293.45679      -1.61827338    
   1.35858905       3.79349999E-02 -0.303501010       2133.78491      -1.62398469    
   1.34464097      0.195331007     -0.303496003       2133.78491      -1.62398469    
   1.34573400      0.195616007     -0.606999993       2133.78491      -1.62398469    
   1.36126804       3.78950015E-02 -0.606999993       2133.78491      -1.62398469    
   1.35858905       3.79349999E-02 -0.303501010       2148.09424      -1.62380195    
   1.36126804       3.78950015E-02 -0.606999993       2148.09424      -1.62380195    
   1.35321999     -0.119608998     -0.606999993       2148.09424      -1.62380195    
   1.35229194     -0.119709998     -0.303514004       2148.09424      -1.62380195    
   1.35858905       3.79349999E-02 -0.303501010       2350.71216      -1.61718893    
   1.36124396       3.81390005E-02   0.00000000       2350.71216      -1.61718893    
   1.34575403      0.195406005       0.00000000       2350.71216      -1.61718893    
   1.34464097      0.195331007     -0.303496003       2350.71216      -1.61718893    
   1.34575403      0.195406005       0.00000000       2306.19556      -1.61771071    
   1.31339800      0.349945009       0.00000000       2306.19556      -1.61771071    
   1.31216300      0.349725991     -0.303487003       2306.19556      -1.61771071    
   1.34464097      0.195331007     -0.303496003       2306.19556      -1.61771071    
   1.31216300      0.349725991     -0.303487003       2010.93433      -1.62592185    
   1.26341999      0.500032008     -0.303494006       2010.93433      -1.62592185    
   1.26736605      0.501691997     -0.606999993       2010.93433      -1.62592185    
   1.31333196      0.350163996     -0.606999993       2010.93433      -1.62592185    
   1.31216300      0.349725991     -0.303487003       2095.08618      -1.62449539    
   1.31333196      0.350163996     -0.606999993       2095.08618      -1.62449539    
   1.34573400      0.195616007     -0.606999993       2095.08618      -1.62449539    
   1.34464097      0.195331007     -0.303496003       2095.08618      -1.62449539    
   1.31216300      0.349725991     -0.303487003       2227.19653      -1.61878049    
   1.31339800      0.349945009       0.00000000       2227.19653      -1.61878049    
   1.26751196      0.501209974       0.00000000       2227.19653      -1.61878049    
   1.26341999      0.500032008     -0.303494006       2227.19653      -1.61878049    
   1.26751196      0.501209974       0.00000000       2054.16016      -1.62169266    
   1.19658697      0.643051028       0.00000000       2054.16016      -1.62169266    
   1.19583094      0.642783999     -0.303505003       2054.16016      -1.62169266    
   1.26341999      0.500032008     -0.303494006       2054.16016      -1.62169266    
   1.19583094      0.642783999     -0.303505003       1835.26147      -1.62883961    
   1.11495602      0.778467000     -0.303483993       1835.26147      -1.62883961    
   1.11731696      0.779847026     -0.606999993       1835.26147      -1.62883961    
   1.19653296      0.643149972     -0.606999993       1835.26147      -1.62883961    
   1.19583094      0.642783999     -0.303505003       1914.48743      -1.62761962    
   1.19653296      0.643149972     -0.606999993       1914.48743      -1.62761962    
   1.26736605      0.501691997     -0.606999993       1914.48743      -1.62761962    
   1.26341999      0.500032008     -0.303494006       1914.48743      -1.62761962    
   1.19583094      0.642783999     -0.303505003       1916.33557      -1.62409735    
   1.19658697      0.643051028       0.00000000       1916.33557      -1.62409735    
   1.11705506      0.780165970       0.00000000       1916.33557      -1.62409735    
   1.11495602      0.778467000     -0.303483993       1916.33557      -1.62409735    
   1.11705506      0.780165970       0.00000000       1754.98877      -1.62744832    
   1.01674199      0.902397990       0.00000000       1754.98877      -1.62744832    
   1.01591504      0.901737988     -0.303478003       1754.98877      -1.62744832    
   1.11495602      0.778467000     -0.303483993       1754.98877      -1.62744832    
   1.01591504      0.901737988     -0.303478003       1459.41638      -1.63899887    
  0.904204011       1.01322901     -0.303456992       1459.41638      -1.63899887    
  0.905143023       1.01448905     -0.606999993       1459.41638      -1.63899887    
   1.01659799      0.902572989     -0.606999993       1459.41638      -1.63899887    
   1.01591504      0.901737988     -0.303478003       1629.10339      -1.63407791    
   1.01659799      0.902572989     -0.606999993       1629.10339      -1.63407791    
   1.11731696      0.779847026     -0.606999993       1629.10339      -1.63407791    
   1.11495602      0.778467000     -0.303483993       1629.10339      -1.63407791    
   1.01591504      0.901737988     -0.303478003       1566.00903      -1.63225591    
   1.01674199      0.902397990       0.00000000       1566.00903      -1.63225591    
  0.905318975       1.01434398       0.00000000       1566.00903      -1.63225591    
  0.904204011       1.01322901     -0.303456992       1566.00903      -1.63225591    
  0.905318975       1.01434398       0.00000000       1400.70007      -1.63731313    
  0.782918990       1.11479497       0.00000000       1400.70007      -1.63731313    
  0.780644000       1.11195600     -0.303485006       1400.70007      -1.63731313    
  0.904204011       1.01322901     -0.303456992       1400.70007      -1.63731313    
  0.780644000       1.11195600     -0.303485006       1059.37061      -1.65712237    
  0.645825028       1.19414902     -0.303514004       1059.37061      -1.65712237    
  0.646153986       1.19492805     -0.606999993       1059.37061      -1.65712237    
  0.782611012       1.11504900     -0.606999993       1059.37061      -1.65712237    
  0.780644000       1.11195600     -0.303485006       1266.56677      -1.64630675    
  0.782611012       1.11504900     -0.606999993       1266.56677      -1.64630675    
  0.905143023       1.01448905     -0.606999993       1266.56677      -1.64630675    
  0.904204011       1.01322901     -0.303456992       1266.56677      -1.64630675    
  0.780644000       1.11195600     -0.303485006       1179.61914      -1.64666939    
  0.782918990       1.11479497       0.00000000       1179.61914      -1.64666939    
  0.646345019       1.19482601       0.00000000       1179.61914      -1.64666939    
  0.645825028       1.19414902     -0.303514004       1179.61914      -1.64666939    
  0.646345019       1.19482601       0.00000000       880.123657      -1.66745770    
  0.504974008       1.26637006       0.00000000       880.123657      -1.66745770    
  0.503772974       1.26314998     -0.303521991       880.123657      -1.66745770    
  0.645825028       1.19414902     -0.303514004       880.123657      -1.66745770    
  0.503772974       1.26314998     -0.303521991       605.294617      -1.70688725    
  0.353130996       1.31116498     -0.303510994       605.294617      -1.70688725    
  0.353300005       1.31237996     -0.606999993       605.294617      -1.70688725    
  0.505183995       1.26630700     -0.606999993       605.294617      -1.70688725    
  0.503772974       1.26314998     -0.303521991       834.945435      -1.67489851    
  0.505183995       1.26630700     -0.606999993       834.945435      -1.67489851    
  0.646153986       1.19492805     -0.606999993       834.945435      -1.67489851    
  0.645825028       1.19414902     -0.303514004       834.945435      -1.67489851    
  0.503772974       1.26314998     -0.303521991       622.133484      -1.70103586    
  0.504974008       1.26637006       0.00000000       622.133484      -1.70103586    
  0.353493989       1.31232095       0.00000000       622.133484      -1.70103586    
  0.353130996       1.31116498     -0.303510994       622.133484      -1.70103586    
  0.353493989       1.31232095       0.00000000       348.616913      -1.79165685    
  0.199064001       1.34539402       0.00000000       348.616913      -1.79165685    
  0.198755994       1.34360003     -0.303496003       348.616913      -1.79165685    
  0.353130996       1.31116498     -0.303510994       348.616913      -1.79165685    
  0.198755994       1.34360003     -0.303496003       84.8020401      -2.57877517    
   4.12769988E-02   1.35817802     -0.303508013       84.8020401      -2.57877517    
   4.12410013E-02   1.36093795     -0.606999993       84.8020401      -2.57877517    
  0.199025005       1.34539795     -0.606999993       84.8020401      -2.57877517    
  0.198755994       1.34360003     -0.303496003       357.642914      -1.78820527    
  0.199025005       1.34539795     -0.606999993       357.642914      -1.78820527    
  0.353300005       1.31237996     -0.606999993       357.642914      -1.78820527    
  0.353130996       1.31116498     -0.303510994       357.642914      -1.78820527    
  0.198755994       1.34360003     -0.303496003       92.4133911      -2.46229839    
  0.199064001       1.34539402       0.00000000       92.4133911      -2.46229839    
   4.17769998E-02   1.36088502       0.00000000       92.4133911      -2.46229839    
   4.12769988E-02   1.35817802     -0.303508013       92.4133911      -2.46229839    
   4.17769998E-02   1.36088502       0.00000000       226.996796       1.87267220    
 -0.116410002       1.35353506       0.00000000       226.996796       1.87267220    
 -0.116471998       1.35271096     -0.303496987       226.996796       1.87267220    
   4.12769988E-02   1.35817802     -0.303508013       226.996796       1.87267220    
 -0.116471998       1.35271096     -0.303496987       494.872467       1.69521749    
 -0.273027003       1.33229196     -0.303496003       494.872467       1.69521749    
 -0.273876995       1.33647299     -0.606999993       494.872467       1.69521749    
 -0.116722003       1.35350394     -0.606999993       494.872467       1.69521749    
 -0.116471998       1.35271096     -0.303496987       221.899384       1.87617052    
 -0.116722003       1.35350394     -0.606999993       221.899384       1.87617052    
   4.12410013E-02   1.36093795     -0.606999993       221.899384       1.87617052    
   4.12769988E-02   1.35817802     -0.303508013       221.899384       1.87617052    
 -0.116471998       1.35271096     -0.303496987       507.285614       1.69527555    
 -0.116410002       1.35353506       0.00000000       507.285614       1.69527555    
 -0.274069011       1.33641505       0.00000000       507.285614       1.69527555    
 -0.273027003       1.33229196     -0.303496003       507.285614       1.69527555    
 -0.274069011       1.33641505       0.00000000       777.594055       1.64641130    
 -0.425588995       1.29045200       0.00000000       777.594055       1.64641130    
 -0.425258011       1.28953803     -0.303507000       777.594055       1.64641130    
 -0.273027003       1.33229196     -0.303496003       777.594055       1.64641130    
 -0.425258011       1.28953803     -0.303507000       990.027527       1.62320983    
 -0.572302997       1.23206902     -0.303485990       990.027527       1.62320983    
 -0.573064029       1.23399496     -0.606999993       990.027527       1.62320983    
 -0.425651014       1.29043305     -0.606999993       990.027527       1.62320983    
 -0.425258011       1.28953803     -0.303507000       741.532776       1.64723635    
 -0.425651014       1.29043305     -0.606999993       741.532776       1.64723635    
 -0.273876995       1.33647299     -0.606999993       741.532776       1.64723635    
 -0.273027003       1.33229196     -0.303496003       741.532776       1.64723635    
 -0.425258011       1.28953803     -0.303507000       1053.35303       1.62255239    
 -0.425588995       1.29045200       0.00000000       1053.35303       1.62255239    
 -0.573195994       1.23392498       0.00000000       1053.35303       1.62255239    
 -0.572302997       1.23206902     -0.303485990       1053.35303       1.62255239    
 -0.573195994       1.23392498       0.00000000       1312.93262       1.60928142    
 -0.712655008       1.15938199       0.00000000       1312.93262       1.60928142    
 -0.711889029       1.15749002     -0.303496003       1312.93262       1.60928142    
 -0.572302997       1.23206902     -0.303485990       1312.93262       1.60928142    
 -0.711889029       1.15749002     -0.303496003       1432.44714       1.60103953    
 -0.840825975       1.06629205     -0.303485990       1432.44714       1.60103953    
 -0.841368973       1.06682706     -0.606999993       1432.44714       1.60103953    
 -0.712980986       1.15920806     -0.606999993       1432.44714       1.60103953    
 -0.711889029       1.15749002     -0.303496003       1214.20520       1.60988986    
 -0.712980986       1.15920806     -0.606999993       1214.20520       1.60988986    
 -0.573064029       1.23399496     -0.606999993       1214.20520       1.60988986    
 -0.572302997       1.23206902     -0.303485990       1214.20520       1.60988986    
 -0.711889029       1.15749002     -0.303496003       1552.83264       1.60097289    
 -0.712655008       1.15938199       0.00000000       1552.83264       1.60097289    
 -0.841165006       1.06699395       0.00000000       1552.83264       1.60097289    
 -0.840825975       1.06629205     -0.303485990       1552.83264       1.60097289    
 -0.841165006       1.06699395       0.00000000       1776.07263       1.59523857    
 -0.963320017      0.966744006       0.00000000       1776.07263       1.59523857    
 -0.960084975      0.962615013     -0.303470999       1776.07263       1.59523857    
 -0.840825975       1.06629205     -0.303485990       1776.07263       1.59523857    
 -0.960084975      0.962615013     -0.303470999       1818.00305       1.59064412    
  -1.06383705      0.843237996     -0.303481996       1818.00305       1.59064412    
  -1.06481802      0.843816996     -0.606999993       1818.00305       1.59064412    
 -0.963873982      0.966289997     -0.606999993       1818.00305       1.59064412    
 -0.960084975      0.962615013     -0.303470999       1638.41638       1.59485352    
 -0.963873982      0.966289997     -0.606999993       1638.41638       1.59485352    
 -0.841368973       1.06682706     -0.606999993       1638.41638       1.59485352    
 -0.840825975       1.06629205     -0.303485990       1638.41638       1.59485352    
 -0.960084975      0.962615013     -0.303470999       1978.15088       1.59122026    
 -0.963320017      0.966744006       0.00000000       1978.15088       1.59122026    
  -1.06464398      0.844029009       0.00000000       1978.15088       1.59122026    
  -1.06383705      0.843237996     -0.303481996       1978.15088       1.59122026    
  -1.06464398      0.844029009       0.00000000       2154.86621       1.58831203    
  -1.15769398      0.715813994       0.00000000       2154.86621       1.58831203    
  -1.15564799      0.714680016     -0.303483993       2154.86621       1.58831203    
  -1.06383705      0.843237996     -0.303481996       2154.86621       1.58831203    
  -1.15564799      0.714680016     -0.303483993       2117.83179       1.58525562    
  -1.23108304      0.575536013     -0.303514004       2117.83179       1.58525562    
  -1.23232996      0.576179981     -0.606999993       2117.83179       1.58525562    
  -1.15756094      0.716063023     -0.606999993       2117.83179       1.58525562    
  -1.15564799      0.714680016     -0.303483993       1978.60608       1.58754158    
  -1.15756094      0.716063023     -0.606999993       1978.60608       1.58754158    
  -1.06481802      0.843816996     -0.606999993       1978.60608       1.58754158    
  -1.06383705      0.843237996     -0.303481996       1978.60608       1.58754158    
  -1.15564799      0.714680016     -0.303483993       2299.55103       1.58625686    
  -1.15769398      0.715813994       0.00000000       2299.55103       1.58625686    
  -1.23224795      0.576331973       0.00000000       2299.55103       1.58625686    
  -1.23108304      0.575536013     -0.303514004       2299.55103       1.58625686    
  -1.23224795      0.576331973       0.00000000       2416.22119       1.58480513    
  -1.28948605      0.428772002       0.00000000       2416.22119       1.58480513    
  -1.28842103      0.428404987     -0.303512990       2416.22119       1.58480513    
  -1.23108304      0.575536013     -0.303514004       2416.22119       1.58480513    
  -1.28842103      0.428404987     -0.303512990       2240.66016       1.58316863    
  -1.33082402      0.275959998     -0.303492010       2240.66016       1.58316863    
  -1.33550000      0.277083993     -0.606999993       2240.66016       1.58316863    