 VARIABLES="X" "Y" "Z" "abs(p) (Pa)" "angle(p) (rad)"
ZONE N=   2720,E =    2069, F=FEPOINT, ET=QUADRILATERAL
 -0.767116010      -1.12776399       0.00000000       152.867661      -1.57088172    
 -0.769354999      -1.12002099     -0.303523988       152.867661      -1.57088172    
 -0.896136999      -1.02028203     -0.303463012       152.867661      -1.57088172    
 -0.894908011      -1.02288902       0.00000000       152.867661      -1.57088172    
 -0.767116010      -1.12776399       0.00000000       128.215607      -1.57089376    
 -0.630888999      -1.20308697       0.00000000       128.215607      -1.57089376    
 -0.635528028      -1.19958198     -0.303541005       128.215607      -1.57089376    
 -0.769354999      -1.12002099     -0.303523988       128.215607      -1.57089376    
 -0.635528028      -1.19958198     -0.303541005       81.0799103      -1.57094610    
 -0.495362997      -1.26606500     -0.303519011       81.0799103      -1.57094610    
 -0.499298006      -1.26809204     -0.606999993       81.0799103      -1.57094610    
 -0.640147984      -1.19813800     -0.606998026       81.0799103      -1.57094610    
 -0.635528028      -1.19958198     -0.303541005       100.391106      -1.57092428    
 -0.640147984      -1.19813800     -0.606998026       100.391106      -1.57092428    
 -0.777105987      -1.11956596     -0.606999993       100.391106      -1.57092428    
 -0.769354999      -1.12002099     -0.303523988       100.391106      -1.57092428    
 -0.635528028      -1.19958198     -0.303541005       103.648720      -1.57091010    
 -0.630888999      -1.20308697       0.00000000       103.648720      -1.57091010    
 -0.494486004      -1.26955199       0.00000000       103.648720      -1.57091010    
 -0.495362997      -1.26606500     -0.303519011       103.648720      -1.57091010    
 -0.494486004      -1.26955199       0.00000000       76.8370361      -1.57094169    
 -0.346311986      -1.31449997       0.00000000       76.8370361      -1.57094169    
 -0.346753001      -1.31307304     -0.303510010       76.8370361      -1.57094169    
 -0.495362997      -1.26606500     -0.303519011       76.8370361      -1.57094169    
 -0.346753001      -1.31307304     -0.303510010       38.4637489      -1.57107353    
 -0.193608001      -1.34425998     -0.303494990       38.4637489      -1.57107353    
 -0.195028007      -1.34579206     -0.606999993       38.4637489      -1.57107353    
 -0.348751009      -1.31376004     -0.606999993       38.4637489      -1.57107353    
 -0.346753001      -1.31307304     -0.303510010       59.8577271      -1.57098722    
 -0.348751009      -1.31376004     -0.606999993       59.8577271      -1.57098722    
 -0.499298006      -1.26809204     -0.606999993       59.8577271      -1.57098722    
 -0.495362997      -1.26606500     -0.303519011       59.8577271      -1.57098722    
 -0.346753001      -1.31307304     -0.303510010       49.2966881      -1.57100928    
 -0.346311986      -1.31449997       0.00000000       49.2966881      -1.57100928    
 -0.193381995      -1.34595394       0.00000000       49.2966881      -1.57100928    
 -0.193608001      -1.34425998     -0.303494990       49.2966881      -1.57100928    
 -0.193381995      -1.34595394       0.00000000       20.7662735      -1.57127190    
  -3.75179984E-02  -1.36130500       0.00000000       20.7662735      -1.57127190    
  -3.73950005E-02  -1.35827899     -0.303512007       20.7662735      -1.57127190    
 -0.193608001      -1.34425998     -0.303494990       20.7662735      -1.57127190    
  -3.73950005E-02  -1.35827899     -0.303512007       6.33358288       1.57223082    
  0.119547002      -1.35239303     -0.303498000       6.33358288       1.57223082    
  0.119135000      -1.35326600     -0.606999993       6.33358288       1.57223082    
  -3.82840000E-02  -1.36122894     -0.606998980       6.33358288       1.57223082    
  -3.73950005E-02  -1.35827899     -0.303512007       16.4034672      -1.57139802    
  -3.82840000E-02  -1.36122894     -0.606998980       16.4034672      -1.57139802    
 -0.195028007      -1.34579206     -0.606999993       16.4034672      -1.57139802    
 -0.193608001      -1.34425998     -0.303494990       16.4034672      -1.57139802    
  -3.73950005E-02  -1.35827899     -0.303512007       8.29710579       1.57190347    
  -3.75179984E-02  -1.36130500       0.00000000       8.29710579       1.57190347    
  0.119788997      -1.35320199       0.00000000       8.29710579       1.57190347    
  0.119547002      -1.35239303     -0.303498000       8.29710579       1.57190347    
  0.119788997      -1.35320199       0.00000000       36.7072220       1.57102716    
  0.276576012      -1.33565402       0.00000000       36.7072220       1.57102716    
  0.275435001      -1.33191597     -0.303496003       36.7072220       1.57102716    
  0.119547002      -1.35239303     -0.303498000       36.7072220       1.57102716    
  0.275435001      -1.33191597     -0.303496003       51.1354866       1.57094443    
  0.427076995      -1.28898001     -0.303507000       51.1354866       1.57094443    
  0.427242011      -1.28995001     -0.606999993       51.1354866       1.57094443    
  0.275831014      -1.33588004     -0.606999993       51.1354866       1.57094443    
  0.275435001      -1.33191597     -0.303496003       28.3810673       1.57108974    
  0.275831014      -1.33588004     -0.606999993       28.3810673       1.57108974    
  0.119135000      -1.35326600     -0.606999993       28.3810673       1.57108974    
  0.119547002      -1.35239303     -0.303498000       28.3810673       1.57108974    
  0.275435001      -1.33191597     -0.303496003       65.6514969       1.57091510    
  0.276576012      -1.33565402       0.00000000       65.6514969       1.57091510    
  0.427509993      -1.28986895       0.00000000       65.6514969       1.57091510    
  0.427076995      -1.28898001     -0.303507000       65.6514969       1.57091510    
  0.427509993      -1.28986895       0.00000000       92.9614029       1.57087314    
  0.574636996      -1.23315501       0.00000000       92.9614029       1.57087314    
  0.573706985      -1.23136795     -0.303485990       92.9614029       1.57087314    
  0.427076995      -1.28898001     -0.303507000       92.9614029       1.57087314    
  0.573706985      -1.23136795     -0.303485990       92.6166306       1.57086205    
  0.712854981      -1.15688002     -0.303496987       92.6166306       1.57086205    
  0.713809013      -1.15876603     -0.606999993       92.6166306       1.57086205    
  0.574283004      -1.23334301     -0.606999993       92.6166306       1.57086205    
  0.573706985      -1.23136795     -0.303485990       72.1842346       1.57089067    
  0.574283004      -1.23334301     -0.606999993       72.1842346       1.57089067    
  0.427242011      -1.28995001     -0.606999993       72.1842346       1.57089067    
  0.427076995      -1.28898001     -0.303507000       72.1842346       1.57089067    
  0.573706985      -1.23136795     -0.303485990       119.423782       1.57085085    
  0.574636996      -1.23315501       0.00000000       119.423782       1.57085085    
  0.713741004      -1.15880203       0.00000000       119.423782       1.57085085    
  0.712854981      -1.15688002     -0.303496987       119.423782       1.57085085    
  0.713741004      -1.15880203       0.00000000       144.218201       1.57083738    
  0.841937006      -1.06636095       0.00000000       144.218201       1.57083738    
  0.841498017      -1.06573403     -0.303485990       144.218201       1.57083738    
  0.712854981      -1.15688002     -0.303496987       144.218201       1.57083738    
  0.841498017      -1.06573403     -0.303485990       129.114334       1.57083344    
  0.960639000     -0.962104976     -0.303470999       129.114334       1.57083344    
  0.964356005     -0.965893984     -0.606999993       129.114334       1.57083344    
  0.841796994      -1.06647599     -0.606999993       129.114334       1.57083344    
  0.841498017      -1.06573403     -0.303485990       111.958305       1.57084477    
  0.841796994      -1.06647599     -0.606999993       111.958305       1.57084477    
  0.713809013      -1.15876603     -0.606999993       111.958305       1.57084477    
  0.712854981      -1.15688002     -0.303496987       111.958305       1.57084477    
  0.841498017      -1.06573403     -0.303485990       166.513367       1.57082832    
  0.841937006      -1.06636095       0.00000000       166.513367       1.57082832    
  0.963932991     -0.966242015       0.00000000       166.513367       1.57082832    
  0.960639000     -0.962104976     -0.303470999       166.513367       1.57082832    
  0.963932991     -0.966242015       0.00000000       187.391708       1.57082224    
   1.06506598     -0.843514979       0.00000000       187.391708       1.57082224    
   1.06428695     -0.842682004     -0.303481996       187.391708       1.57082224    
  0.960639000     -0.962104976     -0.303470999       187.391708       1.57082224    
   1.06428695     -0.842682004     -0.303481996       159.333298       1.57081962    
   1.15591598     -0.714210987     -0.303485006       159.333298       1.57081962    
   1.15788805     -0.715448976     -0.606999993       159.333298       1.57081962    
   1.06537795     -0.843134999     -0.606999993       159.333298       1.57081962    
   1.06428695     -0.842682004     -0.303481996       145.545151       1.57082546    
   1.06537795     -0.843134999     -0.606999993       145.545151       1.57082546    
  0.964356005     -0.965893984     -0.606999993       145.545151       1.57082546    
  0.960639000     -0.962104976     -0.303470999       145.545151       1.57082546    
   1.06428695     -0.842682004     -0.303481996       205.042130       1.57081783    
   1.06506598     -0.843514979       0.00000000       205.042130       1.57081783    
   1.15792501     -0.715381980       0.00000000       205.042130       1.57081783    
   1.15591598     -0.714210987     -0.303485006       205.042130       1.57081783    
   1.15792501     -0.715381980       0.00000000       220.125046       1.57081461    
   1.23237598     -0.576093972       0.00000000       220.125046       1.57081461    
   1.23120904     -0.575251997     -0.303514004       220.125046       1.57081461    
   1.15591598     -0.714210987     -0.303485006       220.125046       1.57081461    
   1.23120904     -0.575251997     -0.303514004       180.809357       1.57081270    
   1.28844094     -0.428344995     -0.303512990       180.809357       1.57081270    
   1.28952503     -0.428642988     -0.606999993       180.809357       1.57081270    
   1.23252702     -0.575810015     -0.606999993       180.809357       1.57081270    
   1.23120904     -0.575251997     -0.303514004       171.214813       1.57081556    
   1.23252702     -0.575810015     -0.606999993       171.214813       1.57081556    
   1.15788805     -0.715448976     -0.606999993       171.214813       1.57081556    
   1.15591598     -0.714210987     -0.303485006       171.214813       1.57081556    
   1.23120904     -0.575251997     -0.303514004       232.140381       1.57081223    
   1.23237598     -0.576093972       0.00000000       232.140381       1.57081223    
   1.28947699     -0.428801000       0.00000000       232.140381       1.57081223    
   1.28844094     -0.428344995     -0.303512990       232.140381       1.57081223    
   1.28947699     -0.428801000       0.00000000       241.625275       1.57081079    
   1.33532202     -0.277671993       0.00000000       241.625275       1.57081079    
   1.33076501     -0.276203990     -0.303492010       241.625275       1.57081079    
   1.28844094     -0.428344995     -0.303512990       241.625275       1.57081079    
   1.33076501     -0.276203990     -0.303492010       192.358459       1.57080913    
   1.35229194     -0.119709998     -0.303514004       192.358459       1.57080913    
   1.35321999     -0.119608998     -0.606999993       192.358459       1.57080913    
   1.33549094     -0.277112991     -0.606999993       192.358459       1.57080913    
   1.33076501     -0.276203990     -0.303492010       187.808334       1.57081068    
   1.33549094     -0.277112991     -0.606999993       187.808334       1.57081068    
   1.28952503     -0.428642988     -0.606999993       187.808334       1.57081068    
   1.28844094     -0.428344995     -0.303512990       187.808334       1.57081068    
   1.33076501     -0.276203990     -0.303492010       247.852570       1.57081008    
   1.33532202     -0.277671993       0.00000000       247.852570       1.57081008    
   1.35319102     -0.119900003       0.00000000       247.852570       1.57081008    
   1.35229194     -0.119709998     -0.303514004       247.852570       1.57081008    
   1.35319102     -0.119900003       0.00000000       250.178925       1.57080972    
   1.36124396       3.81390005E-02   0.00000000       250.178925       1.57080972    
   1.35858905       3.79349999E-02 -0.303501010       250.178925       1.57080972    
   1.35229194     -0.119709998     -0.303514004       250.178925       1.57080972    
   1.35858905       3.79349999E-02 -0.303501010       193.719772       1.57080913    
   1.34464097      0.195331007     -0.303496003       193.719772       1.57080913    
   1.34573400      0.195616007     -0.606999993       193.719772       1.57080913    
   1.36126804       3.78950015E-02 -0.606999993       193.719772       1.57080913    
   1.35858905       3.79349999E-02 -0.303501010       194.401093       1.57080889    
   1.36126804       3.78950015E-02 -0.606999993       194.401093       1.57080889    
   1.35321999     -0.119608998     -0.606999993       194.401093       1.57080889    
   1.35229194     -0.119709998     -0.303514004       194.401093       1.57080889    
   1.35858905       3.79349999E-02 -0.303501010       249.167023       1.57080948    
   1.36124396       3.81390005E-02   0.00000000       249.167023       1.57080948    
   1.34575403      0.195406005       0.00000000       249.167023       1.57080948    
   1.34464097      0.195331007     -0.303496003       249.167023       1.57080948    
   1.34575403      0.195406005       0.00000000       244.649399       1.57081020    
   1.31339800      0.349945009       0.00000000       244.649399       1.57081020    
   1.31216300      0.349725991     -0.303487003       244.649399       1.57081020    
   1.34464097      0.195331007     -0.303496003       244.649399       1.57081020    
   1.31216300      0.349725991     -0.303487003       184.478333       1.57081163    
   1.26341999      0.500032008     -0.303494006       184.478333       1.57081163    
   1.26736605      0.501691997     -0.606999993       184.478333       1.57081163    
   1.31333196      0.350163996     -0.606999993       184.478333       1.57081163    
   1.31216300      0.349725991     -0.303487003       190.412430       1.57080996    
   1.31333196      0.350163996     -0.606999993       190.412430       1.57080996    
   1.34573400      0.195616007     -0.606999993       190.412430       1.57080996    
   1.34464097      0.195331007     -0.303496003       190.412430       1.57080996    
   1.31216300      0.349725991     -0.303487003       236.947922       1.57081139    
   1.31339800      0.349945009       0.00000000       236.947922       1.57081139    
   1.26751196      0.501209974       0.00000000       236.947922       1.57081139    
   1.26341999      0.500032008     -0.303494006       236.947922       1.57081139    
   1.26751196      0.501209974       0.00000000       226.422073       1.57081366    
   1.19658697      0.643051028       0.00000000       226.422073       1.57081366    
   1.19583094      0.642783999     -0.303505003       226.422073       1.57081366    
   1.26341999      0.500032008     -0.303494006       226.422073       1.57081366    
   1.19583094      0.642783999     -0.303505003       165.587448       1.57081711    
   1.11495602      0.778467000     -0.303483993       165.587448       1.57081711    
   1.11731696      0.779847026     -0.606999993       165.587448       1.57081711    
   1.19653296      0.643149972     -0.606999993       165.587448       1.57081711    
   1.19583094      0.642783999     -0.303505003       176.032944       1.57081401    
   1.19653296      0.643149972     -0.606999993       176.032944       1.57081401    
   1.26736605      0.501691997     -0.606999993       176.032944       1.57081401    
   1.26341999      0.500032008     -0.303494006       176.032944       1.57081401    
   1.19583094      0.642783999     -0.303505003       213.249222       1.57081628    
   1.19658697      0.643051028       0.00000000       213.249222       1.57081628    
   1.11705506      0.780165970       0.00000000       213.249222       1.57081628    
   1.11495602      0.778467000     -0.303483993       213.249222       1.57081628    
   1.11705506      0.780165970       0.00000000       196.607040       1.57081997    
   1.01674199      0.902397990       0.00000000       196.607040       1.57081997    
   1.01591504      0.901737988     -0.303478003       196.607040       1.57081997    
   1.11495602      0.778467000     -0.303483993       196.607040       1.57081997    
   1.01591504      0.901737988     -0.303478003       137.721878       1.57082891    
  0.904204011       1.01322901     -0.303456992       137.721878       1.57082891    
  0.905143023       1.01448905     -0.606999993       137.721878       1.57082891    
   1.01659799      0.902572989     -0.606999993       137.721878       1.57082891    
   1.01591504      0.901737988     -0.303478003       152.535217       1.57082224    
   1.01659799      0.902572989     -0.606999993       152.535217       1.57082224    
   1.11731696      0.779847026     -0.606999993       152.535217       1.57082224    
   1.11495602      0.778467000     -0.303483993       152.535217       1.57082224    
   1.01591504      0.901737988     -0.303478003       177.392059       1.57082522    
   1.01674199      0.902397990       0.00000000       177.392059       1.57082522    
  0.905318975       1.01434398       0.00000000       177.392059       1.57082522    
  0.904204011       1.01322901     -0.303456992       177.392059       1.57082522    
  0.905318975       1.01434398       0.00000000       155.737762       1.57083213    
  0.782918990       1.11479497       0.00000000       155.737762       1.57083213    
  0.780644000       1.11195600     -0.303485006       155.737762       1.57083213    
  0.904204011       1.01322901     -0.303456992       155.737762       1.57083213    
  0.780644000       1.11195600     -0.303485006       102.252617       1.57085228    
  0.645825028       1.19414902     -0.303514004       102.252617       1.57085228    
  0.646153986       1.19492805     -0.606999993       102.252617       1.57085228    
  0.782611012       1.11504900     -0.606999993       102.252617       1.57085228    
  0.780644000       1.11195600     -0.303485006       120.990982       1.57083833    
  0.782611012       1.11504900     -0.606999993       120.990982       1.57083833    
  0.905143023       1.01448905     -0.606999993       120.990982       1.57083833    
  0.904204011       1.01322901     -0.303456992       120.990982       1.57083833    
  0.780644000       1.11195600     -0.303485006       131.634399       1.57084298    
  0.782918990       1.11479497       0.00000000       131.634399       1.57084298    
  0.646345019       1.19482601       0.00000000       131.634399       1.57084298    
  0.645825028       1.19414902     -0.303514004       131.634399       1.57084298    
  0.646345019       1.19482601       0.00000000       106.559509       1.57086051    
  0.504974008       1.26637006       0.00000000       106.559509       1.57086051    
  0.503772974       1.26314998     -0.303521991       106.559509       1.57086051    
  0.645825028       1.19414902     -0.303514004       106.559509       1.57086051    
  0.503772974       1.26314998     -0.303521991       61.2327271       1.57091320    
  0.353130996       1.31116498     -0.303510994       61.2327271       1.57091320    
  0.353300005       1.31237996     -0.606999993       61.2327271       1.57091320    
  0.505183995       1.26630700     -0.606999993       61.2327271       1.57091320    
  0.503772974       1.26314998     -0.303521991       82.8195343       1.57087398    
  0.505183995       1.26630700     -0.606999993       82.8195343       1.57087398    
  0.646153986       1.19492805     -0.606999993       82.8195343       1.57087398    
  0.645825028       1.19414902     -0.303514004       82.8195343       1.57087398    
  0.503772974       1.26314998     -0.303521991       79.0470505       1.57089090    
  0.504974008       1.26637006       0.00000000       79.0470505       1.57089090    
  0.353493989       1.31232095       0.00000000       79.0470505       1.57089090    
  0.353130996       1.31116498     -0.303510994       79.0470505       1.57089090    
  0.353493989       1.31232095       0.00000000       51.1683922       1.57095587    
  0.199064001       1.34539402       0.00000000       51.1683922       1.57095587    
  0.198755994       1.34360003     -0.303496003       51.1683922       1.57095587    
  0.353130996       1.31116498     -0.303510994       51.1683922       1.57095587    
  0.198755994       1.34360003     -0.303496003       17.6097946       1.57129502    
   4.12769988E-02   1.35817802     -0.303508013       17.6097946       1.57129502    
   4.12410013E-02   1.36093795     -0.606999993       17.6097946       1.57129502    
  0.199025005       1.34539795     -0.606999993       17.6097946       1.57129502    
  0.198755994       1.34360003     -0.303496003       39.6989746       1.57099617    
  0.199025005       1.34539795     -0.606999993       39.6989746       1.57099617    
  0.353300005       1.31237996     -0.606999993       39.6989746       1.57099617    
  0.353130996       1.31116498     -0.303510994       39.6989746       1.57099617    
  0.198755994       1.34360003     -0.303496003       22.5302258       1.57118988    
  0.199064001       1.34539402       0.00000000       22.5302258       1.57118988    
   4.17769998E-02   1.36088502       0.00000000       22.5302258       1.57118988    
   4.12769988E-02   1.35817802     -0.303508013       22.5302258       1.57118988    
   4.17769998E-02   1.36088502       0.00000000       6.66164637      -1.57223094    
 -0.116410002       1.35353506       0.00000000       6.66164637      -1.57223094    
 -0.116471998       1.35271096     -0.303496987       6.66164637      -1.57223094    
   4.12769988E-02   1.35817802     -0.303508013       6.66164637      -1.57223094    
 -0.116471998       1.35271096     -0.303496987       27.0986900      -1.57118070    
 -0.273027003       1.33229196     -0.303496003       27.0986900      -1.57118070    
 -0.273876995       1.33647299     -0.606999993       27.0986900      -1.57118070    
 -0.116722003       1.35350394     -0.606999993       27.0986900      -1.57118070    
 -0.116471998       1.35271096     -0.303496987       5.18432426      -1.57264292    
 -0.116722003       1.35350394     -0.606999993       5.18432426      -1.57264292    
   4.12410013E-02   1.36093795     -0.606999993       5.18432426      -1.57264292    
   4.12769988E-02   1.35817802     -0.303508013       5.18432426      -1.57264292    
 -0.116471998       1.35271096     -0.303496987       35.2196159      -1.57108808    
 -0.116410002       1.35353506       0.00000000       35.2196159      -1.57108808    
 -0.274069011       1.33641505       0.00000000       35.2196159      -1.57108808    
 -0.273027003       1.33229196     -0.303496003       35.2196159      -1.57108808    
 -0.274069011       1.33641505       0.00000000       64.2533417      -1.57096660    
 -0.425588995       1.29045200       0.00000000       64.2533417      -1.57096660    
 -0.425258011       1.28953803     -0.303507000       64.2533417      -1.57096660    
 -0.273027003       1.33229196     -0.303496003       64.2533417      -1.57096660    
 -0.425258011       1.28953803     -0.303507000       71.0375595      -1.57096446    
 -0.572302997       1.23206902     -0.303485990       71.0375595      -1.57096446    
 -0.573064029       1.23399496     -0.606999993       71.0375595      -1.57096446    
 -0.425651014       1.29043305     -0.606999993       71.0375595      -1.57096446    
 -0.425258011       1.28953803     -0.303507000       49.8937759      -1.57102048    
 -0.425651014       1.29043305     -0.606999993       49.8937759      -1.57102048    
 -0.273876995       1.33647299     -0.606999993       49.8937759      -1.57102048    
 -0.273027003       1.33229196     -0.303496003       49.8937759      -1.57102048    
 -0.425258011       1.28953803     -0.303507000       91.6609802      -1.57092309    
 -0.425588995       1.29045200       0.00000000       91.6609802      -1.57092309    
 -0.573195994       1.23392498       0.00000000       91.6609802      -1.57092309    
 -0.572302997       1.23206902     -0.303485990       91.6609802      -1.57092309    
 -0.573195994       1.23392498       0.00000000       118.280899      -1.57089996    
 -0.712655008       1.15938199       0.00000000       118.280899      -1.57089996    
 -0.711889029       1.15749002     -0.303496003       118.280899      -1.57089996    
 -0.572302997       1.23206902     -0.303485990       118.280899      -1.57089996    
 -0.711889029       1.15749002     -0.303496003       111.060448      -1.57091630    
 -0.840825975       1.06629205     -0.303485990       111.060448      -1.57091630    
 -0.841368973       1.06682706     -0.606999993       111.060448      -1.57091630    
 -0.712980986       1.15920806     -0.606999993       111.060448      -1.57091630    
 -0.711889029       1.15749002     -0.303496003       91.6163330      -1.57093453    
 -0.712980986       1.15920806     -0.606999993       91.6163330      -1.57093453    
 -0.573064029       1.23399496     -0.606999993       91.6163330      -1.57093453    
 -0.572302997       1.23206902     -0.303485990       91.6163330      -1.57093453    
 -0.711889029       1.15749002     -0.303496003       143.271133      -1.57088602    
 -0.712655008       1.15938199       0.00000000       143.271133      -1.57088602    
 -0.841165006       1.06699395       0.00000000       143.271133      -1.57088602    
 -0.840825975       1.06629205     -0.303485990       143.271133      -1.57088602    
 -0.841165006       1.06699395       0.00000000       165.982300      -1.57087708    
 -0.963320017      0.966744006       0.00000000       165.982300      -1.57087708    
 -0.960084975      0.962615013     -0.303470999       165.982300      -1.57087708    
 -0.840825975       1.06629205     -0.303485990       165.982300      -1.57087708    
 -0.960084975      0.962615013     -0.303470999       144.955536      -1.57089651    
  -1.06383705      0.843237996     -0.303481996       144.955536      -1.57089651    
  -1.06481802      0.843816996     -0.606999993       144.955536      -1.57089651    
 -0.963873982      0.966289997     -0.606999993       144.955536      -1.57089651    
 -0.960084975      0.962615013     -0.303470999       128.488129      -1.57090497    
 -0.963873982      0.966289997     -0.606999993       128.488129      -1.57090497    
 -0.841368973       1.06682706     -0.606999993       128.488129      -1.57090497    
 -0.840825975       1.06629205     -0.303485990       128.488129      -1.57090497    
 -0.960084975      0.962615013     -0.303470999       186.903885      -1.57087076    
 -0.963320017      0.966744006       0.00000000       186.903885      -1.57087076    
  -1.06464398      0.844029009       0.00000000       186.903885      -1.57087076    
  -1.06383705      0.843237996     -0.303481996       186.903885      -1.57087076    
  -1.06464398      0.844029009       0.00000000       204.417862      -1.57086647    
  -1.15769398      0.715813994       0.00000000       204.417862      -1.57086647    
  -1.15564799      0.714680016     -0.303483993       204.417862      -1.57086647    
  -1.06383705      0.843237996     -0.303481996       204.417862      -1.57086647    
  -1.15564799      0.714680016     -0.303483993       170.519135      -1.57088685    
  -1.23108304      0.575536013     -0.303514004       170.519135      -1.57088685    
  -1.23232996      0.576179981     -0.606999993       170.519135      -1.57088685    
  -1.15756094      0.716063023     -0.606999993       170.519135      -1.57088685    
  -1.15564799      0.714680016     -0.303483993       158.644409      -1.57089102    
  -1.15756094      0.716063023     -0.606999993       158.644409      -1.57089102    
  -1.06481802      0.843816996     -0.606999993       158.644409      -1.57089102    
  -1.06383705      0.843237996     -0.303481996       158.644409      -1.57089102    
  -1.15564799      0.714680016     -0.303483993       219.514420      -1.57086337    
  -1.15769398      0.715813994       0.00000000       219.514420      -1.57086337    
  -1.23224795      0.576331973       0.00000000       219.514420      -1.57086337    
  -1.23108304      0.575536013     -0.303514004       219.514420      -1.57086337    
  -1.23224795      0.576331973       0.00000000       231.425491      -1.57086122    
  -1.28948605      0.428772002       0.00000000       231.425491      -1.57086122    
  -1.28842103      0.428404987     -0.303512990       231.425491      -1.57086122    
  -1.23108304      0.575536013     -0.303514004       231.425491      -1.57086122    
  -1.28842103      0.428404987     -0.303512990       186.835281      -1.57088172    
  -1.33082402      0.275959998     -0.303492010       186.835281      -1.57088172    
  -1.33550000      0.277083993     -0.606999993       186.835281      -1.57088172    