 VARIABLES="X" "Y" "Z" "abs(p) (Pa)" "angle(p) (rad)"
ZONE N=   2720,E =    2069, F=FEPOINT, ET=QUADRILATERAL
 -0.767116010      -1.12776399       0.00000000       502.918488       1.66178977    
 -0.769354999      -1.12002099     -0.303523988       502.918488       1.66178977    
 -0.896136999      -1.02028203     -0.303463012       502.918488       1.66178977    
 -0.894908011      -1.02288902       0.00000000       502.918488       1.66178977    
 -0.767116010      -1.12776399       0.00000000       543.822815       1.66153085    
 -0.630888999      -1.20308697       0.00000000       543.822815       1.66153085    
 -0.635528028      -1.19958198     -0.303541005       543.822815       1.66153085    
 -0.769354999      -1.12002099     -0.303523988       543.822815       1.66153085    
 -0.635528028      -1.19958198     -0.303541005       544.621887       1.67711115    
 -0.495362997      -1.26606500     -0.303519011       544.621887       1.67711115    
 -0.499298006      -1.26809204     -0.606999993       544.621887       1.67711115    
 -0.640147984      -1.19813800     -0.606998026       544.621887       1.67711115    
 -0.635528028      -1.19958198     -0.303541005       511.790192       1.67741621    
 -0.640147984      -1.19813800     -0.606998026       511.790192       1.67741621    
 -0.777105987      -1.11956596     -0.606999993       511.790192       1.67741621    
 -0.769354999      -1.12002099     -0.303523988       511.790192       1.67741621    
 -0.635528028      -1.19958198     -0.303541005       574.611816       1.66163433    
 -0.630888999      -1.20308697       0.00000000       574.611816       1.66163433    
 -0.494486004      -1.26955199       0.00000000       574.611816       1.66163433    
 -0.495362997      -1.26606500     -0.303519011       574.611816       1.66163433    
 -0.494486004      -1.26955199       0.00000000       600.530640       1.66140985    
 -0.346311986      -1.31449997       0.00000000       600.530640       1.66140985    
 -0.346753001      -1.31307304     -0.303510010       600.530640       1.66140985    
 -0.495362997      -1.26606500     -0.303519011       600.530640       1.66140985    
 -0.346753001      -1.31307304     -0.303510010       587.696777       1.67647076    
 -0.193608001      -1.34425998     -0.303494990       587.696777       1.67647076    
 -0.195028007      -1.34579206     -0.606999993       587.696777       1.67647076    
 -0.348751009      -1.31376004     -0.606999993       587.696777       1.67647076    
 -0.346753001      -1.31307304     -0.303510010       569.504211       1.67684829    
 -0.348751009      -1.31376004     -0.606999993       569.504211       1.67684829    
 -0.499298006      -1.26809204     -0.606999993       569.504211       1.67684829    
 -0.495362997      -1.26606500     -0.303519011       569.504211       1.67684829    
 -0.346753001      -1.31307304     -0.303510010       619.723389       1.66106367    
 -0.346311986      -1.31449997       0.00000000       619.723389       1.66106367    
 -0.193381995      -1.34595394       0.00000000       619.723389       1.66106367    
 -0.193608001      -1.34425998     -0.303494990       619.723389       1.66106367    
 -0.193381995      -1.34595394       0.00000000       633.768616       1.66052532    
  -3.75179984E-02  -1.36130500       0.00000000       633.768616       1.66052532    
  -3.73950005E-02  -1.35827899     -0.303512007       633.768616       1.66052532    
 -0.193608001      -1.34425998     -0.303494990       633.768616       1.66052532    
  -3.73950005E-02  -1.35827899     -0.303512007       599.092163       1.67622209    
  0.119547002      -1.35239303     -0.303498000       599.092163       1.67622209    
  0.119135000      -1.35326600     -0.606999993       599.092163       1.67622209    
  -3.82840000E-02  -1.36122894     -0.606998980       599.092163       1.67622209    
  -3.73950005E-02  -1.35827899     -0.303512007       598.193542       1.67627800    
  -3.82840000E-02  -1.36122894     -0.606998980       598.193542       1.67627800    
 -0.195028007      -1.34579206     -0.606999993       598.193542       1.67627800    
 -0.193608001      -1.34425998     -0.303494990       598.193542       1.67627800    
  -3.73950005E-02  -1.35827899     -0.303512007       636.259766       1.66030335    
  -3.75179984E-02  -1.36130500       0.00000000       636.259766       1.66030335    
  0.119788997      -1.35320199       0.00000000       636.259766       1.66030335    
  0.119547002      -1.35239303     -0.303498000       636.259766       1.66030335    
  0.119788997      -1.35320199       0.00000000       630.582520       1.66018236    
  0.276576012      -1.33565402       0.00000000       630.582520       1.66018236    
  0.275435001      -1.33191597     -0.303496003       630.582520       1.66018236    
  0.119547002      -1.35239303     -0.303498000       630.582520       1.66018236    
  0.275435001      -1.33191597     -0.303496003       591.738159       1.67454469    
  0.427076995      -1.28898001     -0.303507000       591.738159       1.67454469    
  0.427242011      -1.28995001     -0.606999993       591.738159       1.67454469    
  0.275831014      -1.33588004     -0.606999993       591.738159       1.67454469    
  0.275435001      -1.33191597     -0.303496003       604.595276       1.67476726    
  0.275831014      -1.33588004     -0.606999993       604.595276       1.67476726    
  0.119135000      -1.35326600     -0.606999993       604.595276       1.67476726    
  0.119547002      -1.35239303     -0.303498000       604.595276       1.67476726    
  0.275435001      -1.33191597     -0.303496003       616.891846       1.66005099    
  0.276576012      -1.33565402       0.00000000       616.891846       1.66005099    
  0.427509993      -1.28986895       0.00000000       616.891846       1.66005099    
  0.427076995      -1.28898001     -0.303507000       616.891846       1.66005099    
  0.427509993      -1.28986895       0.00000000       594.489380       1.65973103    
  0.574636996      -1.23315501       0.00000000       594.489380       1.65973103    
  0.573706985      -1.23136795     -0.303485990       594.489380       1.65973103    
  0.427076995      -1.28898001     -0.303507000       594.489380       1.65973103    
  0.573706985      -1.23136795     -0.303485990       541.469360       1.67406547    
  0.712854981      -1.15688002     -0.303496987       541.469360       1.67406547    
  0.713809013      -1.15876603     -0.606999993       541.469360       1.67406547    
  0.574283004      -1.23334301     -0.606999993       541.469360       1.67406547    
  0.573706985      -1.23136795     -0.303485990       570.895325       1.67412210    
  0.574283004      -1.23334301     -0.606999993       570.895325       1.67412210    
  0.427242011      -1.28995001     -0.606999993       570.895325       1.67412210    
  0.427076995      -1.28898001     -0.303507000       570.895325       1.67412210    
  0.573706985      -1.23136795     -0.303485990       563.108276       1.65965748    
  0.574636996      -1.23315501       0.00000000       563.108276       1.65965748    
  0.713741004      -1.15880203       0.00000000       563.108276       1.65965748    
  0.712854981      -1.15688002     -0.303496987       563.108276       1.65965748    
  0.713741004      -1.15880203       0.00000000       526.185852       1.65935719    
  0.841937006      -1.06636095       0.00000000       526.185852       1.65935719    
  0.841498017      -1.06573403     -0.303485990       526.185852       1.65935719    
  0.712854981      -1.15688002     -0.303496987       526.185852       1.65935719    
  0.841498017      -1.06573403     -0.303485990       463.026581       1.67356741    
  0.960639000     -0.962104976     -0.303470999       463.026581       1.67356741    
  0.964356005     -0.965893984     -0.606999993       463.026581       1.67356741    
  0.841796994      -1.06647599     -0.606999993       463.026581       1.67356741    
  0.841498017      -1.06573403     -0.303485990       505.930511       1.67375076    
  0.841796994      -1.06647599     -0.606999993       505.930511       1.67375076    
  0.713809013      -1.15876603     -0.606999993       505.930511       1.67375076    
  0.712854981      -1.15688002     -0.303496987       505.930511       1.67375076    
  0.841498017      -1.06573403     -0.303485990       489.301117       1.65842545    
  0.841937006      -1.06636095       0.00000000       489.301117       1.65842545    
  0.963932991     -0.966242015       0.00000000       489.301117       1.65842545    
  0.960639000     -0.962104976     -0.303470999       489.301117       1.65842545    
  0.963932991     -0.966242015       0.00000000       440.391235       1.65806758    
   1.06506598     -0.843514979       0.00000000       440.391235       1.65806758    
   1.06428695     -0.842682004     -0.303481996       440.391235       1.65806758    
  0.960639000     -0.962104976     -0.303470999       440.391235       1.65806758    
   1.06428695     -0.842682004     -0.303481996       373.711273       1.67010427    
   1.15591598     -0.714210987     -0.303485006       373.711273       1.67010427    
   1.15788805     -0.715448976     -0.606999993       373.711273       1.67010427    
   1.06537795     -0.843134999     -0.606999993       373.711273       1.67010427    
   1.06428695     -0.842682004     -0.303481996       415.761444       1.67320716    
   1.06537795     -0.843134999     -0.606999993       415.761444       1.67320716    
  0.964356005     -0.965893984     -0.606999993       415.761444       1.67320716    
  0.960639000     -0.962104976     -0.303470999       415.761444       1.67320716    
   1.06428695     -0.842682004     -0.303481996       382.634186       1.65761340    
   1.06506598     -0.843514979       0.00000000       382.634186       1.65761340    
   1.15792501     -0.715381980       0.00000000       382.634186       1.65761340    
   1.15591598     -0.714210987     -0.303485006       382.634186       1.65761340    
   1.15792501     -0.715381980       0.00000000       320.977966       1.65730178    
   1.23237598     -0.576093972       0.00000000       320.977966       1.65730178    
   1.23120904     -0.575251997     -0.303514004       320.977966       1.65730178    
   1.15591598     -0.714210987     -0.303485006       320.977966       1.65730178    
   1.23120904     -0.575251997     -0.303514004       252.086670       1.66775000    
   1.28844094     -0.428344995     -0.303512990       252.086670       1.66775000    
   1.28952503     -0.428642988     -0.606999993       252.086670       1.66775000    
   1.23252702     -0.575810015     -0.606999993       252.086670       1.66775000    
   1.23120904     -0.575251997     -0.303514004       314.893524       1.66924226    
   1.23252702     -0.575810015     -0.606999993       314.893524       1.66924226    
   1.15788805     -0.715448976     -0.606999993       314.893524       1.66924226    
   1.15591598     -0.714210987     -0.303485006       314.893524       1.66924226    
   1.23120904     -0.575251997     -0.303514004       268.898590       1.65372241    
   1.23237598     -0.576093972       0.00000000       268.898590       1.65372241    
   1.28947699     -0.428801000       0.00000000       268.898590       1.65372241    
   1.28844094     -0.428344995     -0.303512990       268.898590       1.65372241    
   1.28947699     -0.428801000       0.00000000       190.475464       1.65362144    
   1.33532202     -0.277671993       0.00000000       190.475464       1.65362144    
   1.33076501     -0.276203990     -0.303492010       190.475464       1.65362144    
   1.28844094     -0.428344995     -0.303512990       190.475464       1.65362144    
   1.33076501     -0.276203990     -0.303492010       123.060387       1.65728438    
   1.35229194     -0.119709998     -0.303514004       123.060387       1.65728438    
   1.35321999     -0.119608998     -0.606999993       123.060387       1.65728438    
   1.33549094     -0.277112991     -0.606999993       123.060387       1.65728438    
   1.33076501     -0.276203990     -0.303492010       187.154449       1.66462588    
   1.33549094     -0.277112991     -0.606999993       187.154449       1.66462588    
   1.28952503     -0.428642988     -0.606999993       187.154449       1.66462588    
   1.28844094     -0.428344995     -0.303512990       187.154449       1.66462588    
   1.33076501     -0.276203990     -0.303492010       107.208168       1.65638292    
   1.33532202     -0.277671993       0.00000000       107.208168       1.65638292    
   1.35319102     -0.119900003       0.00000000       107.208168       1.65638292    
   1.35229194     -0.119709998     -0.303514004       107.208168       1.65638292    
   1.35319102     -0.119900003       0.00000000       33.1726265       1.64953220    
   1.36124396       3.81390005E-02   0.00000000       33.1726265       1.64953220    
   1.35858905       3.79349999E-02 -0.303501010       33.1726265       1.64953220    
   1.35229194     -0.119709998     -0.303514004       33.1726265       1.64953220    
   1.35858905       3.79349999E-02 -0.303501010       27.4378357      -1.42041945    
   1.34464097      0.195331007     -0.303496003       27.4378357      -1.42041945    
   1.34573400      0.195616007     -0.606999993       27.4378357      -1.42041945    
   1.36126804       3.78950015E-02 -0.606999993       27.4378357      -1.42041945    
   1.35858905       3.79349999E-02 -0.303501010       39.9358673       1.64531898    
   1.36126804       3.78950015E-02 -0.606999993       39.9358673       1.64531898    
   1.35321999     -0.119608998     -0.606999993       39.9358673       1.64531898    
   1.35229194     -0.119709998     -0.303514004       39.9358673       1.64531898    
   1.35858905       3.79349999E-02 -0.303501010       36.5340462      -1.46768093    
   1.36124396       3.81390005E-02   0.00000000       36.5340462      -1.46768093    
   1.34575403      0.195406005       0.00000000       36.5340462      -1.46768093    
   1.34464097      0.195331007     -0.303496003       36.5340462      -1.46768093    
   1.34575403      0.195406005       0.00000000       108.917984      -1.47746456    
   1.31339800      0.349945009       0.00000000       108.917984      -1.47746456    
   1.31216300      0.349725991     -0.303487003       108.917984      -1.47746456    
   1.34464097      0.195331007     -0.303496003       108.917984      -1.47746456    
   1.31216300      0.349725991     -0.303487003       170.941635      -1.46235669    
   1.26341999      0.500032008     -0.303494006       170.941635      -1.46235669    
   1.26736605      0.501691997     -0.606999993       170.941635      -1.46235669    
   1.31333196      0.350163996     -0.606999993       170.941635      -1.46235669    
   1.31216300      0.349725991     -0.303487003       95.7652817      -1.45348597    
   1.31333196      0.350163996     -0.606999993       95.7652817      -1.45348597    
   1.34573400      0.195616007     -0.606999993       95.7652817      -1.45348597    
   1.34464097      0.195331007     -0.303496003       95.7652817      -1.45348597    
   1.31216300      0.349725991     -0.303487003       180.055939      -1.47935700    
   1.31339800      0.349945009       0.00000000       180.055939      -1.47935700    
   1.26751196      0.501209974       0.00000000       180.055939      -1.47935700    
   1.26341999      0.500032008     -0.303494006       180.055939      -1.47935700    
   1.26751196      0.501209974       0.00000000       249.824829      -1.48125768    
   1.19658697      0.643051028       0.00000000       249.824829      -1.48125768    
   1.19583094      0.642783999     -0.303505003       249.824829      -1.48125768    
   1.26341999      0.500032008     -0.303494006       249.824829      -1.48125768    
   1.19583094      0.642783999     -0.303505003       299.206482      -1.46531737    
   1.11495602      0.778467000     -0.303483993       299.206482      -1.46531737    
   1.11731696      0.779847026     -0.606999993       299.206482      -1.46531737    
   1.19653296      0.643149972     -0.606999993       299.206482      -1.46531737    
   1.19583094      0.642783999     -0.303505003       234.362228      -1.46370256    
   1.19653296      0.643149972     -0.606999993       234.362228      -1.46370256    
   1.26736605      0.501691997     -0.606999993       234.362228      -1.46370256    
   1.26341999      0.500032008     -0.303494006       234.362228      -1.46370256    
   1.19583094      0.642783999     -0.303505003       315.053345      -1.48164248    
   1.19658697      0.643051028       0.00000000       315.053345      -1.48164248    
   1.11705506      0.780165970       0.00000000       315.053345      -1.48164248    
   1.11495602      0.778467000     -0.303483993       315.053345      -1.48164248    
   1.11705506      0.780165970       0.00000000       373.621826      -1.48183310    
   1.01674199      0.902397990       0.00000000       373.621826      -1.48183310    
   1.01591504      0.901737988     -0.303478003       373.621826      -1.48183310    
   1.11495602      0.778467000     -0.303483993       373.621826      -1.48183310    
   1.01591504      0.901737988     -0.303478003       409.763916      -1.46656477    
  0.904204011       1.01322901     -0.303456992       409.763916      -1.46656477    
  0.905143023       1.01448905     -0.606999993       409.763916      -1.46656477    
   1.01659799      0.902572989     -0.606999993       409.763916      -1.46656477    
   1.01591504      0.901737988     -0.303478003       358.052765      -1.46633291    
   1.01659799      0.902572989     -0.606999993       358.052765      -1.46633291    
   1.11731696      0.779847026     -0.606999993       358.052765      -1.46633291    
   1.11495602      0.778467000     -0.303483993       358.052765      -1.46633291    
   1.01591504      0.901737988     -0.303478003       428.005127      -1.48202944    
   1.01674199      0.902397990       0.00000000       428.005127      -1.48202944    
  0.905318975       1.01434398       0.00000000       428.005127      -1.48202944    
  0.904204011       1.01322901     -0.303456992       428.005127      -1.48202944    
  0.905318975       1.01434398       0.00000000       479.344849      -1.48246133    
  0.782918990       1.11479497       0.00000000       479.344849      -1.48246133    
  0.780644000       1.11195600     -0.303485006       479.344849      -1.48246133    
  0.904204011       1.01322901     -0.303456992       479.344849      -1.48246133    
  0.780644000       1.11195600     -0.303485006       493.920135      -1.46658492    
  0.645825028       1.19414902     -0.303514004       493.920135      -1.46658492    
  0.646153986       1.19492805     -0.606999993       493.920135      -1.46658492    
  0.782611012       1.11504900     -0.606999993       493.920135      -1.46658492    
  0.780644000       1.11195600     -0.303485006       455.314270      -1.46650684    
  0.782611012       1.11504900     -0.606999993       455.314270      -1.46650684    
  0.905143023       1.01448905     -0.606999993       455.314270      -1.46650684    
  0.904204011       1.01322901     -0.303456992       455.314270      -1.46650684    
  0.780644000       1.11195600     -0.303485006       520.878723      -1.48249125    
  0.782918990       1.11479497       0.00000000       520.878723      -1.48249125    
  0.646345019       1.19482601       0.00000000       520.878723      -1.48249125    
  0.645825028       1.19414902     -0.303514004       520.878723      -1.48249125    
  0.646345019       1.19482601       0.00000000       552.310486      -1.48207259    
  0.504974008       1.26637006       0.00000000       552.310486      -1.48207259    
  0.503772974       1.26314998     -0.303521991       552.310486      -1.48207259    
  0.645825028       1.19414902     -0.303514004       552.310486      -1.48207259    
  0.503772974       1.26314998     -0.303521991       553.337341      -1.46693194    
  0.353130996       1.31116498     -0.303510994       553.337341      -1.46693194    
  0.353300005       1.31237996     -0.606999993       553.337341      -1.46693194    
  0.505183995       1.26630700     -0.606999993       553.337341      -1.46693194    
  0.503772974       1.26314998     -0.303521991       527.357056      -1.46670067    
  0.505183995       1.26630700     -0.606999993       527.357056      -1.46670067    
  0.646153986       1.19492805     -0.606999993       527.357056      -1.46670067    
  0.645825028       1.19414902     -0.303514004       527.357056      -1.46670067    
  0.503772974       1.26314998     -0.303521991       578.082092      -1.48207664    
  0.504974008       1.26637006       0.00000000       578.082092      -1.48207664    
  0.353493989       1.31232095       0.00000000       578.082092      -1.48207664    
  0.353130996       1.31116498     -0.303510994       578.082092      -1.48207664    
  0.353493989       1.31232095       0.00000000       596.838501      -1.48223364    
  0.199064001       1.34539402       0.00000000       596.838501      -1.48223364    
  0.198755994       1.34360003     -0.303496003       596.838501      -1.48223364    
  0.353130996       1.31116498     -0.303510994       596.838501      -1.48223364    
  0.198755994       1.34360003     -0.303496003       577.397705      -1.46664667    
   4.12769988E-02   1.35817802     -0.303508013       577.397705      -1.46664667    
   4.12410013E-02   1.36093795     -0.606999993       577.397705      -1.46664667    
  0.199025005       1.34539795     -0.606999993       577.397705      -1.46664667    
  0.198755994       1.34360003     -0.303496003       571.049072      -1.46712041    
  0.199025005       1.34539795     -0.606999993       571.049072      -1.46712041    
  0.353300005       1.31237996     -0.606999993       571.049072      -1.46712041    
  0.353130996       1.31116498     -0.303510994       571.049072      -1.46712041    
  0.198755994       1.34360003     -0.303496003       607.319336      -1.48229682    
  0.199064001       1.34539402       0.00000000       607.319336      -1.48229682    
   4.17769998E-02   1.36088502       0.00000000       607.319336      -1.48229682    
   4.12769988E-02   1.35817802     -0.303508013       607.319336      -1.48229682    
   4.17769998E-02   1.36088502       0.00000000       612.669678      -1.48277199    
 -0.116410002       1.35353506       0.00000000       612.669678      -1.48277199    
 -0.116471998       1.35271096     -0.303496987       612.669678      -1.48277199    
   4.12769988E-02   1.35817802     -0.303508013       612.669678      -1.48277199    
 -0.116471998       1.35271096     -0.303496987       584.808899      -1.46828365    
 -0.273027003       1.33229196     -0.303496003       584.808899      -1.46828365    
 -0.273876995       1.33647299     -0.606999993       584.808899      -1.46828365    
 -0.116722003       1.35350394     -0.606999993       584.808899      -1.46828365    
 -0.116471998       1.35271096     -0.303496987       579.393066      -1.46683991    
 -0.116722003       1.35350394     -0.606999993       579.393066      -1.46683991    
   4.12410013E-02   1.36093795     -0.606999993       579.393066      -1.46683991    
   4.12769988E-02   1.35817802     -0.303508013       579.393066      -1.46683991    
 -0.116471998       1.35271096     -0.303496987       606.848450      -1.48284805    
 -0.116410002       1.35353506       0.00000000       606.848450      -1.48284805    
 -0.274069011       1.33641505       0.00000000       606.848450      -1.48284805    
 -0.273027003       1.33229196     -0.303496003       606.848450      -1.48284805    
 -0.274069011       1.33641505       0.00000000       593.013184      -1.48301744    
 -0.425588995       1.29045200       0.00000000       593.013184      -1.48301744    
 -0.425258011       1.28953803     -0.303507000       593.013184      -1.48301744    
 -0.273027003       1.33229196     -0.303496003       593.013184      -1.48301744    
 -0.425258011       1.28953803     -0.303507000       551.142822      -1.46912849    
 -0.572302997       1.23206902     -0.303485990       551.142822      -1.46912849    
 -0.573064029       1.23399496     -0.606999993       551.142822      -1.46912849    
 -0.425651014       1.29043305     -0.606999993       551.142822      -1.46912849    
 -0.425258011       1.28953803     -0.303507000       571.862000      -1.46855617    
 -0.425651014       1.29043305     -0.606999993       571.862000      -1.46855617    
 -0.273876995       1.33647299     -0.606999993       571.862000      -1.46855617    
 -0.273027003       1.33229196     -0.303496003       571.862000      -1.46855617    
 -0.425258011       1.28953803     -0.303507000       569.684387      -1.48336899    
 -0.425588995       1.29045200       0.00000000       569.684387      -1.48336899    
 -0.573195994       1.23392498       0.00000000       569.684387      -1.48336899    
 -0.572302997       1.23206902     -0.303485990       569.684387      -1.48336899    
 -0.573195994       1.23392498       0.00000000       538.130310      -1.48357475    
 -0.712655008       1.15938199       0.00000000       538.130310      -1.48357475    
 -0.711889029       1.15749002     -0.303496003       538.130310      -1.48357475    
 -0.572302997       1.23206902     -0.303485990       538.130310      -1.48357475    
 -0.711889029       1.15749002     -0.303496003       488.071899      -1.47015607    
 -0.840825975       1.06629205     -0.303485990       488.071899      -1.47015607    
 -0.841368973       1.06682706     -0.606999993       488.071899      -1.47015607    
 -0.712980986       1.15920806     -0.606999993       488.071899      -1.47015607    
 -0.711889029       1.15749002     -0.303496003       522.734863      -1.46947551    
 -0.712980986       1.15920806     -0.606999993       522.734863      -1.46947551    
 -0.573064029       1.23399496     -0.606999993       522.734863      -1.46947551    
 -0.572302997       1.23206902     -0.303485990       522.734863      -1.46947551    
 -0.711889029       1.15749002     -0.303496003       500.084290      -1.48403776    
 -0.712655008       1.15938199       0.00000000       500.084290      -1.48403776    
 -0.841165006       1.06699395       0.00000000       500.084290      -1.48403776    
 -0.840825975       1.06629205     -0.303485990       500.084290      -1.48403776    
 -0.841165006       1.06699395       0.00000000       455.471985      -1.48446286    
 -0.963320017      0.966744006       0.00000000       455.471985      -1.48446286    
 -0.960084975      0.962615013     -0.303470999       455.471985      -1.48446286    
 -0.840825975       1.06629205     -0.303485990       455.471985      -1.48446286    
 -0.960084975      0.962615013     -0.303470999       397.023468      -1.47118044    
  -1.06383705      0.843237996     -0.303481996       397.023468      -1.47118044    
  -1.06481802      0.843816996     -0.606999993       397.023468      -1.47118044    
 -0.963873982      0.966289997     -0.606999993       397.023468      -1.47118044    
 -0.960084975      0.962615013     -0.303470999       444.944794      -1.47060573    
 -0.963873982      0.966289997     -0.606999993       444.944794      -1.47060573    
 -0.841368973       1.06682706     -0.606999993       444.944794      -1.47060573    
 -0.840825975       1.06629205     -0.303485990       444.944794      -1.47060573    
 -0.960084975      0.962615013     -0.303470999       406.883545      -1.48509324    
 -0.963320017      0.966744006       0.00000000       406.883545      -1.48509324    
  -1.06464398      0.844029009       0.00000000       406.883545      -1.48509324    
  -1.06383705      0.843237996     -0.303481996       406.883545      -1.48509324    
  -1.06464398      0.844029009       0.00000000       350.252106      -1.48597538    
  -1.15769398      0.715813994       0.00000000       350.252106      -1.48597538    
  -1.15564799      0.714680016     -0.303483993       350.252106      -1.48597538    
  -1.06383705      0.843237996     -0.303481996       350.252106      -1.48597538    
  -1.15564799      0.714680016     -0.303483993       286.201508      -1.47415066    
  -1.23108304      0.575536013     -0.303514004       286.201508      -1.47415066    
  -1.23232996      0.576179981     -0.606999993       286.201508      -1.47415066    
  -1.15756094      0.716063023     -0.606999993       286.201508      -1.47415066    
  -1.15564799      0.714680016     -0.303483993       343.880554      -1.47257090    
  -1.15756094      0.716063023     -0.606999993       343.880554      -1.47257090    
  -1.06481802      0.843816996     -0.606999993       343.880554      -1.47257090    
  -1.06383705      0.843237996     -0.303481996       343.880554      -1.47257090    
  -1.15564799      0.714680016     -0.303483993       289.803375      -1.48695672    
  -1.15769398      0.715813994       0.00000000       289.803375      -1.48695672    
  -1.23224795      0.576331973       0.00000000       289.803375      -1.48695672    
  -1.23108304      0.575536013     -0.303514004       289.803375      -1.48695672    
  -1.23224795      0.576331973       0.00000000       225.082184      -1.48868465    
  -1.28948605      0.428772002       0.00000000       225.082184      -1.48868465    
  -1.28842103      0.428404987     -0.303512990       225.082184      -1.48868465    
  -1.23108304      0.575536013     -0.303514004       225.082184      -1.48868465    
  -1.28842103      0.428404987     -0.303512990       157.781998      -1.48042655    
  -1.33082402      0.275959998     -0.303492010       157.781998      -1.48042655    
  -1.33550000      0.277083993     -0.606999993       157.781998      -1.48042655    