 VARIABLES="X" "Y" "Z" "abs(p) (Pa)" "angle(p) (rad)"
ZONE N=   2720,E =    2069, F=FEPOINT, ET=QUADRILATERAL
 -0.767116010      -1.12776399       0.00000000       29341.8340       1.60531366    
 -0.769354999      -1.12002099     -0.303523988       29341.8340       1.60531366    
 -0.896136999      -1.02028203     -0.303463012       29341.8340       1.60531366    
 -0.894908011      -1.02288902       0.00000000       29341.8340       1.60531366    
 -0.767116010      -1.12776399       0.00000000       31463.0059       1.60410583    
 -0.630888999      -1.20308697       0.00000000       31463.0059       1.60410583    
 -0.635528028      -1.19958198     -0.303541005       31463.0059       1.60410583    
 -0.769354999      -1.12002099     -0.303523988       31463.0059       1.60410583    
 -0.635528028      -1.19958198     -0.303541005       3484.00366       1.66762114    
 -0.495362997      -1.26606500     -0.303519011       3484.00366       1.66762114    
 -0.499298006      -1.26809204     -0.606999993       3484.00366       1.66762114    
 -0.640147984      -1.19813800     -0.606998026       3484.00366       1.66762114    
 -0.635528028      -1.19958198     -0.303541005       3267.16650       1.66822767    
 -0.640147984      -1.19813800     -0.606998026       3267.16650       1.66822767    
 -0.777105987      -1.11956596     -0.606999993       3267.16650       1.66822767    
 -0.769354999      -1.12002099     -0.303523988       3267.16650       1.66822767    
 -0.635528028      -1.19958198     -0.303541005       33156.9648       1.60379481    
 -0.630888999      -1.20308697       0.00000000       33156.9648       1.60379481    
 -0.494486004      -1.26955199       0.00000000       33156.9648       1.60379481    
 -0.495362997      -1.26606500     -0.303519011       33156.9648       1.60379481    
 -0.494486004      -1.26955199       0.00000000       34874.9922       1.60418355    
 -0.346311986      -1.31449997       0.00000000       34874.9922       1.60418355    
 -0.346753001      -1.31307304     -0.303510010       34874.9922       1.60418355    
 -0.495362997      -1.26606500     -0.303519011       34874.9922       1.60418355    
 -0.346753001      -1.31307304     -0.303510010       3732.70557       1.66922700    
 -0.193608001      -1.34425998     -0.303494990       3732.70557       1.66922700    
 -0.195028007      -1.34579206     -0.606999993       3732.70557       1.66922700    
 -0.348751009      -1.31376004     -0.606999993       3732.70557       1.66922700    
 -0.346753001      -1.31307304     -0.303510010       3638.98438       1.66795576    
 -0.348751009      -1.31376004     -0.606999993       3638.98438       1.66795576    
 -0.499298006      -1.26809204     -0.606999993       3638.98438       1.66795576    
 -0.495362997      -1.26606500     -0.303519011       3638.98438       1.66795576    
 -0.346753001      -1.31307304     -0.303510010       36371.5273       1.60533881    
 -0.346311986      -1.31449997       0.00000000       36371.5273       1.60533881    
 -0.193381995      -1.34595394       0.00000000       36371.5273       1.60533881    
 -0.193608001      -1.34425998     -0.303494990       36371.5273       1.60533881    
 -0.193381995      -1.34595394       0.00000000       37708.6523       1.60675025    
  -3.75179984E-02  -1.36130500       0.00000000       37708.6523       1.60675025    
  -3.73950005E-02  -1.35827899     -0.303512007       37708.6523       1.60675025    
 -0.193608001      -1.34425998     -0.303494990       37708.6523       1.60675025    
  -3.73950005E-02  -1.35827899     -0.303512007       3595.97266       1.67573571    
  0.119547002      -1.35239303     -0.303498000       3595.97266       1.67573571    
  0.119135000      -1.35326600     -0.606999993       3595.97266       1.67573571    
  -3.82840000E-02  -1.36122894     -0.606998980       3595.97266       1.67573571    
  -3.73950005E-02  -1.35827899     -0.303512007       3732.78223       1.67164111    
  -3.82840000E-02  -1.36122894     -0.606998980       3732.78223       1.67164111    
 -0.195028007      -1.34579206     -0.606999993       3732.78223       1.67164111    
 -0.193608001      -1.34425998     -0.303494990       3732.78223       1.67164111    
  -3.73950005E-02  -1.35827899     -0.303512007       37560.1797       1.60838628    
  -3.75179984E-02  -1.36130500       0.00000000       37560.1797       1.60838628    
  0.119788997      -1.35320199       0.00000000       37560.1797       1.60838628    
  0.119547002      -1.35239303     -0.303498000       37560.1797       1.60838628    
  0.119788997      -1.35320199       0.00000000       36930.5469       1.60999048    
  0.276576012      -1.33565402       0.00000000       36930.5469       1.60999048    
  0.275435001      -1.33191597     -0.303496003       36930.5469       1.60999048    
  0.119547002      -1.35239303     -0.303498000       36930.5469       1.60999048    
  0.275435001      -1.33191597     -0.303496003       3021.05835       1.68923461    
  0.427076995      -1.28898001     -0.303507000       3021.05835       1.68923461    
  0.427242011      -1.28995001     -0.606999993       3021.05835       1.68923461    
  0.275831014      -1.33588004     -0.606999993       3021.05835       1.68923461    
  0.275435001      -1.33191597     -0.303496003       3326.61890       1.68239105    
  0.275831014      -1.33588004     -0.606999993       3326.61890       1.68239105    
  0.119135000      -1.35326600     -0.606999993       3326.61890       1.68239105    
  0.119547002      -1.35239303     -0.303498000       3326.61890       1.68239105    
  0.275435001      -1.33191597     -0.303496003       35401.7227       1.61123586    
  0.276576012      -1.33565402       0.00000000       35401.7227       1.61123586    
  0.427509993      -1.28986895       0.00000000       35401.7227       1.61123586    
  0.427076995      -1.28898001     -0.303507000       35401.7227       1.61123586    
  0.427509993      -1.28986895       0.00000000       32879.3477       1.61201322    
  0.574636996      -1.23315501       0.00000000       32879.3477       1.61201322    
  0.573706985      -1.23136795     -0.303485990       32879.3477       1.61201322    
  0.427076995      -1.28898001     -0.303507000       32879.3477       1.61201322    
  0.573706985      -1.23136795     -0.303485990       2365.82861       1.70363057    
  0.712854981      -1.15688002     -0.303496987       2365.82861       1.70363057    
  0.713809013      -1.15876603     -0.606999993       2365.82861       1.70363057    
  0.574283004      -1.23334301     -0.606999993       2365.82861       1.70363057    
  0.573706985      -1.23136795     -0.303485990       2676.23779       1.69695807    
  0.574283004      -1.23334301     -0.606999993       2676.23779       1.69695807    
  0.427242011      -1.28995001     -0.606999993       2676.23779       1.69695807    
  0.427076995      -1.28898001     -0.303507000       2676.23779       1.69695807    
  0.573706985      -1.23136795     -0.303485990       30465.6289       1.61196923    
  0.574636996      -1.23315501       0.00000000       30465.6289       1.61196923    
  0.713741004      -1.15880203       0.00000000       30465.6289       1.61196923    
  0.712854981      -1.15688002     -0.303496987       30465.6289       1.61196923    
  0.713741004      -1.15880203       0.00000000       27843.4863       1.61106145    
  0.841937006      -1.06636095       0.00000000       27843.4863       1.61106145    
  0.841498017      -1.06573403     -0.303485990       27843.4863       1.61106145    
  0.712854981      -1.15688002     -0.303496987       27843.4863       1.61106145    
  0.841498017      -1.06573403     -0.303485990       1834.52075       1.71036184    
  0.960639000     -0.962104976     -0.303470999       1834.52075       1.71036184    
  0.964356005     -0.965893984     -0.606999993       1834.52075       1.71036184    
  0.841796994      -1.06647599     -0.606999993       1834.52075       1.71036184    
  0.841498017      -1.06573403     -0.303485990       2085.99976       1.70819044    
  0.841796994      -1.06647599     -0.606999993       2085.99976       1.70819044    
  0.713809013      -1.15876603     -0.606999993       2085.99976       1.70819044    
  0.712854981      -1.15688002     -0.303496987       2085.99976       1.70819044    
  0.841498017      -1.06573403     -0.303485990       25703.2773       1.60915613    
  0.841937006      -1.06636095       0.00000000       25703.2773       1.60915613    
  0.963932991     -0.966242015       0.00000000       25703.2773       1.60915613    
  0.960639000     -0.962104976     -0.303470999       25703.2773       1.60915613    
  0.963932991     -0.966242015       0.00000000       22891.6230       1.60672867    
   1.06506598     -0.843514979       0.00000000       22891.6230       1.60672867    
   1.06428695     -0.842682004     -0.303481996       22891.6230       1.60672867    
  0.960639000     -0.962104976     -0.303470999       22891.6230       1.60672867    
   1.06428695     -0.842682004     -0.303481996       1345.49219       1.70944762    
   1.15591598     -0.714210987     -0.303485006       1345.49219       1.70944762    
   1.15788805     -0.715448976     -0.606999993       1345.49219       1.70944762    
   1.06537795     -0.843134999     -0.606999993       1345.49219       1.70944762    
   1.06428695     -0.842682004     -0.303481996       1611.47681       1.70993638    
   1.06537795     -0.843134999     -0.606999993       1611.47681       1.70993638    
  0.964356005     -0.965893984     -0.606999993       1611.47681       1.70993638    
  0.960639000     -0.962104976     -0.303470999       1611.47681       1.70993638    
   1.06428695     -0.842682004     -0.303481996       19064.0801       1.60370362    
   1.06506598     -0.843514979       0.00000000       19064.0801       1.60370362    
   1.15792501     -0.715381980       0.00000000       19064.0801       1.60370362    
   1.15591598     -0.714210987     -0.303485006       19064.0801       1.60370362    
   1.15792501     -0.715381980       0.00000000       15508.6689       1.60047686    
   1.23237598     -0.576093972       0.00000000       15508.6689       1.60047686    
   1.23120904     -0.575251997     -0.303514004       15508.6689       1.60047686    
   1.15591598     -0.714210987     -0.303485006       15508.6689       1.60047686    
   1.23120904     -0.575251997     -0.303514004       772.432617       1.71790683    
   1.28844094     -0.428344995     -0.303512990       772.432617       1.71790683    
   1.28952503     -0.428642988     -0.606999993       772.432617       1.71790683    
   1.23252702     -0.575810015     -0.606999993       772.432617       1.71790683    
   1.23120904     -0.575251997     -0.303514004       1076.76013       1.71040690    
   1.23252702     -0.575810015     -0.606999993       1076.76013       1.71040690    
   1.15788805     -0.715448976     -0.606999993       1076.76013       1.71040690    
   1.15591598     -0.714210987     -0.303485006       1076.76013       1.71040690    
   1.23120904     -0.575251997     -0.303514004       11733.4824       1.59751511    
   1.23237598     -0.576093972       0.00000000       11733.4824       1.59751511    
   1.28947699     -0.428801000       0.00000000       11733.4824       1.59751511    
   1.28844094     -0.428344995     -0.303512990       11733.4824       1.59751511    
   1.28947699     -0.428801000       0.00000000       8150.79639       1.59503615    
   1.33532202     -0.277671993       0.00000000       8150.79639       1.59503615    
   1.33076501     -0.276203990     -0.303492010       8150.79639       1.59503615    
   1.28844094     -0.428344995     -0.303512990       8150.79639       1.59503615    
   1.33076501     -0.276203990     -0.303492010       170.807388       1.82129049    
   1.35229194     -0.119709998     -0.303514004       170.807388       1.82129049    
   1.35321999     -0.119608998     -0.606999993       170.807388       1.82129049    
   1.33549094     -0.277112991     -0.606999993       170.807388       1.82129049    
   1.33076501     -0.276203990     -0.303492010       438.290619       1.74606538    
   1.33549094     -0.277112991     -0.606999993       438.290619       1.74606538    
   1.28952503     -0.428642988     -0.606999993       438.290619       1.74606538    
   1.28844094     -0.428344995     -0.303512990       438.290619       1.74606538    
   1.33076501     -0.276203990     -0.303492010       4583.38770       1.59443271    
   1.33532202     -0.277671993       0.00000000       4583.38770       1.59443271    
   1.35319102     -0.119900003       0.00000000       4583.38770       1.59443271    
   1.35229194     -0.119709998     -0.303514004       4583.38770       1.59443271    
   1.35319102     -0.119900003       0.00000000       708.680969       1.60873020    
   1.36124396       3.81390005E-02   0.00000000       708.680969       1.60873020    
   1.35858905       3.79349999E-02 -0.303501010       708.680969       1.60873020    
   1.35229194     -0.119709998     -0.303514004       708.680969       1.60873020    
   1.35858905       3.79349999E-02 -0.303501010       504.843597      -1.51805043    
   1.34464097      0.195331007     -0.303496003       504.843597      -1.51805043    
   1.34573400      0.195616007     -0.606999993       504.843597      -1.51805043    
   1.36126804       3.78950015E-02 -0.606999993       504.843597      -1.51805043    
   1.35858905       3.79349999E-02 -0.303501010       186.159271      -1.61417770    
   1.36126804       3.78950015E-02 -0.606999993       186.159271      -1.61417770    
   1.35321999     -0.119608998     -0.606999993       186.159271      -1.61417770    
   1.35229194     -0.119709998     -0.303514004       186.159271      -1.61417770    
   1.35858905       3.79349999E-02 -0.303501010       3044.93750      -1.55365646    
   1.36124396       3.81390005E-02   0.00000000       3044.93750      -1.55365646    
   1.34575403      0.195406005       0.00000000       3044.93750      -1.55365646    
   1.34464097      0.195331007     -0.303496003       3044.93750      -1.55365646    
   1.34575403      0.195406005       0.00000000       6907.37256      -1.54967725    
   1.31339800      0.349945009       0.00000000       6907.37256      -1.54967725    
   1.31216300      0.349725991     -0.303487003       6907.37256      -1.54967725    
   1.34464097      0.195331007     -0.303496003       6907.37256      -1.54967725    
   1.31216300      0.349725991     -0.303487003       1147.78784      -1.48429775    
   1.26341999      0.500032008     -0.303494006       1147.78784      -1.48429775    
   1.26736605      0.501691997     -0.606999993       1147.78784      -1.48429775    
   1.31333196      0.350163996     -0.606999993       1147.78784      -1.48429775    
   1.31216300      0.349725991     -0.303487003       842.006104      -1.49648333    
   1.31333196      0.350163996     -0.606999993       842.006104      -1.49648333    
   1.34573400      0.195616007     -0.606999993       842.006104      -1.49648333    
   1.34464097      0.195331007     -0.303496003       842.006104      -1.49648333    
   1.31216300      0.349725991     -0.303487003       10964.8154      -1.54662251    
   1.31339800      0.349945009       0.00000000       10964.8154      -1.54662251    
   1.26751196      0.501209974       0.00000000       10964.8154      -1.54662251    
   1.26341999      0.500032008     -0.303494006       10964.8154      -1.54662251    
   1.26751196      0.501209974       0.00000000       14945.4512      -1.54321837    
   1.19658697      0.643051028       0.00000000       14945.4512      -1.54321837    
   1.19583094      0.642783999     -0.303505003       14945.4512      -1.54321837    
   1.26341999      0.500032008     -0.303494006       14945.4512      -1.54321837    
   1.19583094      0.642783999     -0.303505003       1747.97534      -1.47059727    
   1.11495602      0.778467000     -0.303483993       1747.97534      -1.47059727    
   1.11731696      0.779847026     -0.606999993       1747.97534      -1.47059727    
   1.19653296      0.643149972     -0.606999993       1747.97534      -1.47059727    
   1.19583094      0.642783999     -0.303505003       1438.11169      -1.47600245    
   1.19653296      0.643149972     -0.606999993       1438.11169      -1.47600245    
   1.26736605      0.501691997     -0.606999993       1438.11169      -1.47600245    
   1.26341999      0.500032008     -0.303494006       1438.11169      -1.47600245    
   1.19583094      0.642783999     -0.303505003       18894.5312      -1.53959751    
   1.19658697      0.643051028       0.00000000       18894.5312      -1.53959751    
   1.11705506      0.780165970       0.00000000       18894.5312      -1.53959751    
   1.11495602      0.778467000     -0.303483993       18894.5312      -1.53959751    
   1.11705506      0.780165970       0.00000000       22253.3008      -1.53633821    
   1.01674199      0.902397990       0.00000000       22253.3008      -1.53633821    
   1.01591504      0.901737988     -0.303478003       22253.3008      -1.53633821    
   1.11495602      0.778467000     -0.303483993       22253.3008      -1.53633821    
   1.01591504      0.901737988     -0.303478003       2213.16553      -1.45943904    
  0.904204011       1.01322901     -0.303456992       2213.16553      -1.45943904    
  0.905143023       1.01448905     -0.606999993       2213.16553      -1.45943904    
   1.01659799      0.902572989     -0.606999993       2213.16553      -1.45943904    
   1.01591504      0.901737988     -0.303478003       1987.87903      -1.46443427    
   1.01659799      0.902572989     -0.606999993       1987.87903      -1.46443427    
   1.11731696      0.779847026     -0.606999993       1987.87903      -1.46443427    
   1.11495602      0.778467000     -0.303483993       1987.87903      -1.46443427    
   1.01591504      0.901737988     -0.303478003       25199.4395      -1.53333688    
   1.01674199      0.902397990       0.00000000       25199.4395      -1.53333688    
  0.905318975       1.01434398       0.00000000       25199.4395      -1.53333688    
  0.904204011       1.01322901     -0.303456992       25199.4395      -1.53333688    
  0.905318975       1.01434398       0.00000000       28637.0312      -1.53126466    
  0.782918990       1.11479497       0.00000000       28637.0312      -1.53126466    
  0.780644000       1.11195600     -0.303485006       28637.0312      -1.53126466    
  0.904204011       1.01322901     -0.303456992       28637.0312      -1.53126466    
  0.780644000       1.11195600     -0.303485006       2668.77905      -1.45591390    
  0.645825028       1.19414902     -0.303514004       2668.77905      -1.45591390    
  0.646153986       1.19492805     -0.606999993       2668.77905      -1.45591390    
  0.782611012       1.11504900     -0.606999993       2668.77905      -1.45591390    
  0.780644000       1.11195600     -0.303485006       2447.24219      -1.45669878    
  0.782611012       1.11504900     -0.606999993       2447.24219      -1.45669878    
  0.905143023       1.01448905     -0.606999993       2447.24219      -1.45669878    
  0.904204011       1.01322901     -0.303456992       2447.24219      -1.45669878    
  0.780644000       1.11195600     -0.303485006       31095.4102      -1.53001416    
  0.782918990       1.11479497       0.00000000       31095.4102      -1.53001416    
  0.646345019       1.19482601       0.00000000       31095.4102      -1.53001416    
  0.645825028       1.19414902     -0.303514004       31095.4102      -1.53001416    
  0.646345019       1.19482601       0.00000000       33523.8750      -1.52958775    
  0.504974008       1.26637006       0.00000000       33523.8750      -1.52958775    
  0.503772974       1.26314998     -0.303521991       33523.8750      -1.52958775    
  0.645825028       1.19414902     -0.303514004       33523.8750      -1.52958775    
  0.503772974       1.26314998     -0.303521991       3133.40625      -1.45961297    
  0.353130996       1.31116498     -0.303510994       3133.40625      -1.45961297    
  0.353300005       1.31237996     -0.606999993       3133.40625      -1.45961297    
  0.505183995       1.26630700     -0.606999993       3133.40625      -1.45961297    
  0.503772974       1.26314998     -0.303521991       2928.50684      -1.45767605    
  0.505183995       1.26630700     -0.606999993       2928.50684      -1.45767605    
  0.646153986       1.19492805     -0.606999993       2928.50684      -1.45767605    
  0.645825028       1.19414902     -0.303514004       2928.50684      -1.45767605    
  0.503772974       1.26314998     -0.303521991       35072.0391      -1.52995431    
  0.504974008       1.26637006       0.00000000       35072.0391      -1.52995431    
  0.353493989       1.31232095       0.00000000       35072.0391      -1.52995431    
  0.353130996       1.31116498     -0.303510994       35072.0391      -1.52995431    
  0.353493989       1.31232095       0.00000000       35916.9766      -1.53105032    
  0.199064001       1.34539402       0.00000000       35916.9766      -1.53105032    
  0.198755994       1.34360003     -0.303496003       35916.9766      -1.53105032    
  0.353130996       1.31116498     -0.303510994       35916.9766      -1.53105032    
  0.198755994       1.34360003     -0.303496003       3540.35840      -1.46715021    
   4.12769988E-02   1.35817802     -0.303508013       3540.35840      -1.46715021    
   4.12410013E-02   1.36093795     -0.606999993       3540.35840      -1.46715021    
  0.199025005       1.34539795     -0.606999993       3540.35840      -1.46715021    
  0.198755994       1.34360003     -0.303496003       3343.46387      -1.46325755    
  0.199025005       1.34539795     -0.606999993       3343.46387      -1.46325755    
  0.353300005       1.31237996     -0.606999993       3343.46387      -1.46325755    
  0.353130996       1.31116498     -0.303510994       3343.46387      -1.46325755    
  0.198755994       1.34360003     -0.303496003       36939.7109      -1.53266907    
  0.199064001       1.34539402       0.00000000       36939.7109      -1.53266907    
   4.17769998E-02   1.36088502       0.00000000       36939.7109      -1.53266907    
   4.12769988E-02   1.35817802     -0.303508013       36939.7109      -1.53266907    
   4.17769998E-02   1.36088502       0.00000000       37265.6172      -1.53435469    
 -0.116410002       1.35353506       0.00000000       37265.6172      -1.53435469    
 -0.116471998       1.35271096     -0.303496987       37265.6172      -1.53435469    
   4.12769988E-02   1.35817802     -0.303508013       37265.6172      -1.53435469    
 -0.116471998       1.35271096     -0.303496987       3673.78027      -1.47250307    
 -0.273027003       1.33229196     -0.303496003       3673.78027      -1.47250307    
 -0.273876995       1.33647299     -0.606999993       3673.78027      -1.47250307    
 -0.116722003       1.35350394     -0.606999993       3673.78027      -1.47250307    
 -0.116471998       1.35271096     -0.303496987       3662.50122      -1.47050178    
 -0.116722003       1.35350394     -0.606999993       3662.50122      -1.47050178    
   4.12410013E-02   1.36093795     -0.606999993       3662.50122      -1.47050178    
   4.12769988E-02   1.35817802     -0.303508013       3662.50122      -1.47050178    
 -0.116471998       1.35271096     -0.303496987       37396.6836      -1.53605676    
 -0.116410002       1.35353506       0.00000000       37396.6836      -1.53605676    
 -0.274069011       1.33641505       0.00000000       37396.6836      -1.53605676    
 -0.273027003       1.33229196     -0.303496003       37396.6836      -1.53605676    
 -0.274069011       1.33641505       0.00000000       36143.3711      -1.53716004    
 -0.425588995       1.29045200       0.00000000       36143.3711      -1.53716004    
 -0.425258011       1.28953803     -0.303507000       36143.3711      -1.53716004    
 -0.273027003       1.33229196     -0.303496003       36143.3711      -1.53716004    
 -0.425258011       1.28953803     -0.303507000       3265.03955      -1.46953177    
 -0.572302997       1.23206902     -0.303485990       3265.03955      -1.46953177    
 -0.573064029       1.23399496     -0.606999993       3265.03955      -1.46953177    
 -0.425651014       1.29043305     -0.606999993       3265.03955      -1.46953177    
 -0.425258011       1.28953803     -0.303507000       3552.81323      -1.47248960    
 -0.425651014       1.29043305     -0.606999993       3552.81323      -1.47248960    
 -0.273876995       1.33647299     -0.606999993       3552.81323      -1.47248960    
 -0.273027003       1.33229196     -0.303496003       3552.81323      -1.47248960    
 -0.425258011       1.28953803     -0.303507000       33532.7031      -1.53755653    
 -0.425588995       1.29045200       0.00000000       33532.7031      -1.53755653    
 -0.573195994       1.23392498       0.00000000       33532.7031      -1.53755653    
 -0.572302997       1.23206902     -0.303485990       33532.7031      -1.53755653    
 -0.573195994       1.23392498       0.00000000       31146.4180      -1.53723311    
 -0.712655008       1.15938199       0.00000000       31146.4180      -1.53723311    
 -0.711889029       1.15749002     -0.303496003       31146.4180      -1.53723311    
 -0.572302997       1.23206902     -0.303485990       31146.4180      -1.53723311    
 -0.711889029       1.15749002     -0.303496003       2536.43994      -1.45846808    
 -0.840825975       1.06629205     -0.303485990       2536.43994      -1.45846808    
 -0.841368973       1.06682706     -0.606999993       2536.43994      -1.45846808    
 -0.712980986       1.15920806     -0.606999993       2536.43994      -1.45846808    
 -0.711889029       1.15749002     -0.303496003       2916.35718      -1.46489906    
 -0.712980986       1.15920806     -0.606999993       2916.35718      -1.46489906    
 -0.573064029       1.23399496     -0.606999993       2916.35718      -1.46489906    
 -0.572302997       1.23206902     -0.303485990       2916.35718      -1.46489906    
 -0.711889029       1.15749002     -0.303496003       28369.3750      -1.53604043    
 -0.712655008       1.15938199       0.00000000       28369.3750      -1.53604043    
 -0.841165006       1.06699395       0.00000000       28369.3750      -1.53604043    
 -0.840825975       1.06629205     -0.303485990       28369.3750      -1.53604043    
 -0.841165006       1.06699395       0.00000000       26211.8477      -1.53414917    
 -0.963320017      0.966744006       0.00000000       26211.8477      -1.53414917    
 -0.960084975      0.962615013     -0.303470999       26211.8477      -1.53414917    
 -0.840825975       1.06629205     -0.303485990       26211.8477      -1.53414917    
 -0.960084975      0.962615013     -0.303470999       1927.34705      -1.44833827    
  -1.06383705      0.843237996     -0.303481996       1927.34705      -1.44833827    
  -1.06481802      0.843816996     -0.606999993       1927.34705      -1.44833827    
 -0.963873982      0.966289997     -0.606999993       1927.34705      -1.44833827    
 -0.960084975      0.962615013     -0.303470999       2173.67236      -1.45109224    
 -0.963873982      0.966289997     -0.606999993       2173.67236      -1.45109224    
 -0.841368973       1.06682706     -0.606999993       2173.67236      -1.45109224    
 -0.840825975       1.06629205     -0.303485990       2173.67236      -1.45109224    
 -0.960084975      0.962615013     -0.303470999       23988.9316      -1.53178442    
 -0.963320017      0.966744006       0.00000000       23988.9316      -1.53178442    
  -1.06464398      0.844029009       0.00000000       23988.9316      -1.53178442    
  -1.06383705      0.843237996     -0.303481996       23988.9316      -1.53178442    
  -1.06464398      0.844029009       0.00000000       21188.3887      -1.52892351    
  -1.15769398      0.715813994       0.00000000       21188.3887      -1.52892351    
  -1.15564799      0.714680016     -0.303483993       21188.3887      -1.52892351    
  -1.06383705      0.843237996     -0.303481996       21188.3887      -1.52892351    
  -1.15564799      0.714680016     -0.303483993       1479.30737      -1.44922161    
  -1.23108304      0.575536013     -0.303514004       1479.30737      -1.44922161    
  -1.23232996      0.576179981     -0.606999993       1479.30737      -1.44922161    
  -1.15756094      0.716063023     -0.606999993       1479.30737      -1.44922161    
  -1.15564799      0.714680016     -0.303483993       1701.08850      -1.44749379    
  -1.15756094      0.716063023     -0.606999993       1701.08850      -1.44749379    
  -1.06481802      0.843816996     -0.606999993       1701.08850      -1.44749379    
  -1.06383705      0.843237996     -0.303481996       1701.08850      -1.44749379    
  -1.15564799      0.714680016     -0.303483993       18303.9141      -1.52629220    
  -1.15769398      0.715813994       0.00000000       18303.9141      -1.52629220    
  -1.23224795      0.576331973       0.00000000       18303.9141      -1.52629220    
  -1.23108304      0.575536013     -0.303514004       18303.9141      -1.52629220    
  -1.23224795      0.576331973       0.00000000       14414.4258      -1.52394700    
  -1.28948605      0.428772002       0.00000000       14414.4258      -1.52394700    
  -1.28842103      0.428404987     -0.303512990       14414.4258      -1.52394700    
  -1.23108304      0.575536013     -0.303514004       14414.4258      -1.52394700    
  -1.28842103      0.428404987     -0.303512990       728.539062      -1.43657899    
  -1.33082402      0.275959998     -0.303492010       728.539062      -1.43657899    
  -1.33550000      0.277083993     -0.606999993       728.539062      -1.43657899    