 VARIABLES="X" "Y" "Z" "abs(p) (Pa)" "angle(p) (rad)"
ZONE N=   2720,E =    2069, F=FEPOINT, ET=QUADRILATERAL
 -0.767116010      -1.12776399       0.00000000       1623.79700       1.56847274    
 -0.769354999      -1.12002099     -0.303523988       1623.79700       1.56847274    
 -0.896136999      -1.02028203     -0.303463012       1623.79700       1.56847274    
 -0.894908011      -1.02288902       0.00000000       1623.79700       1.56847274    
 -0.767116010      -1.12776399       0.00000000       1742.39746       1.56838262    
 -0.630888999      -1.20308697       0.00000000       1742.39746       1.56838262    
 -0.635528028      -1.19958198     -0.303541005       1742.39746       1.56838262    
 -0.769354999      -1.12002099     -0.303523988       1742.39746       1.56838262    
 -0.635528028      -1.19958198     -0.303541005       1879.61157       1.57444429    
 -0.495362997      -1.26606500     -0.303519011       1879.61157       1.57444429    
 -0.499298006      -1.26809204     -0.606999993       1879.61157       1.57444429    
 -0.640147984      -1.19813800     -0.606998026       1879.61157       1.57444429    
 -0.635528028      -1.19958198     -0.303541005       1767.51086       1.57447135    
 -0.640147984      -1.19813800     -0.606998026       1767.51086       1.57447135    
 -0.777105987      -1.11956596     -0.606999993       1767.51086       1.57447135    
 -0.769354999      -1.12002099     -0.303523988       1767.51086       1.57447135    
 -0.635528028      -1.19958198     -0.303541005       1836.47803       1.56834483    
 -0.630888999      -1.20308697       0.00000000       1836.47803       1.56834483    
 -0.494486004      -1.26955199       0.00000000       1836.47803       1.56834483    
 -0.495362997      -1.26606500     -0.303519011       1836.47803       1.56834483    
 -0.494486004      -1.26955199       0.00000000       1915.38232       1.56826019    
 -0.346311986      -1.31449997       0.00000000       1915.38232       1.56826019    
 -0.346753001      -1.31307304     -0.303510010       1915.38232       1.56826019    
 -0.495362997      -1.26606500     -0.303519011       1915.38232       1.56826019    
 -0.346753001      -1.31307304     -0.303510010       2030.08411       1.57441354    
 -0.193608001      -1.34425998     -0.303494990       2030.08411       1.57441354    
 -0.195028007      -1.34579206     -0.606999993       2030.08411       1.57441354    
 -0.348751009      -1.31376004     -0.606999993       2030.08411       1.57441354    
 -0.346753001      -1.31307304     -0.303510010       1965.54309       1.57442153    
 -0.348751009      -1.31376004     -0.606999993       1965.54309       1.57442153    
 -0.499298006      -1.26809204     -0.606999993       1965.54309       1.57442153    
 -0.495362997      -1.26606500     -0.303519011       1965.54309       1.57442153    
 -0.346753001      -1.31307304     -0.303510010       1988.45227       1.56831765    
 -0.346311986      -1.31449997       0.00000000       1988.45227       1.56831765    
 -0.193381995      -1.34595394       0.00000000       1988.45227       1.56831765    
 -0.193608001      -1.34425998     -0.303494990       1988.45227       1.56831765    
 -0.193381995      -1.34595394       0.00000000       2030.62524       1.56827998    
  -3.75179984E-02  -1.36130500       0.00000000       2030.62524       1.56827998    
  -3.73950005E-02  -1.35827899     -0.303512007       2030.62524       1.56827998    
 -0.193608001      -1.34425998     -0.303494990       2030.62524       1.56827998    
  -3.73950005E-02  -1.35827899     -0.303512007       2067.94531       1.57441652    
  0.119547002      -1.35239303     -0.303498000       2067.94531       1.57441652    
  0.119135000      -1.35326600     -0.606999993       2067.94531       1.57441652    
  -3.82840000E-02  -1.36122894     -0.606998980       2067.94531       1.57441652    
  -3.73950005E-02  -1.35827899     -0.303512007       2066.00195       1.57439995    
  -3.82840000E-02  -1.36122894     -0.606998980       2066.00195       1.57439995    
 -0.195028007      -1.34579206     -0.606999993       2066.00195       1.57439995    
 -0.193608001      -1.34425998     -0.303494990       2066.00195       1.57439995    
  -3.73950005E-02  -1.35827899     -0.303512007       2032.17603       1.56834352    
  -3.75179984E-02  -1.36130500       0.00000000       2032.17603       1.56834352    
  0.119788997      -1.35320199       0.00000000       2032.17603       1.56834352    
  0.119547002      -1.35239303     -0.303498000       2032.17603       1.56834352    
  0.119788997      -1.35320199       0.00000000       2000.59924       1.56831479    
  0.276576012      -1.33565402       0.00000000       2000.59924       1.56831479    
  0.275435001      -1.33191597     -0.303496003       2000.59924       1.56831479    
  0.119547002      -1.35239303     -0.303498000       2000.59924       1.56831479    
  0.275435001      -1.33191597     -0.303496003       2036.30396       1.57437432    
  0.427076995      -1.28898001     -0.303507000       2036.30396       1.57437432    
  0.427242011      -1.28995001     -0.606999993       2036.30396       1.57437432    
  0.275831014      -1.33588004     -0.606999993       2036.30396       1.57437432    
  0.275435001      -1.33191597     -0.303496003       2084.04956       1.57436383    
  0.275831014      -1.33588004     -0.606999993       2084.04956       1.57436383    
  0.119135000      -1.35326600     -0.606999993       2084.04956       1.57436383    
  0.119547002      -1.35239303     -0.303498000       2084.04956       1.57436383    
  0.275435001      -1.33191597     -0.303496003       1949.20886       1.56836879    
  0.276576012      -1.33565402       0.00000000       1949.20886       1.56836879    
  0.427509993      -1.28986895       0.00000000       1949.20886       1.56836879    
  0.427076995      -1.28898001     -0.303507000       1949.20886       1.56836879    
  0.427509993      -1.28986895       0.00000000       1885.10962       1.56863189    
  0.574636996      -1.23315501       0.00000000       1885.10962       1.56863189    
  0.573706985      -1.23136795     -0.303485990       1885.10962       1.56863189    
  0.427076995      -1.28898001     -0.303507000       1885.10962       1.56863189    
  0.573706985      -1.23136795     -0.303485990       1860.20752       1.57440245    
  0.712854981      -1.15688002     -0.303496987       1860.20752       1.57440245    
  0.713809013      -1.15876603     -0.606999993       1860.20752       1.57440245    
  0.574283004      -1.23334301     -0.606999993       1860.20752       1.57440245    
  0.573706985      -1.23136795     -0.303485990       1963.00916       1.57439435    
  0.574283004      -1.23334301     -0.606999993       1963.00916       1.57439435    
  0.427242011      -1.28995001     -0.606999993       1963.00916       1.57439435    
  0.427076995      -1.28898001     -0.303507000       1963.00916       1.57439435    
  0.573706985      -1.23136795     -0.303485990       1788.26831       1.56876063    
  0.574636996      -1.23315501       0.00000000       1788.26831       1.56876063    
  0.713741004      -1.15880203       0.00000000       1788.26831       1.56876063    
  0.712854981      -1.15688002     -0.303496987       1788.26831       1.56876063    
  0.713741004      -1.15880203       0.00000000       1677.70374       1.56887293    
  0.841937006      -1.06636095       0.00000000       1677.70374       1.56887293    
  0.841498017      -1.06573403     -0.303485990       1677.70374       1.56887293    
  0.712854981      -1.15688002     -0.303496987       1677.70374       1.56887293    
  0.841498017      -1.06573403     -0.303485990       1591.61450       1.57436693    
  0.960639000     -0.962104976     -0.303470999       1591.61450       1.57436693    
  0.964356005     -0.965893984     -0.606999993       1591.61450       1.57436693    
  0.841796994      -1.06647599     -0.606999993       1591.61450       1.57436693    
  0.841498017      -1.06573403     -0.303485990       1738.72339       1.57440317    
  0.841796994      -1.06647599     -0.606999993       1738.72339       1.57440317    
  0.713809013      -1.15876603     -0.606999993       1738.72339       1.57440317    
  0.712854981      -1.15688002     -0.303496987       1738.72339       1.57440317    
  0.841498017      -1.06573403     -0.303485990       1564.79333       1.56874311    
  0.841937006      -1.06636095       0.00000000       1564.79333       1.56874311    
  0.963932991     -0.966242015       0.00000000       1564.79333       1.56874311    
  0.960639000     -0.962104976     -0.303470999       1564.79333       1.56874311    
  0.963932991     -0.966242015       0.00000000       1408.78027       1.56865823    
   1.06506598     -0.843514979       0.00000000       1408.78027       1.56865823    
   1.06428695     -0.842682004     -0.303481996       1408.78027       1.56865823    
  0.960639000     -0.962104976     -0.303470999       1408.78027       1.56865823    
   1.06428695     -0.842682004     -0.303481996       1286.99121       1.57416070    
   1.15591598     -0.714210987     -0.303485006       1286.99121       1.57416070    
   1.15788805     -0.715448976     -0.606999993       1286.99121       1.57416070    
   1.06537795     -0.843134999     -0.606999993       1286.99121       1.57416070    
   1.06428695     -0.842682004     -0.303481996       1429.70312       1.57431448    
   1.06537795     -0.843134999     -0.606999993       1429.70312       1.57431448    
  0.964356005     -0.965893984     -0.606999993       1429.70312       1.57431448    
  0.960639000     -0.962104976     -0.303470999       1429.70312       1.57431448    
   1.06428695     -0.842682004     -0.303481996       1214.52563       1.56868279    
   1.06506598     -0.843514979       0.00000000       1214.52563       1.56868279    
   1.15792501     -0.715381980       0.00000000       1214.52563       1.56868279    
   1.15591598     -0.714210987     -0.303485006       1214.52563       1.56868279    
   1.15792501     -0.715381980       0.00000000       1011.44922       1.56852782    
   1.23237598     -0.576093972       0.00000000       1011.44922       1.56852782    
   1.23120904     -0.575251997     -0.303514004       1011.44922       1.56852782    
   1.15591598     -0.714210987     -0.303485006       1011.44922       1.56852782    
   1.23120904     -0.575251997     -0.303514004       869.617310       1.57389426    
   1.28844094     -0.428344995     -0.303512990       869.617310       1.57389426    
   1.28952503     -0.428642988     -0.606999993       869.617310       1.57389426    
   1.23252702     -0.575810015     -0.606999993       869.617310       1.57389426    
   1.23120904     -0.575251997     -0.303514004       1084.51465       1.57404196    
   1.23252702     -0.575810015     -0.606999993       1084.51465       1.57404196    
   1.15788805     -0.715448976     -0.606999993       1084.51465       1.57404196    
   1.15591598     -0.714210987     -0.303485006       1084.51465       1.57404196    
   1.23120904     -0.575251997     -0.303514004       853.114624       1.56867754    
   1.23237598     -0.576093972       0.00000000       853.114624       1.56867754    
   1.28947699     -0.428801000       0.00000000       853.114624       1.56867754    
   1.28844094     -0.428344995     -0.303512990       853.114624       1.56867754    
   1.28947699     -0.428801000       0.00000000       601.124390       1.56851649    
   1.33532202     -0.277671993       0.00000000       601.124390       1.56851649    
   1.33076501     -0.276203990     -0.303492010       601.124390       1.56851649    
   1.28844094     -0.428344995     -0.303512990       601.124390       1.56851649    
   1.33076501     -0.276203990     -0.303492010       427.843994       1.57312548    
   1.35229194     -0.119709998     -0.303514004       427.843994       1.57312548    
   1.35321999     -0.119608998     -0.606999993       427.843994       1.57312548    
   1.33549094     -0.277112991     -0.606999993       427.843994       1.57312548    
   1.33076501     -0.276203990     -0.303492010       647.536255       1.57363665    
   1.33549094     -0.277112991     -0.606999993       647.536255       1.57363665    
   1.28952503     -0.428642988     -0.606999993       647.536255       1.57363665    
   1.28844094     -0.428344995     -0.303512990       647.536255       1.57363665    
   1.33076501     -0.276203990     -0.303492010       332.239166       1.56805146    
   1.33532202     -0.277671993       0.00000000       332.239166       1.56805146    
   1.35319102     -0.119900003       0.00000000       332.239166       1.56805146    
   1.35229194     -0.119709998     -0.303514004       332.239166       1.56805146    
   1.35319102     -0.119900003       0.00000000       100.930870       1.56794977    
   1.36124396       3.81390005E-02   0.00000000       100.930870       1.56794977    
   1.35858905       3.79349999E-02 -0.303501010       100.930870       1.56794977    
   1.35229194     -0.119709998     -0.303514004       100.930870       1.56794977    
   1.35858905       3.79349999E-02 -0.303501010       89.1534424      -1.56225312    
   1.34464097      0.195331007     -0.303496003       89.1534424      -1.56225312    
   1.34573400      0.195616007     -0.606999993       89.1534424      -1.56225312    
   1.36126804       3.78950015E-02 -0.606999993       89.1534424      -1.56225312    
   1.35858905       3.79349999E-02 -0.303501010       141.778290       1.57141721    
   1.36126804       3.78950015E-02 -0.606999993       141.778290       1.57141721    
   1.35321999     -0.119608998     -0.606999993       141.778290       1.57141721    
   1.35229194     -0.119709998     -0.303514004       141.778290       1.57141721    
   1.35858905       3.79349999E-02 -0.303501010       113.238892      -1.57389188    
   1.36124396       3.81390005E-02   0.00000000       113.238892      -1.57389188    
   1.34575403      0.195406005       0.00000000       113.238892      -1.57389188    
   1.34464097      0.195331007     -0.303496003       113.238892      -1.57389188    
   1.34575403      0.195406005       0.00000000       334.280884      -1.57385325    
   1.31339800      0.349945009       0.00000000       334.280884      -1.57385325    
   1.31216300      0.349725991     -0.303487003       334.280884      -1.57385325    
   1.34464097      0.195331007     -0.303496003       334.280884      -1.57385325    
   1.31216300      0.349725991     -0.303487003       580.964661      -1.56660390    
   1.26341999      0.500032008     -0.303494006       580.964661      -1.56660390    
   1.26736605      0.501691997     -0.606999993       580.964661      -1.56660390    
   1.31333196      0.350163996     -0.606999993       580.964661      -1.56660390    
   1.31216300      0.349725991     -0.303487003       323.328094      -1.56583166    
   1.31333196      0.350163996     -0.606999993       323.328094      -1.56583166    
   1.34573400      0.195616007     -0.606999993       323.328094      -1.56583166    
   1.34464097      0.195331007     -0.303496003       323.328094      -1.56583166    
   1.31216300      0.349725991     -0.303487003       547.235962      -1.57405102    
   1.31339800      0.349945009       0.00000000       547.235962      -1.57405102    
   1.26751196      0.501209974       0.00000000       547.235962      -1.57405102    
   1.26341999      0.500032008     -0.303494006       547.235962      -1.57405102    
   1.26751196      0.501209974       0.00000000       762.225647      -1.57390296    
   1.19658697      0.643051028       0.00000000       762.225647      -1.57390296    
   1.19583094      0.642783999     -0.303505003       762.225647      -1.57390296    
   1.26341999      0.500032008     -0.303494006       762.225647      -1.57390296    
   1.19583094      0.642783999     -0.303505003       1020.56793      -1.56682682    
   1.11495602      0.778467000     -0.303483993       1020.56793      -1.56682682    
   1.11731696      0.779847026     -0.606999993       1020.56793      -1.56682682    
   1.19653296      0.643149972     -0.606999993       1020.56793      -1.56682682    
   1.19583094      0.642783999     -0.303505003       798.669434      -1.56672728    
   1.19653296      0.643149972     -0.606999993       798.669434      -1.56672728    
   1.26736605      0.501691997     -0.606999993       798.669434      -1.56672728    
   1.26341999      0.500032008     -0.303494006       798.669434      -1.56672728    
   1.19583094      0.642783999     -0.303505003       959.423157      -1.57384932    
   1.19658697      0.643051028       0.00000000       959.423157      -1.57384932    
   1.11705506      0.780165970       0.00000000       959.423157      -1.57384932    
   1.11495602      0.778467000     -0.303483993       959.423157      -1.57384932    
   1.11705506      0.780165970       0.00000000       1137.80273      -1.57374883    
   1.01674199      0.902397990       0.00000000       1137.80273      -1.57374883    
   1.01591504      0.901737988     -0.303478003       1137.80273      -1.57374883    
   1.11495602      0.778467000     -0.303483993       1137.80273      -1.57374883    
   1.01591504      0.901737988     -0.303478003       1397.88696      -1.56688261    
  0.904204011       1.01322901     -0.303456992       1397.88696      -1.56688261    
  0.905143023       1.01448905     -0.606999993       1397.88696      -1.56688261    
   1.01659799      0.902572989     -0.606999993       1397.88696      -1.56688261    
   1.01591504      0.901737988     -0.303478003       1221.52161      -1.56688046    
   1.01659799      0.902572989     -0.606999993       1221.52161      -1.56688046    
   1.11731696      0.779847026     -0.606999993       1221.52161      -1.56688046    
   1.11495602      0.778467000     -0.303483993       1221.52161      -1.56688046    
   1.01591504      0.901737988     -0.303478003       1308.55249      -1.57353795    
   1.01674199      0.902397990       0.00000000       1308.55249      -1.57353795    
  0.905318975       1.01434398       0.00000000       1308.55249      -1.57353795    
  0.904204011       1.01322901     -0.303456992       1308.55249      -1.57353795    
  0.905318975       1.01434398       0.00000000       1470.13391      -1.57351625    
  0.782918990       1.11479497       0.00000000       1470.13391      -1.57351625    
  0.780644000       1.11195600     -0.303485006       1470.13391      -1.57351625    
  0.904204011       1.01322901     -0.303456992       1470.13391      -1.57351625    
  0.780644000       1.11195600     -0.303485006       1683.76550      -1.56691420    
  0.645825028       1.19414902     -0.303514004       1683.76550      -1.56691420    
  0.646153986       1.19492805     -0.606999993       1683.76550      -1.56691420    
  0.782611012       1.11504900     -0.606999993       1683.76550      -1.56691420    
  0.780644000       1.11195600     -0.303485006       1552.14771      -1.56689906    
  0.782611012       1.11504900     -0.606999993       1552.14771      -1.56689906    
  0.905143023       1.01448905     -0.606999993       1552.14771      -1.56689906    
  0.904204011       1.01322901     -0.303456992       1552.14771      -1.56689906    
  0.780644000       1.11195600     -0.303485006       1604.85400      -1.57340300    
  0.782918990       1.11479497       0.00000000       1604.85400      -1.57340300    
  0.646345019       1.19482601       0.00000000       1604.85400      -1.57340300    
  0.645825028       1.19414902     -0.303514004       1604.85400      -1.57340300    
  0.646345019       1.19482601       0.00000000       1713.75696      -1.57340550    
  0.504974008       1.26637006       0.00000000       1713.75696      -1.57340550    
  0.503772974       1.26314998     -0.303521991       1713.75696      -1.57340550    
  0.645825028       1.19414902     -0.303514004       1713.75696      -1.57340550    
  0.503772974       1.26314998     -0.303521991       1887.32495      -1.56700373    
  0.353130996       1.31116498     -0.303510994       1887.32495      -1.56700373    
  0.353300005       1.31237996     -0.606999993       1887.32495      -1.56700373    
  0.505183995       1.26630700     -0.606999993       1887.32495      -1.56700373    
  0.503772974       1.26314998     -0.303521991       1797.59546      -1.56695843    
  0.505183995       1.26630700     -0.606999993       1797.59546      -1.56695843    
  0.646153986       1.19492805     -0.606999993       1797.59546      -1.56695843    
  0.645825028       1.19414902     -0.303514004       1797.59546      -1.56695843    
  0.503772974       1.26314998     -0.303521991       1802.87598      -1.57336795    
  0.504974008       1.26637006       0.00000000       1802.87598      -1.57336795    
  0.353493989       1.31232095       0.00000000       1802.87598      -1.57336795    
  0.353130996       1.31116498     -0.303510994       1802.87598      -1.57336795    
  0.353493989       1.31232095       0.00000000       1877.79028      -1.57323456    
  0.199064001       1.34539402       0.00000000       1877.79028      -1.57323456    
  0.198755994       1.34360003     -0.303496003       1877.79028      -1.57323456    
  0.353130996       1.31116498     -0.303510994       1877.79028      -1.57323456    
  0.198755994       1.34360003     -0.303496003       1974.30750      -1.56705964    
   4.12769988E-02   1.35817802     -0.303508013       1974.30750      -1.56705964    
   4.12410013E-02   1.36093795     -0.606999993       1974.30750      -1.56705964    
  0.199025005       1.34539795     -0.606999993       1974.30750      -1.56705964    
  0.198755994       1.34360003     -0.303496003       1950.62378      -1.56703341    
  0.199025005       1.34539795     -0.606999993       1950.62378      -1.56703341    
  0.353300005       1.31237996     -0.606999993       1950.62378      -1.56703341    
  0.353130996       1.31116498     -0.303510994       1950.62378      -1.56703341    
  0.198755994       1.34360003     -0.303496003       1917.37646      -1.57329118    
  0.199064001       1.34539402       0.00000000       1917.37646      -1.57329118    
   4.17769998E-02   1.36088502       0.00000000       1917.37646      -1.57329118    
   4.12769988E-02   1.35817802     -0.303508013       1917.37646      -1.57329118    
   4.17769998E-02   1.36088502       0.00000000       1956.64807      -1.57323289    
 -0.116410002       1.35353506       0.00000000       1956.64807      -1.57323289    
 -0.116471998       1.35271096     -0.303496987       1956.64807      -1.57323289    
   4.12769988E-02   1.35817802     -0.303508013       1956.64807      -1.57323289    
 -0.116471998       1.35271096     -0.303496987       2007.60779      -1.56716120    
 -0.273027003       1.33229196     -0.303496003       2007.60779      -1.56716120    
 -0.273876995       1.33647299     -0.606999993       2007.60779      -1.56716120    
 -0.116722003       1.35350394     -0.606999993       2007.60779      -1.56716120    
 -0.116471998       1.35271096     -0.303496987       1985.43127      -1.56707978    
 -0.116722003       1.35350394     -0.606999993       1985.43127      -1.56707978    
   4.12410013E-02   1.36093795     -0.606999993       1985.43127      -1.56707978    
   4.12769988E-02   1.35817802     -0.303508013       1985.43127      -1.56707978    
 -0.116471998       1.35271096     -0.303496987       1950.78101      -1.57333231    
 -0.116410002       1.35353506       0.00000000       1950.78101      -1.57333231    
 -0.274069011       1.33641505       0.00000000       1950.78101      -1.57333231    
 -0.273027003       1.33229196     -0.303496003       1950.78101      -1.57333231    
 -0.274069011       1.33641505       0.00000000       1908.55249      -1.57332730    
 -0.425588995       1.29045200       0.00000000       1908.55249      -1.57332730    
 -0.425258011       1.28953803     -0.303507000       1908.55249      -1.57332730    
 -0.273027003       1.33229196     -0.303496003       1908.55249      -1.57332730    
 -0.425258011       1.28953803     -0.303507000       1895.76477      -1.56712413    
 -0.572302997       1.23206902     -0.303485990       1895.76477      -1.56712413    
 -0.573064029       1.23399496     -0.606999993       1895.76477      -1.56712413    
 -0.425651014       1.29043305     -0.606999993       1895.76477      -1.56712413    
 -0.425258011       1.28953803     -0.303507000       1965.11768      -1.56715965    
 -0.425651014       1.29043305     -0.606999993       1965.11768      -1.56715965    
 -0.273876995       1.33647299     -0.606999993       1965.11768      -1.56715965    
 -0.273027003       1.33229196     -0.303496003       1965.11768      -1.56715965    
 -0.425258011       1.28953803     -0.303507000       1832.42419      -1.57310259    
 -0.425588995       1.29045200       0.00000000       1832.42419      -1.57310259    
 -0.573195994       1.23392498       0.00000000       1832.42419      -1.57310259    
 -0.572302997       1.23206902     -0.303485990       1832.42419      -1.57310259    
 -0.573195994       1.23392498       0.00000000       1722.04346      -1.57299769    
 -0.712655008       1.15938199       0.00000000       1722.04346      -1.57299769    
 -0.711889029       1.15749002     -0.303496003       1722.04346      -1.57299769    
 -0.572302997       1.23206902     -0.303485990       1722.04346      -1.57299769    
 -0.711889029       1.15749002     -0.303496003       1678.38428      -1.56703794    
 -0.840825975       1.06629205     -0.303485990       1678.38428      -1.56703794    
 -0.841368973       1.06682706     -0.606999993       1678.38428      -1.56703794    
 -0.712980986       1.15920806     -0.606999993       1678.38428      -1.56703794    
 -0.711889029       1.15749002     -0.303496003       1797.31250      -1.56708658    
 -0.712980986       1.15920806     -0.606999993       1797.31250      -1.56708658    
 -0.573064029       1.23399496     -0.606999993       1797.31250      -1.56708658    
 -0.572302997       1.23206902     -0.303485990       1797.31250      -1.56708658    
 -0.711889029       1.15749002     -0.303496003       1591.54480      -1.57282722    
 -0.712655008       1.15938199       0.00000000       1591.54480      -1.57282722    
 -0.841165006       1.06699395       0.00000000       1591.54480      -1.57282722    
 -0.840825975       1.06629205     -0.303485990       1591.54480      -1.57282722    
 -0.841165006       1.06699395       0.00000000       1440.41797      -1.57288301    
 -0.963320017      0.966744006       0.00000000       1440.41797      -1.57288301    
 -0.960084975      0.962615013     -0.303470999       1440.41797      -1.57288301    
 -0.840825975       1.06629205     -0.303485990       1440.41797      -1.57288301    
 -0.960084975      0.962615013     -0.303470999       1364.33618      -1.56695807    
  -1.06383705      0.843237996     -0.303481996       1364.33618      -1.56695807    
  -1.06481802      0.843816996     -0.606999993       1364.33618      -1.56695807    
 -0.963873982      0.966289997     -0.606999993       1364.33618      -1.56695807    
 -0.960084975      0.962615013     -0.303470999       1529.84326      -1.56699002    
 -0.963873982      0.966289997     -0.606999993       1529.84326      -1.56699002    
 -0.841368973       1.06682706     -0.606999993       1529.84326      -1.56699002    
 -0.840825975       1.06629205     -0.303485990       1529.84326      -1.56699002    
 -0.960084975      0.962615013     -0.303470999       1285.81604      -1.57289398    
 -0.963320017      0.966744006       0.00000000       1285.81604      -1.57289398    
  -1.06464398      0.844029009       0.00000000       1285.81604      -1.57289398    
  -1.06383705      0.843237996     -0.303481996       1285.81604      -1.57289398    
  -1.06464398      0.844029009       0.00000000       1107.60034      -1.57277763    
  -1.15769398      0.715813994       0.00000000       1107.60034      -1.57277763    
  -1.15564799      0.714680016     -0.303483993       1107.60034      -1.57277763    
  -1.06383705      0.843237996     -0.303481996       1107.60034      -1.57277763    
  -1.15564799      0.714680016     -0.303483993       981.855652      -1.56692982    
  -1.23108304      0.575536013     -0.303514004       981.855652      -1.56692982    
  -1.23232996      0.576179981     -0.606999993       981.855652      -1.56692982    
  -1.15756094      0.716063023     -0.606999993       981.855652      -1.56692982    
  -1.15564799      0.714680016     -0.303483993       1181.28577      -1.56694472    
  -1.15756094      0.716063023     -0.606999993       1181.28577      -1.56694472    
  -1.06481802      0.843816996     -0.606999993       1181.28577      -1.56694472    
  -1.06383705      0.843237996     -0.303481996       1181.28577      -1.56694472    
  -1.15564799      0.714680016     -0.303483993       921.749329      -1.57276320    
  -1.15769398      0.715813994       0.00000000       921.749329      -1.57276320    
  -1.23224795      0.576331973       0.00000000       921.749329      -1.57276320    
  -1.23108304      0.575536013     -0.303514004       921.749329      -1.57276320    
  -1.23224795      0.576331973       0.00000000       723.202332      -1.57251930    
  -1.28948605      0.428772002       0.00000000       723.202332      -1.57251930    
  -1.28842103      0.428404987     -0.303512990       723.202332      -1.57251930    
  -1.23108304      0.575536013     -0.303514004       723.202332      -1.57251930    
  -1.28842103      0.428404987     -0.303512990       537.696106      -1.56679678    
  -1.33082402      0.275959998     -0.303492010       537.696106      -1.56679678    
  -1.33550000      0.277083993     -0.606999993       537.696106      -1.56679678    