 VARIABLES="X" "Y" "Z" "abs(p) (Pa)" "angle(p) (rad)"
ZONE N=   2720,E =    2069, F=FEPOINT, ET=QUADRILATERAL
 -0.767116010      -1.12776399       0.00000000       9476.12402     -0.169357583    
 -0.769354999      -1.12002099     -0.303523988       9476.12402     -0.169357583    
 -0.896136999      -1.02028203     -0.303463012       9476.12402     -0.169357583    
 -0.894908011      -1.02288902       0.00000000       9476.12402     -0.169357583    
 -0.767116010      -1.12776399       0.00000000       8554.34082     -0.100313328    
 -0.630888999      -1.20308697       0.00000000       8554.34082     -0.100313328    
 -0.635528028      -1.19958198     -0.303541005       8554.34082     -0.100313328    
 -0.769354999      -1.12002099     -0.303523988       8554.34082     -0.100313328    
 -0.635528028      -1.19958198     -0.303541005       5454.63867      -1.68960933E-02
 -0.495362997      -1.26606500     -0.303519011       5454.63867      -1.68960933E-02
 -0.499298006      -1.26809204     -0.606999993       5454.63867      -1.68960933E-02
 -0.640147984      -1.19813800     -0.606998026       5454.63867      -1.68960933E-02
 -0.635528028      -1.19958198     -0.303541005       6068.81396      -7.04671592E-02
 -0.640147984      -1.19813800     -0.606998026       6068.81396      -7.04671592E-02
 -0.777105987      -1.11956596     -0.606999993       6068.81396      -7.04671592E-02
 -0.769354999      -1.12002099     -0.303523988       6068.81396      -7.04671592E-02
 -0.635528028      -1.19958198     -0.303541005       7699.65430      -4.00453657E-02
 -0.630888999      -1.20308697       0.00000000       7699.65430      -4.00453657E-02
 -0.494486004      -1.26955199       0.00000000       7699.65430      -4.00453657E-02
 -0.495362997      -1.26606500     -0.303519011       7699.65430      -4.00453657E-02
 -0.494486004      -1.26955199       0.00000000       6925.74658      -7.65133696E-03
 -0.346311986      -1.31449997       0.00000000       6925.74658      -7.65133696E-03
 -0.346753001      -1.31307304     -0.303510010       6925.74658      -7.65133696E-03
 -0.495362997      -1.26606500     -0.303519011       6925.74658      -7.65133696E-03
 -0.346753001      -1.31307304     -0.303510010       4464.72217       8.93080328E-03
 -0.193608001      -1.34425998     -0.303494990       4464.72217       8.93080328E-03
 -0.195028007      -1.34579206     -0.606999993       4464.72217       8.93080328E-03
 -0.348751009      -1.31376004     -0.606999993       4464.72217       8.93080328E-03
 -0.346753001      -1.31307304     -0.303510010       4896.30762       9.37603880E-03
 -0.348751009      -1.31376004     -0.606999993       4896.30762       9.37603880E-03
 -0.499298006      -1.26809204     -0.606999993       4896.30762       9.37603880E-03
 -0.495362997      -1.26606500     -0.303519011       4896.30762       9.37603880E-03
 -0.346753001      -1.31307304     -0.303510010       6328.73730       5.89952106E-04
 -0.346311986      -1.31449997       0.00000000       6328.73730       5.89952106E-04
 -0.193381995      -1.34595394       0.00000000       6328.73730       5.89952106E-04
 -0.193608001      -1.34425998     -0.303494990       6328.73730       5.89952106E-04
 -0.193381995      -1.34595394       0.00000000       5959.24023      -1.98459905E-02
  -3.75179984E-02  -1.36130500       0.00000000       5959.24023      -1.98459905E-02
  -3.73950005E-02  -1.35827899     -0.303512007       5959.24023      -1.98459905E-02
 -0.193608001      -1.34425998     -0.303494990       5959.24023      -1.98459905E-02
  -3.73950005E-02  -1.35827899     -0.303512007       4161.78418      -6.75019920E-02
  0.119547002      -1.35239303     -0.303498000       4161.78418      -6.75019920E-02
  0.119135000      -1.35326600     -0.606999993       4161.78418      -6.75019920E-02
  -3.82840000E-02  -1.36122894     -0.606998980       4161.78418      -6.75019920E-02
  -3.73950005E-02  -1.35827899     -0.303512007       4199.56738      -2.02162322E-02
  -3.82840000E-02  -1.36122894     -0.606998980       4199.56738      -2.02162322E-02
 -0.195028007      -1.34579206     -0.606999993       4199.56738      -2.02162322E-02
 -0.193608001      -1.34425998     -0.303494990       4199.56738      -2.02162322E-02
  -3.73950005E-02  -1.35827899     -0.303512007       5877.20850      -5.83284609E-02
  -3.75179984E-02  -1.36130500       0.00000000       5877.20850      -5.83284609E-02
  0.119788997      -1.35320199       0.00000000       5877.20850      -5.83284609E-02
  0.119547002      -1.35239303     -0.303498000       5877.20850      -5.83284609E-02
  0.119788997      -1.35320199       0.00000000       6114.11377      -8.17252994E-02
  0.276576012      -1.33565402       0.00000000       6114.11377      -8.17252994E-02
  0.275435001      -1.33191597     -0.303496003       6114.11377      -8.17252994E-02
  0.119547002      -1.35239303     -0.303498000       6114.11377      -8.17252994E-02
  0.275435001      -1.33191597     -0.303496003       4728.91357     -0.114145584    
  0.427076995      -1.28898001     -0.303507000       4728.91357     -0.114145584    
  0.427242011      -1.28995001     -0.606999993       4728.91357     -0.114145584    
  0.275831014      -1.33588004     -0.606999993       4728.91357     -0.114145584    
  0.275435001      -1.33191597     -0.303496003       4341.47607     -0.101244859    
  0.275831014      -1.33588004     -0.606999993       4341.47607     -0.101244859    
  0.119135000      -1.35326600     -0.606999993       4341.47607     -0.101244859    
  0.119547002      -1.35239303     -0.303498000       4341.47607     -0.101244859    
  0.275435001      -1.33191597     -0.303496003       6633.42578      -8.83705467E-02
  0.276576012      -1.33565402       0.00000000       6633.42578      -8.83705467E-02
  0.427509993      -1.28986895       0.00000000       6633.42578      -8.83705467E-02
  0.427076995      -1.28898001     -0.303507000       6633.42578      -8.83705467E-02
  0.427509993      -1.28986895       0.00000000       7317.68994      -5.52875549E-02
  0.574636996      -1.23315501       0.00000000       7317.68994      -5.52875549E-02
  0.573706985      -1.23136795     -0.303485990       7317.68994      -5.52875549E-02
  0.427076995      -1.28898001     -0.303507000       7317.68994      -5.52875549E-02
  0.573706985      -1.23136795     -0.303485990       5846.25830      -3.77330072E-02
  0.712854981      -1.15688002     -0.303496987       5846.25830      -3.77330072E-02
  0.713809013      -1.15876603     -0.606999993       5846.25830      -3.77330072E-02
  0.574283004      -1.23334301     -0.606999993       5846.25830      -3.77330072E-02
  0.573706985      -1.23136795     -0.303485990       5249.15869      -8.70040357E-02
  0.574283004      -1.23334301     -0.606999993       5249.15869      -8.70040357E-02
  0.427242011      -1.28995001     -0.606999993       5249.15869      -8.70040357E-02
  0.427076995      -1.28898001     -0.303507000       5249.15869      -8.70040357E-02
  0.573706985      -1.23136795     -0.303485990       8149.63037       6.93879789E-04
  0.574636996      -1.23315501       0.00000000       8149.63037       6.93879789E-04
  0.713741004      -1.15880203       0.00000000       8149.63037       6.93879789E-04
  0.712854981      -1.15688002     -0.303496987       8149.63037       6.93879789E-04
  0.713741004      -1.15880203       0.00000000       9024.63379       7.22720176E-02
  0.841937006      -1.06636095       0.00000000       9024.63379       7.22720176E-02
  0.841498017      -1.06573403     -0.303485990       9024.63379       7.22720176E-02
  0.712854981      -1.15688002     -0.303496987       9024.63379       7.22720176E-02
  0.841498017      -1.06573403     -0.303485990       7090.99854      0.103308335    
  0.960639000     -0.962104976     -0.303470999       7090.99854      0.103308335    
  0.964356005     -0.965893984     -0.606999993       7090.99854      0.103308335    
  0.841796994      -1.06647599     -0.606999993       7090.99854      0.103308335    
  0.841498017      -1.06573403     -0.303485990       6476.56738       2.87174564E-02
  0.841796994      -1.06647599     -0.606999993       6476.56738       2.87174564E-02
  0.713809013      -1.15876603     -0.606999993       6476.56738       2.87174564E-02
  0.712854981      -1.15688002     -0.303496987       6476.56738       2.87174564E-02
  0.841498017      -1.06573403     -0.303485990       9914.54199      0.153415412    
  0.841937006      -1.06636095       0.00000000       9914.54199      0.153415412    
  0.963932991     -0.966242015       0.00000000       9914.54199      0.153415412    
  0.960639000     -0.962104976     -0.303470999       9914.54199      0.153415412    
  0.963932991     -0.966242015       0.00000000       10749.6035      0.230505362    
   1.06506598     -0.843514979       0.00000000       10749.6035      0.230505362    
   1.06428695     -0.842682004     -0.303481996       10749.6035      0.230505362    
  0.960639000     -0.962104976     -0.303470999       10749.6035      0.230505362    
   1.06428695     -0.842682004     -0.303481996       8203.87305      0.249714449    
   1.15591598     -0.714210987     -0.303485006       8203.87305      0.249714449    
   1.15788805     -0.715448976     -0.606999993       8203.87305      0.249714449    
   1.06537795     -0.843134999     -0.606999993       8203.87305      0.249714449    
   1.06428695     -0.842682004     -0.303481996       7680.60742      0.176585197    
   1.06537795     -0.843134999     -0.606999993       7680.60742      0.176585197    
  0.964356005     -0.965893984     -0.606999993       7680.60742      0.176585197    
  0.960639000     -0.962104976     -0.303470999       7680.60742      0.176585197    
   1.06428695     -0.842682004     -0.303481996       11424.2588      0.305748820    
   1.06506598     -0.843514979       0.00000000       11424.2588      0.305748820    
   1.15792501     -0.715381980       0.00000000       11424.2588      0.305748820    
   1.15591598     -0.714210987     -0.303485006       11424.2588      0.305748820    
   1.15792501     -0.715381980       0.00000000       12088.8418      0.371674269    
   1.23237598     -0.576093972       0.00000000       12088.8418      0.371674269    
   1.23120904     -0.575251997     -0.303514004       12088.8418      0.371674269    
   1.15591598     -0.714210987     -0.303485006       12088.8418      0.371674269    
   1.23120904     -0.575251997     -0.303514004       9032.77246      0.364224136    
   1.28844094     -0.428344995     -0.303512990       9032.77246      0.364224136    
   1.28952503     -0.428642988     -0.606999993       9032.77246      0.364224136    
   1.23252702     -0.575810015     -0.606999993       9032.77246      0.364224136    
   1.23120904     -0.575251997     -0.303514004       8662.12500      0.312114567    
   1.23252702     -0.575810015     -0.606999993       8662.12500      0.312114567    
   1.15788805     -0.715448976     -0.606999993       8662.12500      0.312114567    
   1.15591598     -0.714210987     -0.303485006       8662.12500      0.312114567    
   1.23120904     -0.575251997     -0.303514004       12637.5693      0.426449031    
   1.23237598     -0.576093972       0.00000000       12637.5693      0.426449031    
   1.28947699     -0.428801000       0.00000000       12637.5693      0.426449031    
   1.28844094     -0.428344995     -0.303512990       12637.5693      0.426449031    
   1.28947699     -0.428801000       0.00000000       13078.4023      0.468755603    
   1.33532202     -0.277671993       0.00000000       13078.4023      0.468755603    
   1.33076501     -0.276203990     -0.303492010       13078.4023      0.468755603    
   1.28844094     -0.428344995     -0.303512990       13078.4023      0.468755603    
   1.33076501     -0.276203990     -0.303492010       9490.58691      0.429255217    
   1.35229194     -0.119709998     -0.303514004       9490.58691      0.429255217    
   1.35321999     -0.119608998     -0.606999993       9490.58691      0.429255217    
   1.33549094     -0.277112991     -0.606999993       9490.58691      0.429255217    
   1.33076501     -0.276203990     -0.303492010       9311.05469      0.403540254    
   1.33549094     -0.277112991     -0.606999993       9311.05469      0.403540254    
   1.28952503     -0.428642988     -0.606999993       9311.05469      0.403540254    
   1.28844094     -0.428344995     -0.303512990       9311.05469      0.403540254    
   1.33076501     -0.276203990     -0.303492010       13341.1729      0.494792789    
   1.33532202     -0.277671993       0.00000000       13341.1729      0.494792789    
   1.35319102     -0.119900003       0.00000000       13341.1729      0.494792789    
   1.35229194     -0.119709998     -0.303514004       13341.1729      0.494792789    
   1.35319102     -0.119900003       0.00000000       13449.2441      0.505860031    
   1.36124396       3.81390005E-02   0.00000000       13449.2441      0.505860031    
   1.35858905       3.79349999E-02 -0.303501010       13449.2441      0.505860031    
   1.35229194     -0.119709998     -0.303514004       13449.2441      0.505860031    
   1.35858905       3.79349999E-02 -0.303501010       9560.84668      0.436595351    
   1.34464097      0.195331007     -0.303496003       9560.84668      0.436595351    
   1.34573400      0.195616007     -0.606999993       9560.84668      0.436595351    
   1.36126804       3.78950015E-02 -0.606999993       9560.84668      0.436595351    
   1.35858905       3.79349999E-02 -0.303501010       9576.94727      0.440284789    
   1.36126804       3.78950015E-02 -0.606999993       9576.94727      0.440284789    
   1.35321999     -0.119608998     -0.606999993       9576.94727      0.440284789    
   1.35229194     -0.119709998     -0.303514004       9576.94727      0.440284789    
   1.35858905       3.79349999E-02 -0.303501010       13435.8213      0.502255917    
   1.36124396       3.81390005E-02   0.00000000       13435.8213      0.502255917    
   1.34575403      0.195406005       0.00000000       13435.8213      0.502255917    
   1.34464097      0.195331007     -0.303496003       13435.8213      0.502255917    
   1.34575403      0.195406005       0.00000000       13271.3252      0.482523531    
   1.31339800      0.349945009       0.00000000       13271.3252      0.482523531    
   1.31216300      0.349725991     -0.303487003       13271.3252      0.482523531    
   1.34464097      0.195331007     -0.303496003       13271.3252      0.482523531    
   1.31216300      0.349725991     -0.303487003       9217.32520      0.384870529    
   1.26341999      0.500032008     -0.303494006       9217.32520      0.384870529    
   1.26736605      0.501691997     -0.606999993       9217.32520      0.384870529    
   1.31333196      0.350163996     -0.606999993       9217.32520      0.384870529    
   1.31216300      0.349725991     -0.303487003       9440.10938      0.418234110    
   1.31333196      0.350163996     -0.606999993       9440.10938      0.418234110    
   1.34573400      0.195616007     -0.606999993       9440.10938      0.418234110    
   1.34464097      0.195331007     -0.303496003       9440.10938      0.418234110    
   1.31216300      0.349725991     -0.303487003       12986.6484      0.448576272    
   1.31339800      0.349945009       0.00000000       12986.6484      0.448576272    
   1.26751196      0.501209974       0.00000000       12986.6484      0.448576272    
   1.26341999      0.500032008     -0.303494006       12986.6484      0.448576272    
   1.26751196      0.501209974       0.00000000       12553.3652      0.400934666    
   1.19658697      0.643051028       0.00000000       12553.3652      0.400934666    
   1.19583094      0.642783999     -0.303505003       12553.3652      0.400934666    
   1.26341999      0.500032008     -0.303494006       12553.3652      0.400934666    
   1.19583094      0.642783999     -0.303505003       8498.35547      0.281664848    
   1.11495602      0.778467000     -0.303483993       8498.35547      0.281664848    
   1.11731696      0.779847026     -0.606999993       8498.35547      0.281664848    
   1.19653296      0.643149972     -0.606999993       8498.35547      0.281664848    
   1.19583094      0.642783999     -0.303505003       8898.39062      0.339556634    
   1.19653296      0.643149972     -0.606999993       8898.39062      0.339556634    
   1.26736605      0.501691997     -0.606999993       8898.39062      0.339556634    
   1.26341999      0.500032008     -0.303494006       8898.39062      0.339556634    
   1.19583094      0.642783999     -0.303505003       11947.5449      0.339535952    
   1.19658697      0.643051028       0.00000000       11947.5449      0.339535952    
   1.11705506      0.780165970       0.00000000       11947.5449      0.339535952    
   1.11495602      0.778467000     -0.303483993       11947.5449      0.339535952    
   1.11705506      0.780165970       0.00000000       11206.2158      0.269762307    
   1.01674199      0.902397990       0.00000000       11206.2158      0.269762307    
   1.01591504      0.901737988     -0.303478003       11206.2158      0.269762307    
   1.11495602      0.778467000     -0.303483993       11206.2158      0.269762307    
   1.01591504      0.901737988     -0.303478003       7437.27393      0.140796289    
  0.904204011       1.01322901     -0.303456992       7437.27393      0.140796289    
  0.905143023       1.01448905     -0.606999993       7437.27393      0.140796289    
   1.01659799      0.902572989     -0.606999993       7437.27393      0.140796289    
   1.01591504      0.901737988     -0.303478003       8001.68994      0.214701653    
   1.01659799      0.902572989     -0.606999993       8001.68994      0.214701653    
   1.11731696      0.779847026     -0.606999993       8001.68994      0.214701653    
   1.11495602      0.778467000     -0.303483993       8001.68994      0.214701653    
   1.01591504      0.901737988     -0.303478003       10373.0439      0.190959632    
   1.01674199      0.902397990       0.00000000       10373.0439      0.190959632    
  0.905318975       1.01434398       0.00000000       10373.0439      0.190959632    
  0.904204011       1.01322901     -0.303456992       10373.0439      0.190959632    
  0.905318975       1.01434398       0.00000000       9556.97559      0.109940313    
  0.782918990       1.11479497       0.00000000       9556.97559      0.109940313    
  0.780644000       1.11195600     -0.303485006       9556.97559      0.109940313    
  0.904204011       1.01322901     -0.303456992       9556.97559      0.109940313    
  0.780644000       1.11195600     -0.303485006       6193.70020      -7.28408527E-03
  0.645825028       1.19414902     -0.303514004       6193.70020      -7.28408527E-03
  0.646153986       1.19492805     -0.606999993       6193.70020      -7.28408527E-03
  0.782611012       1.11504900     -0.606999993       6193.70020      -7.28408527E-03
  0.780644000       1.11195600     -0.303485006       6828.02051       6.34724125E-02
  0.782611012       1.11504900     -0.606999993       6828.02051       6.34724125E-02
  0.905143023       1.01448905     -0.606999993       6828.02051       6.34724125E-02
  0.904204011       1.01322901     -0.303456992       6828.02051       6.34724125E-02
  0.780644000       1.11195600     -0.303485006       8667.74707       3.41918133E-02
  0.782918990       1.11479497       0.00000000       8667.74707       3.41918133E-02
  0.646345019       1.19482601       0.00000000       8667.74707       3.41918133E-02
  0.645825028       1.19414902     -0.303514004       8667.74707       3.41918133E-02
  0.646345019       1.19482601       0.00000000       7816.20605      -3.47813964E-02
  0.504974008       1.26637006       0.00000000       7816.20605      -3.47813964E-02
  0.503772974       1.26314998     -0.303521991       7816.20605      -3.47813964E-02
  0.645825028       1.19414902     -0.303514004       7816.20605      -3.47813964E-02
  0.503772974       1.26314998     -0.303521991       5000.07471     -0.105834447    
  0.353130996       1.31116498     -0.303510994       5000.07471     -0.105834447    
  0.353300005       1.31237996     -0.606999993       5000.07471     -0.105834447    
  0.505183995       1.26630700     -0.606999993       5000.07471     -0.105834447    
  0.503772974       1.26314998     -0.303521991       5577.80371      -6.97135776E-02
  0.505183995       1.26630700     -0.606999993       5577.80371      -6.97135776E-02
  0.646153986       1.19492805     -0.606999993       5577.80371      -6.97135776E-02
  0.645825028       1.19414902     -0.303514004       5577.80371      -6.97135776E-02
  0.503772974       1.26314998     -0.303521991       7006.75391      -7.62570575E-02
  0.504974008       1.26637006       0.00000000       7006.75391      -7.62570575E-02
  0.353493989       1.31232095       0.00000000       7006.75391      -7.62570575E-02
  0.353130996       1.31116498     -0.303510994       7006.75391      -7.62570575E-02
  0.353493989       1.31232095       0.00000000       6364.15869      -9.40594301E-02
  0.199064001       1.34539402       0.00000000       6364.15869      -9.40594301E-02
  0.198755994       1.34360003     -0.303496003       6364.15869      -9.40594301E-02
  0.353130996       1.31116498     -0.303510994       6364.15869      -9.40594301E-02
  0.198755994       1.34360003     -0.303496003       4235.13770      -9.43912193E-02
   4.12769988E-02   1.35817802     -0.303508013       4235.13770      -9.43912193E-02
   4.12410013E-02   1.36093795     -0.606999993       4235.13770      -9.43912193E-02
  0.199025005       1.34539795     -0.606999993       4235.13770      -9.43912193E-02
  0.198755994       1.34360003     -0.303496003       4542.16797     -0.115672030    
  0.199025005       1.34539795     -0.606999993       4542.16797     -0.115672030    
  0.353300005       1.31237996     -0.606999993       4542.16797     -0.115672030    
  0.353130996       1.31116498     -0.303510994       4542.16797     -0.115672030    
  0.198755994       1.34360003     -0.303496003       5962.61719      -7.97089413E-02
  0.199064001       1.34539402       0.00000000       5962.61719      -7.97089413E-02
   4.17769998E-02   1.36088502       0.00000000       5962.61719      -7.97089413E-02
   4.12769988E-02   1.35817802     -0.303508013       5962.61719      -7.97089413E-02
   4.17769998E-02   1.36088502       0.00000000       5880.40674      -4.25608791E-02
 -0.116410002       1.35353506       0.00000000       5880.40674      -4.25608791E-02
 -0.116471998       1.35271096     -0.303496987       5880.40674      -4.25608791E-02
   4.12769988E-02   1.35817802     -0.303508013       5880.40674      -4.25608791E-02
 -0.116471998       1.35271096     -0.303496987       4303.91992      -1.04237860E-02
 -0.273027003       1.33229196     -0.303496003       4303.91992      -1.04237860E-02
 -0.273876995       1.33647299     -0.606999993       4303.91992      -1.04237860E-02
 -0.116722003       1.35350394     -0.606999993       4303.91992      -1.04237860E-02
 -0.116471998       1.35271096     -0.303496987       4157.28760      -4.86714244E-02
 -0.116722003       1.35350394     -0.606999993       4157.28760      -4.86714244E-02
   4.12410013E-02   1.36093795     -0.606999993       4157.28760      -4.86714244E-02
   4.12769988E-02   1.35817802     -0.303508013       4157.28760      -4.86714244E-02
 -0.116471998       1.35271096     -0.303496987       6132.72168      -1.48189180E-02
 -0.116410002       1.35353506       0.00000000       6132.72168      -1.48189180E-02
 -0.274069011       1.33641505       0.00000000       6132.72168      -1.48189180E-02
 -0.273027003       1.33229196     -0.303496003       6132.72168      -1.48189180E-02
 -0.274069011       1.33641505       0.00000000       6647.40967      -3.23192449E-04
 -0.425588995       1.29045200       0.00000000       6647.40967      -3.23192449E-04
 -0.425258011       1.28953803     -0.303507000       6647.40967      -3.23192449E-04
 -0.273027003       1.33229196     -0.303496003       6647.40967      -3.23192449E-04
 -0.425258011       1.28953803     -0.303507000       5173.77051      -5.33815054E-03
 -0.572302997       1.23206902     -0.303485990       5173.77051      -5.33815054E-03
 -0.573064029       1.23399496     -0.606999993       5173.77051      -5.33815054E-03
 -0.425651014       1.29043305     -0.606999993       5173.77051      -5.33815054E-03
 -0.425258011       1.28953803     -0.303507000       4665.01953       1.19867390E-02
 -0.425651014       1.29043305     -0.606999993       4665.01953       1.19867390E-02
 -0.273876995       1.33647299     -0.606999993       4665.01953       1.19867390E-02
 -0.273027003       1.33229196     -0.303496003       4665.01953       1.19867390E-02
 -0.425258011       1.28953803     -0.303507000       7318.68018      -2.47510783E-02
 -0.425588995       1.29045200       0.00000000       7318.68018      -2.47510783E-02
 -0.573195994       1.23392498       0.00000000       7318.68018      -2.47510783E-02
 -0.572302997       1.23206902     -0.303485990       7318.68018      -2.47510783E-02
 -0.573195994       1.23392498       0.00000000       8140.07178      -7.27888122E-02
 -0.712655008       1.15938199       0.00000000       8140.07178      -7.27888122E-02
 -0.711889029       1.15749002     -0.303496003       8140.07178      -7.27888122E-02
 -0.572302997       1.23206902     -0.303485990       8140.07178      -7.27888122E-02
 -0.711889029       1.15749002     -0.303496003       6401.11865     -0.106100254    
 -0.840825975       1.06629205     -0.303485990       6401.11865     -0.106100254    
 -0.841368973       1.06682706     -0.606999993       6401.11865     -0.106100254    
 -0.712980986       1.15920806     -0.606999993       6401.11865     -0.106100254    
 -0.711889029       1.15749002     -0.303496003       5766.55957      -4.60516810E-02
 -0.712980986       1.15920806     -0.606999993       5766.55957      -4.60516810E-02
 -0.573064029       1.23399496     -0.606999993       5766.55957      -4.60516810E-02
 -0.572302997       1.23206902     -0.303485990       5766.55957      -4.60516810E-02
 -0.711889029       1.15749002     -0.303496003       8990.04590     -0.138486713    
 -0.712655008       1.15938199       0.00000000       8990.04590     -0.138486713    
 -0.841165006       1.06699395       0.00000000       8990.04590     -0.138486713    
 -0.840825975       1.06629205     -0.303485990       8990.04590     -0.138486713    
 -0.841165006       1.06699395       0.00000000       9865.15625     -0.216064692    
 -0.963320017      0.966744006       0.00000000       9865.15625     -0.216064692    
 -0.960084975      0.962615013     -0.303470999       9865.15625     -0.216064692    
 -0.840825975       1.06629205     -0.303485990       9865.15625     -0.216064692    
 -0.960084975      0.962615013     -0.303470999       7637.25195     -0.246018797    
  -1.06383705      0.843237996     -0.303481996       7637.25195     -0.246018797    
  -1.06481802      0.843816996     -0.606999993       7637.25195     -0.246018797    
 -0.963873982      0.966289997     -0.606999993       7637.25195     -0.246018797    
 -0.960084975      0.962615013     -0.303470999       7028.37842     -0.176154435    
 -0.963873982      0.966289997     -0.606999993       7028.37842     -0.176154435    
 -0.841368973       1.06682706     -0.606999993       7028.37842     -0.176154435    
 -0.840825975       1.06629205     -0.303485990       7028.37842     -0.176154435    
 -0.960084975      0.962615013     -0.303470999       10735.6611     -0.290873468    
 -0.963320017      0.966744006       0.00000000       10735.6611     -0.290873468    
  -1.06464398      0.844029009       0.00000000       10735.6611     -0.290873468    
  -1.06383705      0.843237996     -0.303481996       10735.6611     -0.290873468    
  -1.06464398      0.844029009       0.00000000       11501.4951     -0.364268035    
  -1.15769398      0.715813994       0.00000000       11501.4951     -0.364268035    
  -1.15564799      0.714680016     -0.303483993       11501.4951     -0.364268035    
  -1.06383705      0.843237996     -0.303481996       11501.4951     -0.364268035    
  -1.15564799      0.714680016     -0.303483993       8674.45996     -0.376823723    
  -1.23108304      0.575536013     -0.303514004       8674.45996     -0.376823723    
  -1.23232996      0.576179981     -0.606999993       8674.45996     -0.376823723    
  -1.15756094      0.716063023     -0.606999993       8674.45996     -0.376823723    
  -1.15564799      0.714680016     -0.303483993       8189.27930     -0.316292912    
  -1.15756094      0.716063023     -0.606999993       8189.27930     -0.316292912    
  -1.06481802      0.843816996     -0.606999993       8189.27930     -0.316292912    
  -1.06383705      0.843237996     -0.303481996       8189.27930     -0.316292912    
  -1.15564799      0.714680016     -0.303483993       12248.2676     -0.428249031    
  -1.15769398      0.715813994       0.00000000       12248.2676     -0.428249031    
  -1.23224795      0.576331973       0.00000000       12248.2676     -0.428249031    
  -1.23108304      0.575536013     -0.303514004       12248.2676     -0.428249031    
  -1.23224795      0.576331973       0.00000000       12811.0479     -0.480929106    
  -1.28948605      0.428772002       0.00000000       12811.0479     -0.480929106    
  -1.28842103      0.428404987     -0.303512990       12811.0479     -0.480929106    
  -1.23108304      0.575536013     -0.303514004       12811.0479     -0.480929106    
  -1.28842103      0.428404987     -0.303512990       9341.82031     -0.465648562    
  -1.33082402      0.275959998     -0.303492010       9341.82031     -0.465648562    
  -1.33550000      0.277083993     -0.606999993       9341.82031     -0.465648562    