 VARIABLES="X" "Y" "Z" "abs(p) (Pa)" "angle(p) (rad)"
ZONE N=   2720,E =    2069, F=FEPOINT, ET=QUADRILATERAL
 -0.767116010      -1.12776399       0.00000000       522.248108       1.64009821    
 -0.769354999      -1.12002099     -0.303523988       522.248108       1.64009821    
 -0.896136999      -1.02028203     -0.303463012       522.248108       1.64009821    
 -0.894908011      -1.02288902       0.00000000       522.248108       1.64009821    
 -0.767116010      -1.12776399       0.00000000       444.723114       1.64049363    
 -0.630888999      -1.20308697       0.00000000       444.723114       1.64049363    
 -0.635528028      -1.19958198     -0.303541005       444.723114       1.64049363    
 -0.769354999      -1.12002099     -0.303523988       444.723114       1.64049363    
 -0.635528028      -1.19958198     -0.303541005       319.346863       1.65609705    
 -0.495362997      -1.26606500     -0.303519011       319.346863       1.65609705    
 -0.499298006      -1.26809204     -0.606999993       319.346863       1.65609705    
 -0.640147984      -1.19813800     -0.606998026       319.346863       1.65609705    
 -0.635528028      -1.19958198     -0.303541005       396.233765       1.65523553    
 -0.640147984      -1.19813800     -0.606998026       396.233765       1.65523553    
 -0.777105987      -1.11956596     -0.606999993       396.233765       1.65523553    
 -0.769354999      -1.12002099     -0.303523988       396.233765       1.65523553    
 -0.635528028      -1.19958198     -0.303541005       340.926270       1.64346588    
 -0.630888999      -1.20308697       0.00000000       340.926270       1.64346588    
 -0.494486004      -1.26955199       0.00000000       340.926270       1.64346588    
 -0.495362997      -1.26606500     -0.303519011       340.926270       1.64346588    
 -0.494486004      -1.26955199       0.00000000       257.277649       1.64495695    
 -0.346311986      -1.31449997       0.00000000       257.277649       1.64495695    
 -0.346753001      -1.31307304     -0.303510010       257.277649       1.64495695    
 -0.495362997      -1.26606500     -0.303519011       257.277649       1.64495695    
 -0.346753001      -1.31307304     -0.303510010       157.247574       1.66039586    
 -0.193608001      -1.34425998     -0.303494990       157.247574       1.66039586    
 -0.195028007      -1.34579206     -0.606999993       157.247574       1.66039586    
 -0.348751009      -1.31376004     -0.606999993       157.247574       1.66039586    
 -0.346753001      -1.31307304     -0.303510010       240.784729       1.65755761    
 -0.348751009      -1.31376004     -0.606999993       240.784729       1.65755761    
 -0.499298006      -1.26809204     -0.606999993       240.784729       1.65755761    
 -0.495362997      -1.26606500     -0.303519011       240.784729       1.65755761    
 -0.346753001      -1.31307304     -0.303510010       168.075897       1.64782369    
 -0.346311986      -1.31449997       0.00000000       168.075897       1.64782369    
 -0.193381995      -1.34595394       0.00000000       168.075897       1.64782369    
 -0.193608001      -1.34425998     -0.303494990       168.075897       1.64782369    
 -0.193381995      -1.34595394       0.00000000       97.2105255       1.64533257    
  -3.75179984E-02  -1.36130500       0.00000000       97.2105255       1.64533257    
  -3.73950005E-02  -1.35827899     -0.303512007       97.2105255       1.64533257    
 -0.193608001      -1.34425998     -0.303494990       97.2105255       1.64533257    
  -3.73950005E-02  -1.35827899     -0.303512007       17.2150593      -1.57777023    
  0.119547002      -1.35239303     -0.303498000       17.2150593      -1.57777023    
  0.119135000      -1.35326600     -0.606999993       17.2150593      -1.57777023    
  -3.82840000E-02  -1.36122894     -0.606998980       17.2150593      -1.57777023    
  -3.73950005E-02  -1.35827899     -0.303512007       68.7627335       1.67357564    
  -3.82840000E-02  -1.36122894     -0.606998980       68.7627335       1.67357564    
 -0.195028007      -1.34579206     -0.606999993       68.7627335       1.67357564    
 -0.193608001      -1.34425998     -0.303494990       68.7627335       1.67357564    
  -3.73950005E-02  -1.35827899     -0.303512007       5.46618652       1.74408686    
  -3.75179984E-02  -1.36130500       0.00000000       5.46618652       1.74408686    
  0.119788997      -1.35320199       0.00000000       5.46618652       1.74408686    
  0.119547002      -1.35239303     -0.303498000       5.46618652       1.74408686    
  0.119788997      -1.35320199       0.00000000       91.6947556      -1.50948930    
  0.276576012      -1.33565402       0.00000000       91.6947556      -1.50948930    
  0.275435001      -1.33191597     -0.303496003       91.6947556      -1.50948930    
  0.119547002      -1.35239303     -0.303498000       91.6947556      -1.50948930    
  0.275435001      -1.33191597     -0.303496003       172.772522      -1.49331284    
  0.427076995      -1.28898001     -0.303507000       172.772522      -1.49331284    
  0.427242011      -1.28995001     -0.606999993       172.772522      -1.49331284    
  0.275831014      -1.33588004     -0.606999993       172.772522      -1.49331284    
  0.275435001      -1.33191597     -0.303496003       89.9611359      -1.49708366    
  0.275831014      -1.33588004     -0.606999993       89.9611359      -1.49708366    
  0.119135000      -1.35326600     -0.606999993       89.9611359      -1.49708366    
  0.119547002      -1.35239303     -0.303498000       89.9611359      -1.49708366    
  0.275435001      -1.33191597     -0.303496003       180.733551      -1.50581586    
  0.276576012      -1.33565402       0.00000000       180.733551      -1.50581586    
  0.427509993      -1.28986895       0.00000000       180.733551      -1.50581586    
  0.427076995      -1.28898001     -0.303507000       180.733551      -1.50581586    
  0.427509993      -1.28986895       0.00000000       266.728699      -1.50412393    
  0.574636996      -1.23315501       0.00000000       266.728699      -1.50412393    
  0.573706985      -1.23136795     -0.303485990       266.728699      -1.50412393    
  0.427076995      -1.28898001     -0.303507000       266.728699      -1.50412393    
  0.573706985      -1.23136795     -0.303485990       335.000549      -1.49132490    
  0.712854981      -1.15688002     -0.303496987       335.000549      -1.49132490    
  0.713809013      -1.15876603     -0.606999993       335.000549      -1.49132490    
  0.574283004      -1.23334301     -0.606999993       335.000549      -1.49132490    
  0.573706985      -1.23136795     -0.303485990       255.841888      -1.49195290    
  0.574283004      -1.23334301     -0.606999993       255.841888      -1.49195290    
  0.427242011      -1.28995001     -0.606999993       255.841888      -1.49195290    
  0.427076995      -1.28898001     -0.303507000       255.841888      -1.49195290    
  0.573706985      -1.23136795     -0.303485990       351.971222      -1.50372255    
  0.574636996      -1.23315501       0.00000000       351.971222      -1.50372255    
  0.713741004      -1.15880203       0.00000000       351.971222      -1.50372255    
  0.712854981      -1.15688002     -0.303496987       351.971222      -1.50372255    
  0.713741004      -1.15880203       0.00000000       431.027496      -1.50336790    
  0.841937006      -1.06636095       0.00000000       431.027496      -1.50336790    
  0.841498017      -1.06573403     -0.303485990       431.027496      -1.50336790    
  0.712854981      -1.15688002     -0.303496987       431.027496      -1.50336790    
  0.841498017      -1.06573403     -0.303485990       473.560974      -1.48992872    
  0.960639000     -0.962104976     -0.303470999       473.560974      -1.48992872    
  0.964356005     -0.965893984     -0.606999993       473.560974      -1.48992872    
  0.841796994      -1.06647599     -0.606999993       473.560974      -1.48992872    
  0.841498017      -1.06573403     -0.303485990       405.152557      -1.49044907    
  0.841796994      -1.06647599     -0.606999993       405.152557      -1.49044907    
  0.713809013      -1.15876603     -0.606999993       405.152557      -1.49044907    
  0.712854981      -1.15688002     -0.303496987       405.152557      -1.49044907    
  0.841498017      -1.06573403     -0.303485990       511.836914      -1.50336111    
  0.841937006      -1.06636095       0.00000000       511.836914      -1.50336111    
  0.963932991     -0.966242015       0.00000000       511.836914      -1.50336111    
  0.960639000     -0.962104976     -0.303470999       511.836914      -1.50336111    
  0.963932991     -0.966242015       0.00000000       576.026306      -1.50306749    
   1.06506598     -0.843514979       0.00000000       576.026306      -1.50306749    
   1.06428695     -0.842682004     -0.303481996       576.026306      -1.50306749    
  0.960639000     -0.962104976     -0.303470999       576.026306      -1.50306749    
   1.06428695     -0.842682004     -0.303481996       602.310791      -1.49095964    
   1.15591598     -0.714210987     -0.303485006       602.310791      -1.49095964    
   1.15788805     -0.715448976     -0.606999993       602.310791      -1.49095964    
   1.06537795     -0.843134999     -0.606999993       602.310791      -1.49095964    
   1.06428695     -0.842682004     -0.303481996       533.293152      -1.48967767    
   1.06537795     -0.843134999     -0.606999993       533.293152      -1.48967767    
  0.964356005     -0.965893984     -0.606999993       533.293152      -1.48967767    
  0.960639000     -0.962104976     -0.303470999       533.293152      -1.48967767    
   1.06428695     -0.842682004     -0.303481996       633.840881      -1.50283217    
   1.06506598     -0.843514979       0.00000000       633.840881      -1.50283217    
   1.15792501     -0.715381980       0.00000000       633.840881      -1.50283217    
   1.15591598     -0.714210987     -0.303485006       633.840881      -1.50283217    
   1.15792501     -0.715381980       0.00000000       682.235413      -1.50247824    
   1.23237598     -0.576093972       0.00000000       682.235413      -1.50247824    
   1.23120904     -0.575251997     -0.303514004       682.235413      -1.50247824    
   1.15591598     -0.714210987     -0.303485006       682.235413      -1.50247824    
   1.23120904     -0.575251997     -0.303514004       683.317261      -1.49039459    
   1.28844094     -0.428344995     -0.303512990       683.317261      -1.49039459    
   1.28952503     -0.428642988     -0.606999993       683.317261      -1.49039459    
   1.23252702     -0.575810015     -0.606999993       683.317261      -1.49039459    
   1.23120904     -0.575251997     -0.303514004       647.001404      -1.49057508    
   1.23252702     -0.575810015     -0.606999993       647.001404      -1.49057508    
   1.15788805     -0.715448976     -0.606999993       647.001404      -1.49057508    
   1.15591598     -0.714210987     -0.303485006       647.001404      -1.49057508    
   1.23120904     -0.575251997     -0.303514004       735.132507      -1.50310171    
   1.23237598     -0.576093972       0.00000000       735.132507      -1.50310171    
   1.28947699     -0.428801000       0.00000000       735.132507      -1.50310171    
   1.28844094     -0.428344995     -0.303512990       735.132507      -1.50310171    
   1.28947699     -0.428801000       0.00000000       757.055420      -1.50254273    
   1.33532202     -0.277671993       0.00000000       757.055420      -1.50254273    
   1.33076501     -0.276203990     -0.303492010       757.055420      -1.50254273    
   1.28844094     -0.428344995     -0.303512990       757.055420      -1.50254273    
   1.33076501     -0.276203990     -0.303492010       751.794067      -1.49179900    
   1.35229194     -0.119709998     -0.303514004       751.794067      -1.49179900    
   1.35321999     -0.119608998     -0.606999993       751.794067      -1.49179900    
   1.33549094     -0.277112991     -0.606999993       751.794067      -1.49179900    
   1.33076501     -0.276203990     -0.303492010       709.277466      -1.48997283    
   1.33549094     -0.277112991     -0.606999993       709.277466      -1.48997283    
   1.28952503     -0.428642988     -0.606999993       709.277466      -1.48997283    
   1.28844094     -0.428344995     -0.303512990       709.277466      -1.48997283    
   1.33076501     -0.276203990     -0.303492010       760.013977      -1.50155234    
   1.33532202     -0.277671993       0.00000000       760.013977      -1.50155234    
   1.35319102     -0.119900003       0.00000000       760.013977      -1.50155234    
   1.35229194     -0.119709998     -0.303514004       760.013977      -1.50155234    
   1.35319102     -0.119900003       0.00000000       767.827393      -1.50142229    
   1.36124396       3.81390005E-02   0.00000000       767.827393      -1.50142229    
   1.35858905       3.79349999E-02 -0.303501010       767.827393      -1.50142229    
   1.35229194     -0.119709998     -0.303514004       767.827393      -1.50142229    
   1.35858905       3.79349999E-02 -0.303501010       739.216309      -1.49016380    
   1.34464097      0.195331007     -0.303496003       739.216309      -1.49016380    
   1.34573400      0.195616007     -0.606999993       739.216309      -1.49016380    
   1.36126804       3.78950015E-02 -0.606999993       739.216309      -1.49016380    
   1.35858905       3.79349999E-02 -0.303501010       743.810852      -1.49052238    
   1.36126804       3.78950015E-02 -0.606999993       743.810852      -1.49052238    
   1.35321999     -0.119608998     -0.606999993       743.810852      -1.49052238    
   1.35229194     -0.119709998     -0.303514004       743.810852      -1.49052238    
   1.35858905       3.79349999E-02 -0.303501010       790.619995      -1.50276113    
   1.36124396       3.81390005E-02   0.00000000       790.619995      -1.50276113    
   1.34575403      0.195406005       0.00000000       790.619995      -1.50276113    
   1.34464097      0.195331007     -0.303496003       790.619995      -1.50276113    
   1.34575403      0.195406005       0.00000000       775.854797      -1.50258863    
   1.31339800      0.349945009       0.00000000       775.854797      -1.50258863    
   1.31216300      0.349725991     -0.303487003       775.854797      -1.50258863    
   1.34464097      0.195331007     -0.303496003       775.854797      -1.50258863    
   1.31216300      0.349725991     -0.303487003       694.830811      -1.48928428    
   1.26341999      0.500032008     -0.303494006       694.830811      -1.48928428    
   1.26736605      0.501691997     -0.606999993       694.830811      -1.48928428    
   1.31333196      0.350163996     -0.606999993       694.830811      -1.48928428    
   1.31216300      0.349725991     -0.303487003       725.895020      -1.49006236    
   1.31333196      0.350163996     -0.606999993       725.895020      -1.49006236    
   1.34573400      0.195616007     -0.606999993       725.895020      -1.49006236    
   1.34464097      0.195331007     -0.303496003       725.895020      -1.49006236    
   1.31216300      0.349725991     -0.303487003       749.916321      -1.50228095    
   1.31339800      0.349945009       0.00000000       749.916321      -1.50228095    
   1.26751196      0.501209974       0.00000000       749.916321      -1.50228095    
   1.26341999      0.500032008     -0.303494006       749.916321      -1.50228095    
   1.26751196      0.501209974       0.00000000       688.651306      -1.50044119    
   1.19658697      0.643051028       0.00000000       688.651306      -1.50044119    
   1.19583094      0.642783999     -0.303505003       688.651306      -1.50044119    
   1.26341999      0.500032008     -0.303494006       688.651306      -1.50044119    
   1.19583094      0.642783999     -0.303505003       639.057007      -1.49058640    
   1.11495602      0.778467000     -0.303483993       639.057007      -1.49058640    
   1.11731696      0.779847026     -0.606999993       639.057007      -1.49058640    
   1.19653296      0.643149972     -0.606999993       639.057007      -1.49058640    
   1.19583094      0.642783999     -0.303505003       661.839294      -1.48908317    
   1.19653296      0.643149972     -0.606999993       661.839294      -1.48908317    
   1.26736605      0.501691997     -0.606999993       661.839294      -1.48908317    
   1.26341999      0.500032008     -0.303494006       661.839294      -1.48908317    
   1.19583094      0.642783999     -0.303505003       642.065674      -1.50027335    
   1.19658697      0.643051028       0.00000000       642.065674      -1.50027335    
   1.11705506      0.780165970       0.00000000       642.065674      -1.50027335    
   1.11495602      0.778467000     -0.303483993       642.065674      -1.50027335    
   1.11705506      0.780165970       0.00000000       587.950623      -1.49998713    
   1.01674199      0.902397990       0.00000000       587.950623      -1.49998713    
   1.01591504      0.901737988     -0.303478003       587.950623      -1.49998713    
   1.11495602      0.778467000     -0.303483993       587.950623      -1.49998713    
   1.01591504      0.901737988     -0.303478003       508.168427      -1.48805892    
  0.904204011       1.01322901     -0.303456992       508.168427      -1.48805892    
  0.905143023       1.01448905     -0.606999993       508.168427      -1.48805892    
   1.01659799      0.902572989     -0.606999993       508.168427      -1.48805892    
   1.01591504      0.901737988     -0.303478003       566.193054      -1.48815596    
   1.01659799      0.902572989     -0.606999993       566.193054      -1.48815596    
   1.11731696      0.779847026     -0.606999993       566.193054      -1.48815596    
   1.11495602      0.778467000     -0.303483993       566.193054      -1.48815596    
   1.01591504      0.901737988     -0.303478003       524.718994      -1.49970663    
   1.01674199      0.902397990       0.00000000       524.718994      -1.49970663    
  0.905318975       1.01434398       0.00000000       524.718994      -1.49970663    
  0.904204011       1.01322901     -0.303456992       524.718994      -1.49970663    
  0.905318975       1.01434398       0.00000000       474.791962      -1.50103068    
  0.782918990       1.11479497       0.00000000       474.791962      -1.50103068    
  0.780644000       1.11195600     -0.303485006       474.791962      -1.50103068    
  0.904204011       1.01322901     -0.303456992       474.791962      -1.50103068    
  0.780644000       1.11195600     -0.303485006       371.875885      -1.48726368    
  0.645825028       1.19414902     -0.303514004       371.875885      -1.48726368    
  0.646153986       1.19492805     -0.606999993       371.875885      -1.48726368    
  0.782611012       1.11504900     -0.606999993       371.875885      -1.48726368    
  0.780644000       1.11195600     -0.303485006       442.533295      -1.48766589    
  0.782611012       1.11504900     -0.606999993       442.533295      -1.48766589    
  0.905143023       1.01448905     -0.606999993       442.533295      -1.48766589    
  0.904204011       1.01322901     -0.303456992       442.533295      -1.48766589    
  0.780644000       1.11195600     -0.303485006       401.835510      -1.50105464    
  0.782918990       1.11479497       0.00000000       401.835510      -1.50105464    
  0.646345019       1.19482601       0.00000000       401.835510      -1.50105464    
  0.645825028       1.19414902     -0.303514004       401.835510      -1.50105464    
  0.646345019       1.19482601       0.00000000       297.431854      -1.49771285    
  0.504974008       1.26637006       0.00000000       297.431854      -1.49771285    
  0.503772974       1.26314998     -0.303521991       297.431854      -1.49771285    
  0.645825028       1.19414902     -0.303514004       297.431854      -1.49771285    
  0.503772974       1.26314998     -0.303521991       216.755356      -1.48606551    
  0.353130996       1.31116498     -0.303510994       216.755356      -1.48606551    
  0.353300005       1.31237996     -0.606999993       216.755356      -1.48606551    
  0.505183995       1.26630700     -0.606999993       216.755356      -1.48606551    
  0.503772974       1.26314998     -0.303521991       295.247833      -1.48685300    
  0.505183995       1.26630700     -0.606999993       295.247833      -1.48685300    
  0.646153986       1.19492805     -0.606999993       295.247833      -1.48685300    
  0.645825028       1.19414902     -0.303514004       295.247833      -1.48685300    
  0.503772974       1.26314998     -0.303521991       211.453613      -1.49557555    
  0.504974008       1.26637006       0.00000000       211.453613      -1.49557555    
  0.353493989       1.31232095       0.00000000       211.453613      -1.49557555    
  0.353130996       1.31116498     -0.303510994       211.453613      -1.49557555    
  0.353493989       1.31232095       0.00000000       119.611633      -1.49030519    
  0.199064001       1.34539402       0.00000000       119.611633      -1.49030519    
  0.198755994       1.34360003     -0.303496003       119.611633      -1.49030519    
  0.353130996       1.31116498     -0.303510994       119.611633      -1.49030519    
  0.198755994       1.34360003     -0.303496003       24.0085430      -1.41007435    
   4.12769988E-02   1.35817802     -0.303508013       24.0085430      -1.41007435    
   4.12410013E-02   1.36093795     -0.606999993       24.0085430      -1.41007435    
  0.199025005       1.34539795     -0.606999993       24.0085430      -1.41007435    
  0.198755994       1.34360003     -0.303496003       131.648911      -1.48379183    
  0.199025005       1.34539795     -0.606999993       131.648911      -1.48379183    
  0.353300005       1.31237996     -0.606999993       131.648911      -1.48379183    
  0.353130996       1.31116498     -0.303510994       131.648911      -1.48379183    
  0.198755994       1.34360003     -0.303496003       26.0598755      -1.44592154    
  0.199064001       1.34539402       0.00000000       26.0598755      -1.44592154    
   4.17769998E-02   1.36088502       0.00000000       26.0598755      -1.44592154    
   4.12769988E-02   1.35817802     -0.303508013       26.0598755      -1.44592154    
   4.17769998E-02   1.36088502       0.00000000       65.2888107       1.61862123    
 -0.116410002       1.35353506       0.00000000       65.2888107       1.61862123    
 -0.116471998       1.35271096     -0.303496987       65.2888107       1.61862123    
   4.12769988E-02   1.35817802     -0.303508013       65.2888107       1.61862123    
 -0.116471998       1.35271096     -0.303496987       162.771667       1.63626480    
 -0.273027003       1.33229196     -0.303496003       162.771667       1.63626480    
 -0.273876995       1.33647299     -0.606999993       162.771667       1.63626480    
 -0.116722003       1.35350394     -0.606999993       162.771667       1.63626480    
 -0.116471998       1.35271096     -0.303496987       63.3107986       1.62118196    
 -0.116722003       1.35350394     -0.606999993       63.3107986       1.62118196    
   4.12410013E-02   1.36093795     -0.606999993       63.3107986       1.62118196    
   4.12769988E-02   1.35817802     -0.303508013       63.3107986       1.62118196    
 -0.116471998       1.35271096     -0.303496987       160.350021       1.63098168    
 -0.116410002       1.35353506       0.00000000       160.350021       1.63098168    
 -0.274069011       1.33641505       0.00000000       160.350021       1.63098168    
 -0.273027003       1.33229196     -0.303496003       160.350021       1.63098168    
 -0.274069011       1.33641505       0.00000000       250.428635       1.63393092    
 -0.425588995       1.29045200       0.00000000       250.428635       1.63393092    
 -0.425258011       1.28953803     -0.303507000       250.428635       1.63393092    
 -0.273027003       1.33229196     -0.303496003       250.428635       1.63393092    
 -0.425258011       1.28953803     -0.303507000       331.418854       1.64397776    
 -0.572302997       1.23206902     -0.303485990       331.418854       1.64397776    
 -0.573064029       1.23399496     -0.606999993       331.418854       1.64397776    
 -0.425651014       1.29043305     -0.606999993       331.418854       1.64397776    
 -0.425258011       1.28953803     -0.303507000       247.003433       1.64144230    
 -0.425651014       1.29043305     -0.606999993       247.003433       1.64144230    
 -0.273876995       1.33647299     -0.606999993       247.003433       1.64144230    
 -0.273027003       1.33229196     -0.303496003       247.003433       1.64144230    
 -0.425258011       1.28953803     -0.303507000       341.539795       1.63509071    
 -0.425588995       1.29045200       0.00000000       341.539795       1.63509071    
 -0.573195994       1.23392498       0.00000000       341.539795       1.63509071    
 -0.572302997       1.23206902     -0.303485990       341.539795       1.63509071    
 -0.573195994       1.23392498       0.00000000       427.292786       1.63578427    
 -0.712655008       1.15938199       0.00000000       427.292786       1.63578427    
 -0.711889029       1.15749002     -0.303496003       427.292786       1.63578427    
 -0.572302997       1.23206902     -0.303485990       427.292786       1.63578427    
 -0.711889029       1.15749002     -0.303496003       480.763153       1.64691150    
 -0.840825975       1.06629205     -0.303485990       480.763153       1.64691150    
 -0.841368973       1.06682706     -0.606999993       480.763153       1.64691150    
 -0.712980986       1.15920806     -0.606999993       480.763153       1.64691150    
 -0.711889029       1.15749002     -0.303496003       406.875854       1.64598918    
 -0.712980986       1.15920806     -0.606999993       406.875854       1.64598918    
 -0.573064029       1.23399496     -0.606999993       406.875854       1.64598918    
 -0.572302997       1.23206902     -0.303485990       406.875854       1.64598918    
 -0.711889029       1.15749002     -0.303496003       506.128387       1.63629925    
 -0.712655008       1.15938199       0.00000000       506.128387       1.63629925    
 -0.841165006       1.06699395       0.00000000       506.128387       1.63629925    
 -0.840825975       1.06629205     -0.303485990       506.128387       1.63629925    
 -0.841165006       1.06699395       0.00000000       580.058289       1.63683331    
 -0.963320017      0.966744006       0.00000000       580.058289       1.63683331    
 -0.960084975      0.962615013     -0.303470999       580.058289       1.63683331    
 -0.840825975       1.06629205     -0.303485990       580.058289       1.63683331    
 -0.960084975      0.962615013     -0.303470999       611.279175       1.64804113    
  -1.06383705      0.843237996     -0.303481996       611.279175       1.64804113    
  -1.06481802      0.843816996     -0.606999993       611.279175       1.64804113    
 -0.963873982      0.966289997     -0.606999993       611.279175       1.64804113    
 -0.960084975      0.962615013     -0.303470999       550.560425       1.64761364    
 -0.963873982      0.966289997     -0.606999993       550.560425       1.64761364    
 -0.841368973       1.06682706     -0.606999993       550.560425       1.64761364    
 -0.840825975       1.06629205     -0.303485990       550.560425       1.64761364    
 -0.960084975      0.962615013     -0.303470999       647.751282       1.63699484    
 -0.963320017      0.966744006       0.00000000       647.751282       1.63699484    
  -1.06464398      0.844029009       0.00000000       647.751282       1.63699484    
  -1.06383705      0.843237996     -0.303481996       647.751282       1.63699484    
  -1.06464398      0.844029009       0.00000000       706.237488       1.63731360    
  -1.15769398      0.715813994       0.00000000       706.237488       1.63731360    
  -1.15564799      0.714680016     -0.303483993       706.237488       1.63731360    
  -1.06383705      0.843237996     -0.303481996       706.237488       1.63731360    
  -1.15564799      0.714680016     -0.303483993       713.432007       1.64864898    
  -1.23108304      0.575536013     -0.303514004       713.432007       1.64864898    
  -1.23232996      0.576179981     -0.606999993       713.432007       1.64864898    
  -1.15756094      0.716063023     -0.606999993       713.432007       1.64864898    
  -1.15564799      0.714680016     -0.303483993       665.614075       1.64843774    
  -1.15756094      0.716063023     -0.606999993       665.614075       1.64843774    
  -1.06481802      0.843816996     -0.606999993       665.614075       1.64843774    
  -1.06383705      0.843237996     -0.303481996       665.614075       1.64843774    
  -1.15564799      0.714680016     -0.303483993       755.215698       1.63770628    
  -1.15769398      0.715813994       0.00000000       755.215698       1.63770628    
  -1.23224795      0.576331973       0.00000000       755.215698       1.63770628    
  -1.23108304      0.575536013     -0.303514004       755.215698       1.63770628    
  -1.23224795      0.576331973       0.00000000       794.428284       1.63795888    
  -1.28948605      0.428772002       0.00000000       794.428284       1.63795888    
  -1.28842103      0.428404987     -0.303512990       794.428284       1.63795888    
  -1.23108304      0.575536013     -0.303514004       794.428284       1.63795888    
  -1.28842103      0.428404987     -0.303512990       752.806824       1.65106976    
  -1.33082402      0.275959998     -0.303492010       752.806824       1.65106976    
  -1.33550000      0.277083993     -0.606999993       752.806824       1.65106976    