 VARIABLES="X" "Y" "Z" "abs(p) (Pa)" "angle(p) (rad)"
ZONE N=   2720,E =    2069, F=FEPOINT, ET=QUADRILATERAL
 -0.767116010      -1.12776399       0.00000000       24141.0645      -1.53305697    
 -0.769354999      -1.12002099     -0.303523988       24141.0645      -1.53305697    
 -0.896136999      -1.02028203     -0.303463012       24141.0645      -1.53305697    
 -0.894908011      -1.02288902       0.00000000       24141.0645      -1.53305697    
 -0.767116010      -1.12776399       0.00000000       20299.0664      -1.53522360    
 -0.630888999      -1.20308697       0.00000000       20299.0664      -1.53522360    
 -0.635528028      -1.19958198     -0.303541005       20299.0664      -1.53522360    
 -0.769354999      -1.12002099     -0.303523988       20299.0664      -1.53522360    
 -0.635528028      -1.19958198     -0.303541005       2290.91040      -1.49334300    
 -0.495362997      -1.26606500     -0.303519011       2290.91040      -1.49334300    
 -0.499298006      -1.26809204     -0.606999993       2290.91040      -1.49334300    
 -0.640147984      -1.19813800     -0.606998026       2290.91040      -1.49334300    
 -0.635528028      -1.19958198     -0.303541005       2730.25757      -1.48943126    
 -0.640147984      -1.19813800     -0.606998026       2730.25757      -1.48943126    
 -0.777105987      -1.11956596     -0.606999993       2730.25757      -1.48943126    
 -0.769354999      -1.12002099     -0.303523988       2730.25757      -1.48943126    
 -0.635528028      -1.19958198     -0.303541005       16031.1562      -1.53822255    
 -0.630888999      -1.20308697       0.00000000       16031.1562      -1.53822255    
 -0.494486004      -1.26955199       0.00000000       16031.1562      -1.53822255    
 -0.495362997      -1.26606500     -0.303519011       16031.1562      -1.53822255    
 -0.494486004      -1.26955199       0.00000000       11968.2461      -1.54193318    
 -0.346311986      -1.31449997       0.00000000       11968.2461      -1.54193318    
 -0.346753001      -1.31307304     -0.303510010       11968.2461      -1.54193318    
 -0.495362997      -1.26606500     -0.303519011       11968.2461      -1.54193318    
 -0.346753001      -1.31307304     -0.303510010       1416.75891      -1.50774229    
 -0.193608001      -1.34425998     -0.303494990       1416.75891      -1.50774229    
 -0.195028007      -1.34579206     -0.606999993       1416.75891      -1.50774229    
 -0.348751009      -1.31376004     -0.606999993       1416.75891      -1.50774229    
 -0.346753001      -1.31307304     -0.303510010       1873.82886      -1.49932146    
 -0.348751009      -1.31376004     -0.606999993       1873.82886      -1.49932146    
 -0.499298006      -1.26809204     -0.606999993       1873.82886      -1.49932146    
 -0.495362997      -1.26606500     -0.303519011       1873.82886      -1.49932146    
 -0.346753001      -1.31307304     -0.303510010       7709.92285      -1.54726958    
 -0.346311986      -1.31449997       0.00000000       7709.92285      -1.54726958    
 -0.193381995      -1.34595394       0.00000000       7709.92285      -1.54726958    
 -0.193608001      -1.34425998     -0.303494990       7709.92285      -1.54726958    
 -0.193381995      -1.34595394       0.00000000       3529.36914      -1.55959427    
  -3.75179984E-02  -1.36130500       0.00000000       3529.36914      -1.55959427    
  -3.73950005E-02  -1.35827899     -0.303512007       3529.36914      -1.55959427    
 -0.193608001      -1.34425998     -0.303494990       3529.36914      -1.55959427    
  -3.73950005E-02  -1.35827899     -0.303512007       579.308411      -1.56053865    
  0.119547002      -1.35239303     -0.303498000       579.308411      -1.56053865    
  0.119135000      -1.35326600     -0.606999993       579.308411      -1.56053865    
  -3.82840000E-02  -1.36122894     -0.606998980       579.308411      -1.56053865    
  -3.73950005E-02  -1.35827899     -0.303512007       983.978088      -1.52355552    
  -3.82840000E-02  -1.36122894     -0.606998980       983.978088      -1.52355552    
 -0.195028007      -1.34579206     -0.606999993       983.978088      -1.52355552    
 -0.193608001      -1.34425998     -0.303494990       983.978088      -1.52355552    
  -3.73950005E-02  -1.35827899     -0.303512007       428.881195       1.74983442    
  -3.75179984E-02  -1.36130500       0.00000000       428.881195       1.74983442    
  0.119788997      -1.35320199       0.00000000       428.881195       1.74983442    
  0.119547002      -1.35239303     -0.303498000       428.881195       1.74983442    
  0.119788997      -1.35320199       0.00000000       4410.42139       1.61198413    
  0.276576012      -1.33565402       0.00000000       4410.42139       1.61198413    
  0.275435001      -1.33191597     -0.303496003       4410.42139       1.61198413    
  0.119547002      -1.35239303     -0.303498000       4410.42139       1.61198413    
  0.275435001      -1.33191597     -0.303496003       229.630630       1.89122903    
  0.427076995      -1.28898001     -0.303507000       229.630630       1.89122903    
  0.427242011      -1.28995001     -0.606999993       229.630630       1.89122903    
  0.275831014      -1.33588004     -0.606999993       229.630630       1.89122903    
  0.275435001      -1.33191597     -0.303496003       133.946304      -1.83367407    
  0.275831014      -1.33588004     -0.606999993       133.946304      -1.83367407    
  0.119135000      -1.35326600     -0.606999993       133.946304      -1.83367407    
  0.119547002      -1.35239303     -0.303498000       133.946304      -1.83367407    
  0.275435001      -1.33191597     -0.303496003       8059.34717       1.60513639    
  0.276576012      -1.33565402       0.00000000       8059.34717       1.60513639    
  0.427509993      -1.28986895       0.00000000       8059.34717       1.60513639    
  0.427076995      -1.28898001     -0.303507000       8059.34717       1.60513639    
  0.427509993      -1.28986895       0.00000000       11608.0410       1.60321891    
  0.574636996      -1.23315501       0.00000000       11608.0410       1.60321891    
  0.573706985      -1.23136795     -0.303485990       11608.0410       1.60321891    
  0.427076995      -1.28898001     -0.303507000       11608.0410       1.60321891    
  0.573706985      -1.23136795     -0.303485990       1004.76740       1.71989715    
  0.712854981      -1.15688002     -0.303496987       1004.76740       1.71989715    
  0.713809013      -1.15876603     -0.606999993       1004.76740       1.71989715    
  0.574283004      -1.23334301     -0.606999993       1004.76740       1.71989715    
  0.573706985      -1.23136795     -0.303485990       617.099426       1.75163484    
  0.574283004      -1.23334301     -0.606999993       617.099426       1.75163484    
  0.427242011      -1.28995001     -0.606999993       617.099426       1.75163484    
  0.427076995      -1.28898001     -0.303507000       617.099426       1.75163484    
  0.573706985      -1.23136795     -0.303485990       15215.2354       1.60318875    
  0.574636996      -1.23315501       0.00000000       15215.2354       1.60318875    
  0.713741004      -1.15880203       0.00000000       15215.2354       1.60318875    
  0.712854981      -1.15688002     -0.303496987       15215.2354       1.60318875    
  0.713741004      -1.15880203       0.00000000       18817.0410       1.60411096    
  0.841937006      -1.06636095       0.00000000       18817.0410       1.60411096    
  0.841498017      -1.06573403     -0.303485990       18817.0410       1.60411096    
  0.712854981      -1.15688002     -0.303496987       18817.0410       1.60411096    
  0.841498017      -1.06573403     -0.303485990       1847.77173       1.69389892    
  0.960639000     -0.962104976     -0.303470999       1847.77173       1.69389892    
  0.964356005     -0.965893984     -0.606999993       1847.77173       1.69389892    
  0.841796994      -1.06647599     -0.606999993       1847.77173       1.69389892    
  0.841498017      -1.06573403     -0.303485990       1408.50806       1.70447445    
  0.841796994      -1.06647599     -0.606999993       1408.50806       1.70447445    
  0.713809013      -1.15876603     -0.606999993       1408.50806       1.70447445    
  0.712854981      -1.15688002     -0.303496987       1408.50806       1.70447445    
  0.841498017      -1.06573403     -0.303485990       23005.4746       1.60536659    
  0.841937006      -1.06636095       0.00000000       23005.4746       1.60536659    
  0.963932991     -0.966242015       0.00000000       23005.4746       1.60536659    
  0.960639000     -0.962104976     -0.303470999       23005.4746       1.60536659    
  0.963932991     -0.966242015       0.00000000       26541.1094       1.60686672    
   1.06506598     -0.843514979       0.00000000       26541.1094       1.60686672    
   1.06428695     -0.842682004     -0.303481996       26541.1094       1.60686672    
  0.960639000     -0.962104976     -0.303470999       26541.1094       1.60686672    
   1.06428695     -0.842682004     -0.303481996       2614.89771       1.68455160    
   1.15591598     -0.714210987     -0.303485006       2614.89771       1.68455160    
   1.15788805     -0.715448976     -0.606999993       2614.89771       1.68455160    
   1.06537795     -0.843134999     -0.606999993       2614.89771       1.68455160    
   1.06428695     -0.842682004     -0.303481996       2225.04688       1.68885696    
   1.06537795     -0.843134999     -0.606999993       2225.04688       1.68885696    
  0.964356005     -0.965893984     -0.606999993       2225.04688       1.68885696    
  0.960639000     -0.962104976     -0.303470999       2225.04688       1.68885696    
   1.06428695     -0.842682004     -0.303481996       29316.6934       1.60847664    
   1.06506598     -0.843514979       0.00000000       29316.6934       1.60847664    
   1.15792501     -0.715381980       0.00000000       29316.6934       1.60847664    
   1.15591598     -0.714210987     -0.303485006       29316.6934       1.60847664    
   1.15792501     -0.715381980       0.00000000       32182.4688       1.60973918    
   1.23237598     -0.576093972       0.00000000       32182.4688       1.60973918    
   1.23120904     -0.575251997     -0.303514004       32182.4688       1.60973918    
   1.15591598     -0.714210987     -0.303485006       32182.4688       1.60973918    
   1.23120904     -0.575251997     -0.303514004       3328.99512       1.67718971    
   1.28844094     -0.428344995     -0.303512990       3328.99512       1.67718971    
   1.28952503     -0.428642988     -0.606999993       3328.99512       1.67718971    
   1.23252702     -0.575810015     -0.606999993       3328.99512       1.67718971    
   1.23120904     -0.575251997     -0.303514004       3009.55225       1.68016803    
   1.23252702     -0.575810015     -0.606999993       3009.55225       1.68016803    
   1.15788805     -0.715448976     -0.606999993       3009.55225       1.68016803    
   1.15591598     -0.714210987     -0.303485006       3009.55225       1.68016803    
   1.23120904     -0.575251997     -0.303514004       34300.3945       1.61063957    
   1.23237598     -0.576093972       0.00000000       34300.3945       1.61063957    
   1.28947699     -0.428801000       0.00000000       34300.3945       1.61063957    
   1.28844094     -0.428344995     -0.303512990       34300.3945       1.61063957    
   1.28947699     -0.428801000       0.00000000       36608.3477       1.61085939    
   1.33532202     -0.277671993       0.00000000       36608.3477       1.61085939    
   1.33076501     -0.276203990     -0.303492010       36608.3477       1.61085939    
   1.28844094     -0.428344995     -0.303512990       36608.3477       1.61085939    
   1.33076501     -0.276203990     -0.303492010       3734.60767       1.67356431    
   1.35229194     -0.119709998     -0.303514004       3734.60767       1.67356431    
   1.35321999     -0.119608998     -0.606999993       3734.60767       1.67356431    
   1.33549094     -0.277112991     -0.606999993       3734.60767       1.67356431    
   1.33076501     -0.276203990     -0.303492010       3581.15283       1.67497265    
   1.33549094     -0.277112991     -0.606999993       3581.15283       1.67497265    
   1.28952503     -0.428642988     -0.606999993       3581.15283       1.67497265    
   1.28844094     -0.428344995     -0.303512990       3581.15283       1.67497265    
   1.33076501     -0.276203990     -0.303492010       37720.4766       1.61059654    
   1.33532202     -0.277671993       0.00000000       37720.4766       1.61059654    
   1.35319102     -0.119900003       0.00000000       37720.4766       1.61059654    
   1.35229194     -0.119709998     -0.303514004       37720.4766       1.61059654    
   1.35319102     -0.119900003       0.00000000       37938.4453       1.60988009    
   1.36124396       3.81390005E-02   0.00000000       37938.4453       1.60988009    
   1.35858905       3.79349999E-02 -0.303501010       37938.4453       1.60988009    
   1.35229194     -0.119709998     -0.303514004       37938.4453       1.60988009    
   1.35858905       3.79349999E-02 -0.303501010       4044.83569       1.66701782    
   1.34464097      0.195331007     -0.303496003       4044.83569       1.66701782    
   1.34573400      0.195616007     -0.606999993       4044.83569       1.66701782    
   1.36126804       3.78950015E-02 -0.606999993       4044.83569       1.66701782    
   1.35858905       3.79349999E-02 -0.303501010       3947.34399       1.66961980    
   1.36126804       3.78950015E-02 -0.606999993       3947.34399       1.66961980    
   1.35321999     -0.119608998     -0.606999993       3947.34399       1.66961980    
   1.35229194     -0.119709998     -0.303514004       3947.34399       1.66961980    
   1.35858905       3.79349999E-02 -0.303501010       38017.2695       1.60883093    
   1.36124396       3.81390005E-02   0.00000000       38017.2695       1.60883093    
   1.34575403      0.195406005       0.00000000       38017.2695       1.60883093    
   1.34464097      0.195331007     -0.303496003       38017.2695       1.60883093    
   1.34575403      0.195406005       0.00000000       37234.8516       1.60763013    
   1.31339800      0.349945009       0.00000000       37234.8516       1.60763013    
   1.31216300      0.349725991     -0.303487003       37234.8516       1.60763013    
   1.34464097      0.195331007     -0.303496003       37234.8516       1.60763013    
   1.31216300      0.349725991     -0.303487003       3947.26758       1.66330492    
   1.26341999      0.500032008     -0.303494006       3947.26758       1.66330492    
   1.26736605      0.501691997     -0.606999993       3947.26758       1.66330492    
   1.31333196      0.350163996     -0.606999993       3947.26758       1.66330492    
   1.31216300      0.349725991     -0.303487003       4036.74292       1.66502690    
   1.31333196      0.350163996     -0.606999993       4036.74292       1.66502690    
   1.34573400      0.195616007     -0.606999993       4036.74292       1.66502690    
   1.34464097      0.195331007     -0.303496003       4036.74292       1.66502690    
   1.31216300      0.349725991     -0.303487003       36243.3164       1.60635996    
   1.31339800      0.349945009       0.00000000       36243.3164       1.60635996    
   1.26751196      0.501209974       0.00000000       36243.3164       1.60635996    
   1.26341999      0.500032008     -0.303494006       36243.3164       1.60635996    
   1.26751196      0.501209974       0.00000000       34616.2148       1.60540748    
   1.19658697      0.643051028       0.00000000       34616.2148       1.60540748    
   1.19583094      0.642783999     -0.303505003       34616.2148       1.60540748    
   1.26341999      0.500032008     -0.303494006       34616.2148       1.60540748    
   1.19583094      0.642783999     -0.303505003       3335.80322       1.66614318    
   1.11495602      0.778467000     -0.303483993       3335.80322       1.66614318    
   1.11731696      0.779847026     -0.606999993       3335.80322       1.66614318    
   1.19653296      0.643149972     -0.606999993       3335.80322       1.66614318    
   1.19583094      0.642783999     -0.303505003       3731.75293       1.66322219    
   1.19653296      0.643149972     -0.606999993       3731.75293       1.66322219    
   1.26736605      0.501691997     -0.606999993       3731.75293       1.66322219    
   1.26341999      0.500032008     -0.303494006       3731.75293       1.66322219    
   1.19583094      0.642783999     -0.303505003       32008.5352       1.60485506    
   1.19658697      0.643051028       0.00000000       32008.5352       1.60485506    
   1.11705506      0.780165970       0.00000000       32008.5352       1.60485506    
   1.11495602      0.778467000     -0.303483993       32008.5352       1.60485506    
   1.11705506      0.780165970       0.00000000       28938.1406       1.60494208    
   1.01674199      0.902397990       0.00000000       28938.1406       1.60494208    
   1.01591504      0.901737988     -0.303478003       28938.1406       1.60494208    
   1.11495602      0.778467000     -0.303483993       28938.1406       1.60494208    
   1.01591504      0.901737988     -0.303478003       2499.79590       1.67353809    
  0.904204011       1.01322901     -0.303456992       2499.79590       1.67353809    
  0.905143023       1.01448905     -0.606999993       2499.79590       1.67353809    
   1.01659799      0.902572989     -0.606999993       2499.79590       1.67353809    
   1.01591504      0.901737988     -0.303478003       2969.29248       1.66830814    
   1.01659799      0.902572989     -0.606999993       2969.29248       1.66830814    
   1.11731696      0.779847026     -0.606999993       2969.29248       1.66830814    
   1.11495602      0.778467000     -0.303483993       2969.29248       1.66830814    
   1.01591504      0.901737988     -0.303478003       25298.4531       1.60591471    
   1.01674199      0.902397990       0.00000000       25298.4531       1.60591471    
  0.905318975       1.01434398       0.00000000       25298.4531       1.60591471    
  0.904204011       1.01322901     -0.303456992       25298.4531       1.60591471    
  0.905318975       1.01434398       0.00000000       22405.3086       1.60751498    
  0.782918990       1.11479497       0.00000000       22405.3086       1.60751498    
  0.780644000       1.11195600     -0.303485006       22405.3086       1.60751498    
  0.904204011       1.01322901     -0.303456992       22405.3086       1.60751498    
  0.780644000       1.11195600     -0.303485006       1678.70190       1.68406498    
  0.645825028       1.19414902     -0.303514004       1678.70190       1.68406498    
  0.646153986       1.19492805     -0.606999993       1678.70190       1.68406498    
  0.782611012       1.11504900     -0.606999993       1678.70190       1.68406498    
  0.780644000       1.11195600     -0.303485006       2065.54663       1.67920148    
  0.782611012       1.11504900     -0.606999993       2065.54663       1.67920148    
  0.905143023       1.01448905     -0.606999993       2065.54663       1.67920148    
  0.904204011       1.01322901     -0.303456992       2065.54663       1.67920148    
  0.780644000       1.11195600     -0.303485006       19141.0859       1.60968113    
  0.782918990       1.11479497       0.00000000       19141.0859       1.60968113    
  0.646345019       1.19482601       0.00000000       19141.0859       1.60968113    
  0.645825028       1.19414902     -0.303514004       19141.0859       1.60968113    
  0.646345019       1.19482601       0.00000000       15648.6641       1.61248481    
  0.504974008       1.26637006       0.00000000       15648.6641       1.61248481    
  0.503772974       1.26314998     -0.303521991       15648.6641       1.61248481    
  0.645825028       1.19414902     -0.303514004       15648.6641       1.61248481    
  0.503772974       1.26314998     -0.303521991       891.853760       1.69992423    
  0.353130996       1.31116498     -0.303510994       891.853760       1.69992423    
  0.353300005       1.31237996     -0.606999993       891.853760       1.69992423    
  0.505183995       1.26630700     -0.606999993       891.853760       1.69992423    
  0.503772974       1.26314998     -0.303521991       1273.81274       1.69135261    
  0.505183995       1.26630700     -0.606999993       1273.81274       1.69135261    
  0.646153986       1.19492805     -0.606999993       1273.81274       1.69135261    
  0.645825028       1.19414902     -0.303514004       1273.81274       1.69135261    
  0.503772974       1.26314998     -0.303521991       11906.2676       1.61578155    
  0.504974008       1.26637006       0.00000000       11906.2676       1.61578155    
  0.353493989       1.31232095       0.00000000       11906.2676       1.61578155    
  0.353130996       1.31116498     -0.303510994       11906.2676       1.61578155    
  0.353493989       1.31232095       0.00000000       7625.17188       1.62060344    
  0.199064001       1.34539402       0.00000000       7625.17188       1.62060344    
  0.198755994       1.34360003     -0.303496003       7625.17188       1.62060344    
  0.353130996       1.31116498     -0.303510994       7625.17188       1.62060344    
  0.198755994       1.34360003     -0.303496003       72.9017715       1.94808388    
   4.12769988E-02   1.35817802     -0.303508013       72.9017715       1.94808388    
   4.12410013E-02   1.36093795     -0.606999993       72.9017715       1.94808388    
  0.199025005       1.34539795     -0.606999993       72.9017715       1.94808388    
  0.198755994       1.34360003     -0.303496003       451.067657       1.72988784    
  0.199025005       1.34539795     -0.606999993       451.067657       1.72988784    
  0.353300005       1.31237996     -0.606999993       451.067657       1.72988784    
  0.353130996       1.31116498     -0.303510994       451.067657       1.72988784    
  0.198755994       1.34360003     -0.303496003       3300.25366       1.63263130    
  0.199064001       1.34539402       0.00000000       3300.25366       1.63263130    
   4.17769998E-02   1.36088502       0.00000000       3300.25366       1.63263130    
   4.12769988E-02   1.35817802     -0.303508013       3300.25366       1.63263130    
   4.17769998E-02   1.36088502       0.00000000       1162.50806      -1.57518315    
 -0.116410002       1.35353506       0.00000000       1162.50806      -1.57518315    
 -0.116471998       1.35271096     -0.303496987       1162.50806      -1.57518315    
   4.12769988E-02   1.35817802     -0.303508013       1162.50806      -1.57518315    
 -0.116471998       1.35271096     -0.303496987       815.512146      -1.48693371    
 -0.273027003       1.33229196     -0.303496003       815.512146      -1.48693371    
 -0.273876995       1.33647299     -0.606999993       815.512146      -1.48693371    
 -0.116722003       1.35350394     -0.606999993       815.512146      -1.48693371    
 -0.116471998       1.35271096     -0.303496987       367.221313      -1.51671278    
 -0.116722003       1.35350394     -0.606999993       367.221313      -1.51671278    
   4.12410013E-02   1.36093795     -0.606999993       367.221313      -1.51671278    
   4.12769988E-02   1.35817802     -0.303508013       367.221313      -1.51671278    
 -0.116471998       1.35271096     -0.303496987       5931.35986      -1.53428018    
 -0.116410002       1.35353506       0.00000000       5931.35986      -1.53428018    
 -0.274069011       1.33641505       0.00000000       5931.35986      -1.53428018    
 -0.273027003       1.33229196     -0.303496003       5931.35986      -1.53428018    
 -0.274069011       1.33641505       0.00000000       10262.6211      -1.52972496    
 -0.425588995       1.29045200       0.00000000       10262.6211      -1.52972496    
 -0.425258011       1.28953803     -0.303507000       10262.6211      -1.52972496    
 -0.273027003       1.33229196     -0.303496003       10262.6211      -1.52972496    
 -0.425258011       1.28953803     -0.303507000       1588.92761      -1.47189820    
 -0.572302997       1.23206902     -0.303485990       1588.92761      -1.47189820    
 -0.573064029       1.23399496     -0.606999993       1588.92761      -1.47189820    
 -0.425651014       1.29043305     -0.606999993       1588.92761      -1.47189820    
 -0.425258011       1.28953803     -0.303507000       1195.15967      -1.47629118    
 -0.425651014       1.29043305     -0.606999993       1195.15967      -1.47629118    
 -0.273876995       1.33647299     -0.606999993       1195.15967      -1.47629118    
 -0.273027003       1.33229196     -0.303496003       1195.15967      -1.47629118    
 -0.425258011       1.28953803     -0.303507000       14255.8828      -1.52826583    
 -0.425588995       1.29045200       0.00000000       14255.8828      -1.52826583    
 -0.573195994       1.23392498       0.00000000       14255.8828      -1.52826583    
 -0.572302997       1.23206902     -0.303485990       14255.8828      -1.52826583    
 -0.573195994       1.23392498       0.00000000       18005.3047      -1.52826846    
 -0.712655008       1.15938199       0.00000000       18005.3047      -1.52826846    
 -0.711889029       1.15749002     -0.303496003       18005.3047      -1.52826846    
 -0.572302997       1.23206902     -0.303485990       18005.3047      -1.52826846    
 -0.711889029       1.15749002     -0.303496003       2276.95850      -1.46836340    
 -0.840825975       1.06629205     -0.303485990       2276.95850      -1.46836340    
 -0.841368973       1.06682706     -0.606999993       2276.95850      -1.46836340    
 -0.712980986       1.15920806     -0.606999993       2276.95850      -1.46836340    
 -0.711889029       1.15749002     -0.303496003       1949.61938      -1.46945107    
 -0.712980986       1.15920806     -0.606999993       1949.61938      -1.46945107    
 -0.573064029       1.23399496     -0.606999993       1949.61938      -1.46945107    
 -0.572302997       1.23206902     -0.303485990       1949.61938      -1.46945107    
 -0.711889029       1.15749002     -0.303496003       21155.1797      -1.52909410    
 -0.712655008       1.15938199       0.00000000       21155.1797      -1.52909410    
 -0.841165006       1.06699395       0.00000000       21155.1797      -1.52909410    
 -0.840825975       1.06629205     -0.303485990       21155.1797      -1.52909410    
 -0.841165006       1.06699395       0.00000000       24642.5508      -1.53058004    
 -0.963320017      0.966744006       0.00000000       24642.5508      -1.53058004    
 -0.960084975      0.962615013     -0.303470999       24642.5508      -1.53058004    
 -0.840825975       1.06629205     -0.303485990       24642.5508      -1.53058004    
 -0.960084975      0.962615013     -0.303470999       3049.79639      -1.47274137    
  -1.06383705      0.843237996     -0.303481996       3049.79639      -1.47274137    
  -1.06481802      0.843816996     -0.606999993       3049.79639      -1.47274137    
 -0.963873982      0.966289997     -0.606999993       3049.79639      -1.47274137    
 -0.960084975      0.962615013     -0.303470999       2646.97461      -1.46975541    
 -0.963873982      0.966289997     -0.606999993       2646.97461      -1.46975541    
 -0.841368973       1.06682706     -0.606999993       2646.97461      -1.46975541    
 -0.840825975       1.06629205     -0.303485990       2646.97461      -1.46975541    
 -0.960084975      0.962615013     -0.303470999       27813.7539      -1.53220260    
 -0.963320017      0.966744006       0.00000000       27813.7539      -1.53220260    
  -1.06464398      0.844029009       0.00000000       27813.7539      -1.53220260    
  -1.06383705      0.843237996     -0.303481996       27813.7539      -1.53220260    
  -1.06464398      0.844029009       0.00000000       30785.8965      -1.53388965    
  -1.15769398      0.715813994       0.00000000       30785.8965      -1.53388965    
  -1.15564799      0.714680016     -0.303483993       30785.8965      -1.53388965    
  -1.06383705      0.843237996     -0.303481996       30785.8965      -1.53388965    
  -1.15564799      0.714680016     -0.303483993       4062.26367      -1.48228073    
  -1.23108304      0.575536013     -0.303514004       4062.26367      -1.48228073    
  -1.23232996      0.576179981     -0.606999993       4062.26367      -1.48228073    
  -1.15756094      0.716063023     -0.606999993       4062.26367      -1.48228073    
  -1.15564799      0.714680016     -0.303483993       3577.08398      -1.47825098    
  -1.15756094      0.716063023     -0.606999993       3577.08398      -1.47825098    
  -1.06481802      0.843816996     -0.606999993       3577.08398      -1.47825098    
  -1.06383705      0.843237996     -0.303481996       3577.08398      -1.47825098    
  -1.15564799      0.714680016     -0.303483993       33805.9141      -1.53518951    
  -1.15769398      0.715813994       0.00000000       33805.9141      -1.53518951    
  -1.23224795      0.576331973       0.00000000       33805.9141      -1.53518951    
  -1.23108304      0.575536013     -0.303514004       33805.9141      -1.53518951    
  -1.23224795      0.576331973       0.00000000       35614.7188      -1.53594005    
  -1.28948605      0.428772002       0.00000000       35614.7188      -1.53594005    
  -1.28842103      0.428404987     -0.303512990       35614.7188      -1.53594005    
  -1.23108304      0.575536013     -0.303514004       35614.7188      -1.53594005    
  -1.28842103      0.428404987     -0.303512990       4785.07031      -1.48698604    
  -1.33082402      0.275959998     -0.303492010       4785.07031      -1.48698604    
  -1.33550000      0.277083993     -0.606999993       4785.07031      -1.48698604    