 VARIABLES="X" "Y" "Z" "abs(p) (Pa)" "angle(p) (rad)"
ZONE N=   2720,E =    2069, F=FEPOINT, ET=QUADRILATERAL
 -0.767116010      -1.12776399       0.00000000       3581.69629      -1.62513828    
 -0.769354999      -1.12002099     -0.303523988       3581.69629      -1.62513828    
 -0.896136999      -1.02028203     -0.303463012       3581.69629      -1.62513828    
 -0.894908011      -1.02288902       0.00000000       3581.69629      -1.62513828    
 -0.767116010      -1.12776399       0.00000000       3026.07935      -1.62558234    
 -0.630888999      -1.20308697       0.00000000       3026.07935      -1.62558234    
 -0.635528028      -1.19958198     -0.303541005       3026.07935      -1.62558234    
 -0.769354999      -1.12002099     -0.303523988       3026.07935      -1.62558234    
 -0.635528028      -1.19958198     -0.303541005       1767.35913      -1.60047710    
 -0.495362997      -1.26606500     -0.303519011       1767.35913      -1.60047710    
 -0.499298006      -1.26809204     -0.606999993       1767.35913      -1.60047710    
 -0.640147984      -1.19813800     -0.606998026       1767.35913      -1.60047710    
 -0.635528028      -1.19958198     -0.303541005       2179.76196      -1.60034502    
 -0.640147984      -1.19813800     -0.606998026       2179.76196      -1.60034502    
 -0.777105987      -1.11956596     -0.606999993       2179.76196      -1.60034502    
 -0.769354999      -1.12002099     -0.303523988       2179.76196      -1.60034502    
 -0.635528028      -1.19958198     -0.303541005       2446.81934      -1.62514496    
 -0.630888999      -1.20308697       0.00000000       2446.81934      -1.62514496    
 -0.494486004      -1.26955199       0.00000000       2446.81934      -1.62514496    
 -0.495362997      -1.26606500     -0.303519011       2446.81934      -1.62514496    
 -0.494486004      -1.26955199       0.00000000       1834.45178      -1.62611461    
 -0.346311986      -1.31449997       0.00000000       1834.45178      -1.62611461    
 -0.346753001      -1.31307304     -0.303510010       1834.45178      -1.62611461    
 -0.495362997      -1.26606500     -0.303519011       1834.45178      -1.62611461    
 -0.346753001      -1.31307304     -0.303510010       871.525879      -1.60223830    
 -0.193608001      -1.34425998     -0.303494990       871.525879      -1.60223830    
 -0.195028007      -1.34579206     -0.606999993       871.525879      -1.60223830    
 -0.348751009      -1.31376004     -0.606999993       871.525879      -1.60223830    
 -0.346753001      -1.31307304     -0.303510010       1322.63745      -1.60132897    
 -0.348751009      -1.31376004     -0.606999993       1322.63745      -1.60132897    
 -0.499298006      -1.26809204     -0.606999993       1322.63745      -1.60132897    
 -0.495362997      -1.26606500     -0.303519011       1322.63745      -1.60132897    
 -0.346753001      -1.31307304     -0.303510010       1213.74365      -1.62633026    
 -0.346311986      -1.31449997       0.00000000       1213.74365      -1.62633026    
 -0.193381995      -1.34595394       0.00000000       1213.74365      -1.62633026    
 -0.193608001      -1.34425998     -0.303494990       1213.74365      -1.62633026    
 -0.193381995      -1.34595394       0.00000000       573.544739      -1.62910640    
  -3.75179984E-02  -1.36130500       0.00000000       573.544739      -1.62910640    
  -3.73950005E-02  -1.35827899     -0.303512007       573.544739      -1.62910640    
 -0.193608001      -1.34425998     -0.303494990       573.544739      -1.62910640    
  -3.73950005E-02  -1.35827899     -0.303512007       64.9495926       1.59186065    
  0.119547002      -1.35239303     -0.303498000       64.9495926       1.59186065    
  0.119135000      -1.35326600     -0.606999993       64.9495926       1.59186065    
  -3.82840000E-02  -1.36122894     -0.606998980       64.9495926       1.59186065    
  -3.73950005E-02  -1.35827899     -0.303512007       408.247375      -1.60580802    
  -3.82840000E-02  -1.36122894     -0.606998980       408.247375      -1.60580802    
 -0.195028007      -1.34579206     -0.606999993       408.247375      -1.60580802    
 -0.193608001      -1.34425998     -0.303494990       408.247375      -1.60580802    
  -3.73950005E-02  -1.35827899     -0.303512007       71.1645737       1.56539130    
  -3.75179984E-02  -1.36130500       0.00000000       71.1645737       1.56539130    
  0.119788997      -1.35320199       0.00000000       71.1645737       1.56539130    
  0.119547002      -1.35239303     -0.303498000       71.1645737       1.56539130    
  0.119788997      -1.35320199       0.00000000       705.510315       1.52094543    
  0.276576012      -1.33565402       0.00000000       705.510315       1.52094543    
  0.275435001      -1.33191597     -0.303496003       705.510315       1.52094543    
  0.119547002      -1.35239303     -0.303498000       705.510315       1.52094543    
  0.275435001      -1.33191597     -0.303496003       996.678955       1.54669654    
  0.427076995      -1.28898001     -0.303507000       996.678955       1.54669654    
  0.427242011      -1.28995001     -0.606999993       996.678955       1.54669654    
  0.275831014      -1.33588004     -0.606999993       996.678955       1.54669654    
  0.275435001      -1.33191597     -0.303496003       526.631592       1.54860282    
  0.275831014      -1.33588004     -0.606999993       526.631592       1.54860282    
  0.119135000      -1.35326600     -0.606999993       526.631592       1.54860282    
  0.119547002      -1.35239303     -0.303498000       526.631592       1.54860282    
  0.275435001      -1.33191597     -0.303496003       1344.38599       1.52071667    
  0.276576012      -1.33565402       0.00000000       1344.38599       1.52071667    
  0.427509993      -1.28986895       0.00000000       1344.38599       1.52071667    
  0.427076995      -1.28898001     -0.303507000       1344.38599       1.52071667    
  0.427509993      -1.28986895       0.00000000       1955.28491       1.52048230    
  0.574636996      -1.23315501       0.00000000       1955.28491       1.52048230    
  0.573706985      -1.23136795     -0.303485990       1955.28491       1.52048230    
  0.427076995      -1.28898001     -0.303507000       1955.28491       1.52048230    
  0.573706985      -1.23136795     -0.303485990       1868.25098       1.54480481    
  0.712854981      -1.15688002     -0.303496987       1868.25098       1.54480481    
  0.713809013      -1.15876603     -0.606999993       1868.25098       1.54480481    
  0.574283004      -1.23334301     -0.606999993       1868.25098       1.54480481    
  0.573706985      -1.23136795     -0.303485990       1439.68030       1.54541564    
  0.574283004      -1.23334301     -0.606999993       1439.68030       1.54541564    
  0.427242011      -1.28995001     -0.606999993       1439.68030       1.54541564    
  0.427076995      -1.28898001     -0.303507000       1439.68030       1.54541564    
  0.573706985      -1.23136795     -0.303485990       2552.98389       1.52032447    
  0.574636996      -1.23315501       0.00000000       2552.98389       1.52032447    
  0.713741004      -1.15880203       0.00000000       2552.98389       1.52032447    
  0.712854981      -1.15688002     -0.303496987       2552.98389       1.52032447    
  0.713741004      -1.15880203       0.00000000       3111.66797       1.52002144    
  0.841937006      -1.06636095       0.00000000       3111.66797       1.52002144    
  0.841498017      -1.06573403     -0.303485990       3111.66797       1.52002144    
  0.712854981      -1.15688002     -0.303496987       3111.66797       1.52002144    
  0.841498017      -1.06573403     -0.303485990       2638.15454       1.54384041    
  0.960639000     -0.962104976     -0.303470999       2638.15454       1.54384041    
  0.964356005     -0.965893984     -0.606999993       2638.15454       1.54384041    
  0.841796994      -1.06647599     -0.606999993       2638.15454       1.54384041    
  0.841498017      -1.06573403     -0.303485990       2274.03760       1.54445314    
  0.841796994      -1.06647599     -0.606999993       2274.03760       1.54445314    
  0.713809013      -1.15876603     -0.606999993       2274.03760       1.54445314    
  0.712854981      -1.15688002     -0.303496987       2274.03760       1.54445314    
  0.841498017      -1.06573403     -0.303485990       3617.25391       1.51829827    
  0.841937006      -1.06636095       0.00000000       3617.25391       1.51829827    
  0.963932991     -0.966242015       0.00000000       3617.25391       1.51829827    
  0.960639000     -0.962104976     -0.303470999       3617.25391       1.51829827    
  0.963932991     -0.966242015       0.00000000       4080.20996       1.51788270    
   1.06506598     -0.843514979       0.00000000       4080.20996       1.51788270    
   1.06428695     -0.842682004     -0.303481996       4080.20996       1.51788270    
  0.960639000     -0.962104976     -0.303470999       4080.20996       1.51788270    
   1.06428695     -0.842682004     -0.303481996       3278.56592       1.54336691    
   1.15591598     -0.714210987     -0.303485006       3278.56592       1.54336691    
   1.15788805     -0.715448976     -0.606999993       3278.56592       1.54336691    
   1.06537795     -0.843134999     -0.606999993       3278.56592       1.54336691    
   1.06428695     -0.842682004     -0.303481996       2981.20264       1.54370928    
   1.06537795     -0.843134999     -0.606999993       2981.20264       1.54370928    
  0.964356005     -0.965893984     -0.606999993       2981.20264       1.54370928    
  0.960639000     -0.962104976     -0.303470999       2981.20264       1.54370928    
   1.06428695     -0.842682004     -0.303481996       4451.70850       1.51773965    
   1.06506598     -0.843514979       0.00000000       4451.70850       1.51773965    
   1.15792501     -0.715381980       0.00000000       4451.70850       1.51773965    
   1.15591598     -0.714210987     -0.303485006       4451.70850       1.51773965    
   1.15792501     -0.715381980       0.00000000       4814.15918       1.51725054    
   1.23237598     -0.576093972       0.00000000       4814.15918       1.51725054    
   1.23120904     -0.575251997     -0.303514004       4814.15918       1.51725054    
   1.15591598     -0.714210987     -0.303485006       4814.15918       1.51725054    
   1.23120904     -0.575251997     -0.303514004       3748.97070       1.54295003    
   1.28844094     -0.428344995     -0.303512990       3748.97070       1.54295003    
   1.28952503     -0.428642988     -0.606999993       3748.97070       1.54295003    
   1.23252702     -0.575810015     -0.606999993       3748.97070       1.54295003    
   1.23120904     -0.575251997     -0.303514004       3535.83862       1.54308200    
   1.23252702     -0.575810015     -0.606999993       3535.83862       1.54308200    
   1.15788805     -0.715448976     -0.606999993       3535.83862       1.54308200    
   1.15591598     -0.714210987     -0.303485006       3535.83862       1.54308200    
   1.23120904     -0.575251997     -0.303514004       5142.95996       1.51737571    
   1.23237598     -0.576093972       0.00000000       5142.95996       1.51737571    
   1.28947699     -0.428801000       0.00000000       5142.95996       1.51737571    
   1.28844094     -0.428344995     -0.303512990       5142.95996       1.51737571    
   1.28947699     -0.428801000       0.00000000       5409.55176       1.51701880    
   1.33532202     -0.277671993       0.00000000       5409.55176       1.51701880    
   1.33076501     -0.276203990     -0.303492010       5409.55176       1.51701880    
   1.28844094     -0.428344995     -0.303512990       5409.55176       1.51701880    
   1.33076501     -0.276203990     -0.303492010       4014.65625       1.54262316    
   1.35229194     -0.119709998     -0.303514004       4014.65625       1.54262316    
   1.35321999     -0.119608998     -0.606999993       4014.65625       1.54262316    
   1.33549094     -0.277112991     -0.606999993       4014.65625       1.54262316    
   1.33076501     -0.276203990     -0.303492010       3907.99634       1.54278231    
   1.33549094     -0.277112991     -0.606999993       3907.99634       1.54278231    
   1.28952503     -0.428642988     -0.606999993       3907.99634       1.54278231    
   1.28844094     -0.428344995     -0.303512990       3907.99634       1.54278231    
   1.33076501     -0.276203990     -0.303492010       5567.96191       1.51707196    
   1.33532202     -0.277671993       0.00000000       5567.96191       1.51707196    
   1.35319102     -0.119900003       0.00000000       5567.96191       1.51707196    
   1.35229194     -0.119709998     -0.303514004       5567.96191       1.51707196    
   1.35319102     -0.119900003       0.00000000       5636.99854       1.51708448    
   1.36124396       3.81390005E-02   0.00000000       5636.99854       1.51708448    
   1.35858905       3.79349999E-02 -0.303501010       5636.99854       1.51708448    
   1.35229194     -0.119709998     -0.303514004       5636.99854       1.51708448    
   1.35858905       3.79349999E-02 -0.303501010       4053.27368       1.54228759    
   1.34464097      0.195331007     -0.303496003       4053.27368       1.54228759    
   1.34573400      0.195616007     -0.606999993       4053.27368       1.54228759    
   1.36126804       3.78950015E-02 -0.606999993       4053.27368       1.54228759    
   1.35858905       3.79349999E-02 -0.303501010       4063.27905       1.54248452    
   1.36126804       3.78950015E-02 -0.606999993       4063.27905       1.54248452    
   1.35321999     -0.119608998     -0.606999993       4063.27905       1.54248452    
   1.35229194     -0.119709998     -0.303514004       4063.27905       1.54248452    
   1.35858905       3.79349999E-02 -0.303501010       5630.45947       1.51658940    
   1.36124396       3.81390005E-02   0.00000000       5630.45947       1.51658940    
   1.34575403      0.195406005       0.00000000       5630.45947       1.51658940    
   1.34464097      0.195331007     -0.303496003       5630.45947       1.51658940    
   1.34575403      0.195406005       0.00000000       5543.92871       1.51646125    
   1.31339800      0.349945009       0.00000000       5543.92871       1.51646125    
   1.31216300      0.349725991     -0.303487003       5543.92871       1.51646125    
   1.34464097      0.195331007     -0.303496003       5543.92871       1.51646125    
   1.31216300      0.349725991     -0.303487003       3859.69238       1.54210031    
   1.26341999      0.500032008     -0.303494006       3859.69238       1.54210031    
   1.26736605      0.501691997     -0.606999993       3859.69238       1.54210031    
   1.31333196      0.350163996     -0.606999993       3859.69238       1.54210031    
   1.31216300      0.349725991     -0.303487003       3986.60278       1.54219472    
   1.31333196      0.350163996     -0.606999993       3986.60278       1.54219472    
   1.34573400      0.195616007     -0.606999993       3986.60278       1.54219472    
   1.34464097      0.195331007     -0.303496003       3986.60278       1.54219472    
   1.31216300      0.349725991     -0.303487003       5367.92627       1.51581514    
   1.31339800      0.349945009       0.00000000       5367.92627       1.51581514    
   1.26751196      0.501209974       0.00000000       5367.92627       1.51581514    
   1.26341999      0.500032008     -0.303494006       5367.92627       1.51581514    
   1.26751196      0.501209974       0.00000000       5136.30371       1.51587951    
   1.19658697      0.643051028       0.00000000       5136.30371       1.51587951    
   1.19583094      0.642783999     -0.303505003       5136.30371       1.51587951    
   1.26341999      0.500032008     -0.303494006       5136.30371       1.51587951    
   1.19583094      0.642783999     -0.303505003       3450.59106       1.54223883    
   1.11495602      0.778467000     -0.303483993       3450.59106       1.54223883    
   1.11731696      0.779847026     -0.606999993       3450.59106       1.54223883    
   1.19653296      0.643149972     -0.606999993       3450.59106       1.54223883    
   1.19583094      0.642783999     -0.303505003       3679.10938       1.54210711    
   1.19653296      0.643149972     -0.606999993       3679.10938       1.54210711    
   1.26736605      0.501691997     -0.606999993       3679.10938       1.54210711    
   1.26341999      0.500032008     -0.303494006       3679.10938       1.54210711    
   1.19583094      0.642783999     -0.303505003       4795.08838       1.51633930    
   1.19658697      0.643051028       0.00000000       4795.08838       1.51633930    
   1.11705506      0.780165970       0.00000000       4795.08838       1.51633930    
   1.11495602      0.778467000     -0.303483993       4795.08838       1.51633930    
   1.11705506      0.780165970       0.00000000       4365.10498       1.51657832    
   1.01674199      0.902397990       0.00000000       4365.10498       1.51657832    
   1.01591504      0.901737988     -0.303478003       4365.10498       1.51657832    
   1.11495602      0.778467000     -0.303483993       4365.10498       1.51657832    
   1.01591504      0.901737988     -0.303478003       2840.74902       1.54278612    
  0.904204011       1.01322901     -0.303456992       2840.74902       1.54278612    
  0.905143023       1.01448905     -0.606999993       2840.74902       1.54278612    
   1.01659799      0.902572989     -0.606999993       2840.74902       1.54278612    
   1.01591504      0.901737988     -0.303478003       3163.21802       1.54241836    
   1.01659799      0.902572989     -0.606999993       3163.21802       1.54241836    
   1.11731696      0.779847026     -0.606999993       3163.21802       1.54241836    
   1.11495602      0.778467000     -0.303483993       3163.21802       1.54241836    
   1.01591504      0.901737988     -0.303478003       3889.57812       1.51747096    
   1.01674199      0.902397990       0.00000000       3889.57812       1.51747096    
  0.905318975       1.01434398       0.00000000       3889.57812       1.51747096    
  0.904204011       1.01322901     -0.303456992       3889.57812       1.51747096    
  0.905318975       1.01434398       0.00000000       3413.08008       1.51742971    
  0.782918990       1.11479497       0.00000000       3413.08008       1.51742971    
  0.780644000       1.11195600     -0.303485006       3413.08008       1.51742971    
  0.904204011       1.01322901     -0.303456992       3413.08008       1.51742971    
  0.780644000       1.11195600     -0.303485006       2087.78394       1.54314578    
  0.645825028       1.19414902     -0.303514004       2087.78394       1.54314578    
  0.646153986       1.19492805     -0.606999993       2087.78394       1.54314578    
  0.782611012       1.11504900     -0.606999993       2087.78394       1.54314578    
  0.780644000       1.11195600     -0.303485006       2482.28833       1.54304850    
  0.782611012       1.11504900     -0.606999993       2482.28833       1.54304850    
  0.905143023       1.01448905     -0.606999993       2482.28833       1.54304850    
  0.904204011       1.01322901     -0.303456992       2482.28833       1.54304850    
  0.780644000       1.11195600     -0.303485006       2877.96216       1.51746178    
  0.782918990       1.11479497       0.00000000       2877.96216       1.51746178    
  0.646345019       1.19482601       0.00000000       2877.96216       1.51746178    
  0.645825028       1.19414902     -0.303514004       2877.96216       1.51746178    
  0.646345019       1.19482601       0.00000000       2302.44873       1.51769412    
  0.504974008       1.26637006       0.00000000       2302.44873       1.51769412    
  0.503772974       1.26314998     -0.303521991       2302.44873       1.51769412    
  0.645825028       1.19414902     -0.303514004       2302.44873       1.51769412    
  0.503772974       1.26314998     -0.303521991       1224.49939       1.54329801    
  0.353130996       1.31116498     -0.303510994       1224.49939       1.54329801    
  0.353300005       1.31237996     -0.606999993       1224.49939       1.54329801    
  0.505183995       1.26630700     -0.606999993       1224.49939       1.54329801    
  0.503772974       1.26314998     -0.303521991       1674.54773       1.54349411    
  0.505183995       1.26630700     -0.606999993       1674.54773       1.54349411    
  0.646153986       1.19492805     -0.606999993       1674.54773       1.54349411    
  0.645825028       1.19414902     -0.303514004       1674.54773       1.54349411    
  0.503772974       1.26314998     -0.303521991       1680.50342       1.51682663    
  0.504974008       1.26637006       0.00000000       1680.50342       1.51682663    
  0.353493989       1.31232095       0.00000000       1680.50342       1.51682663    
  0.353130996       1.31116498     -0.303510994       1680.50342       1.51682663    
  0.353493989       1.31232095       0.00000000       1048.07861       1.51726258    
  0.199064001       1.34539402       0.00000000       1048.07861       1.51726258    
  0.198755994       1.34360003     -0.303496003       1048.07861       1.51726258    
  0.353130996       1.31116498     -0.303510994       1048.07861       1.51726258    
  0.198755994       1.34360003     -0.303496003       304.398132       1.54670334    
   4.12769988E-02   1.35817802     -0.303508013       304.398132       1.54670334    
   4.12410013E-02   1.36093795     -0.606999993       304.398132       1.54670334    
  0.199025005       1.34539795     -0.606999993       304.398132       1.54670334    
  0.198755994       1.34360003     -0.303496003       770.542175       1.54397547    
  0.199025005       1.34539795     -0.606999993       770.542175       1.54397547    
  0.353300005       1.31237996     -0.606999993       770.542175       1.54397547    
  0.353130996       1.31116498     -0.303510994       770.542175       1.54397547    
  0.198755994       1.34360003     -0.303496003       400.668549       1.51648080    
  0.199064001       1.34539402       0.00000000       400.668549       1.51648080    
   4.17769998E-02   1.36088502       0.00000000       400.668549       1.51648080    
   4.12769988E-02   1.35817802     -0.303508013       400.668549       1.51648080    
   4.17769998E-02   1.36088502       0.00000000       249.904297      -1.62112284    
 -0.116410002       1.35353506       0.00000000       249.904297      -1.62112284    
 -0.116471998       1.35271096     -0.303496987       249.904297      -1.62112284    
   4.12769988E-02   1.35817802     -0.303508013       249.904297      -1.62112284    
 -0.116471998       1.35271096     -0.303496987       633.907166      -1.60109246    
 -0.273027003       1.33229196     -0.303496003       633.907166      -1.60109246    
 -0.273876995       1.33647299     -0.606999993       633.907166      -1.60109246    
 -0.116722003       1.35350394     -0.606999993       633.907166      -1.60109246    
 -0.116471998       1.35271096     -0.303496987       171.017609      -1.60431421    
 -0.116722003       1.35350394     -0.606999993       171.017609      -1.60431421    
   4.12410013E-02   1.36093795     -0.606999993       171.017609      -1.60431421    
   4.12769988E-02   1.35817802     -0.303508013       171.017609      -1.60431421    
 -0.116471998       1.35271096     -0.303496987       899.678040      -1.62472379    
 -0.116410002       1.35353506       0.00000000       899.678040      -1.62472379    
 -0.274069011       1.33641505       0.00000000       899.678040      -1.62472379    
 -0.273027003       1.33229196     -0.303496003       899.678040      -1.62472379    
 -0.274069011       1.33641505       0.00000000       1546.25732      -1.62343955    
 -0.425588995       1.29045200       0.00000000       1546.25732      -1.62343955    
 -0.425258011       1.28953803     -0.303507000       1546.25732      -1.62343955    
 -0.273027003       1.33229196     -0.303496003       1546.25732      -1.62343955    
 -0.425258011       1.28953803     -0.303507000       1548.40649      -1.59917200    
 -0.572302997       1.23206902     -0.303485990       1548.40649      -1.59917200    
 -0.573064029       1.23399496     -0.606999993       1548.40649      -1.59917200    
 -0.425651014       1.29043305     -0.606999993       1548.40649      -1.59917200    
 -0.425258011       1.28953803     -0.303507000       1104.93506      -1.59936094    
 -0.425651014       1.29043305     -0.606999993       1104.93506      -1.59936094    
 -0.273876995       1.33647299     -0.606999993       1104.93506      -1.59936094    
 -0.273027003       1.33229196     -0.303496003       1104.93506      -1.59936094    
 -0.425258011       1.28953803     -0.303507000       2156.02197      -1.62293947    
 -0.425588995       1.29045200       0.00000000       2156.02197      -1.62293947    
 -0.573195994       1.23392498       0.00000000       2156.02197      -1.62293947    
 -0.572302997       1.23206902     -0.303485990       2156.02197      -1.62293947    
 -0.573195994       1.23392498       0.00000000       2748.81372      -1.62255168    
 -0.712655008       1.15938199       0.00000000       2748.81372      -1.62255168    
 -0.711889029       1.15749002     -0.303496003       2748.81372      -1.62255168    
 -0.572302997       1.23206902     -0.303485990       2748.81372      -1.62255168    
 -0.711889029       1.15749002     -0.303496003       2381.26855      -1.59875226    
 -0.840825975       1.06629205     -0.303485990       2381.26855      -1.59875226    
 -0.841368973       1.06682706     -0.606999993       2381.26855      -1.59875226    
 -0.712980986       1.15920806     -0.606999993       2381.26855      -1.59875226    
 -0.711889029       1.15749002     -0.303496003       1976.25684      -1.59893906    
 -0.712980986       1.15920806     -0.606999993       1976.25684      -1.59893906    
 -0.573064029       1.23399496     -0.606999993       1976.25684      -1.59893906    
 -0.572302997       1.23206902     -0.303485990       1976.25684      -1.59893906    
 -0.711889029       1.15749002     -0.303496003       3283.76953      -1.62219882    
 -0.712655008       1.15938199       0.00000000       3283.76953      -1.62219882    
 -0.841165006       1.06699395       0.00000000       3283.76953      -1.62219882    
 -0.840825975       1.06629205     -0.303485990       3283.76953      -1.62219882    
 -0.841165006       1.06699395       0.00000000       3773.72412      -1.62320018    
 -0.963320017      0.966744006       0.00000000       3773.72412      -1.62320018    
 -0.960084975      0.962615013     -0.303470999       3773.72412      -1.62320018    
 -0.840825975       1.06629205     -0.303485990       3773.72412      -1.62320018    
 -0.960084975      0.962615013     -0.303470999       3099.08740      -1.59897518    
  -1.06383705      0.843237996     -0.303481996       3099.08740      -1.59897518    
  -1.06481802      0.843816996     -0.606999993       3099.08740      -1.59897518    
 -0.963873982      0.966289997     -0.606999993       3099.08740      -1.59897518    
 -0.960084975      0.962615013     -0.303470999       2750.04858      -1.59894228    
 -0.963873982      0.966289997     -0.606999993       2750.04858      -1.59894228    
 -0.841368973       1.06682706     -0.606999993       2750.04858      -1.59894228    
 -0.840825975       1.06629205     -0.303485990       2750.04858      -1.59894228    
 -0.960084975      0.962615013     -0.303470999       4254.80615      -1.62356460    
 -0.963320017      0.966744006       0.00000000       4254.80615      -1.62356460    
  -1.06464398      0.844029009       0.00000000       4254.80615      -1.62356460    
  -1.06383705      0.843237996     -0.303481996       4254.80615      -1.62356460    
  -1.06464398      0.844029009       0.00000000       4689.95703      -1.62406898    
  -1.15769398      0.715813994       0.00000000       4689.95703      -1.62406898    
  -1.15564799      0.714680016     -0.303483993       4689.95703      -1.62406898    
  -1.06383705      0.843237996     -0.303481996       4689.95703      -1.62406898    
  -1.15564799      0.714680016     -0.303483993       3670.17358      -1.59974658    
  -1.23108304      0.575536013     -0.303514004       3670.17358      -1.59974658    
  -1.23232996      0.576179981     -0.606999993       3670.17358      -1.59974658    
  -1.15756094      0.716063023     -0.606999993       3670.17358      -1.59974658    
  -1.15564799      0.714680016     -0.303483993       3403.58398      -1.59938788    
  -1.15756094      0.716063023     -0.606999993       3403.58398      -1.59938788    
  -1.06481802      0.843816996     -0.606999993       3403.58398      -1.59938788    
  -1.06383705      0.843237996     -0.303481996       3403.58398      -1.59938788    
  -1.15564799      0.714680016     -0.303483993       5111.84033      -1.62477148    
  -1.15769398      0.715813994       0.00000000       5111.84033      -1.62477148    
  -1.23224795      0.576331973       0.00000000       5111.84033      -1.62477148    
  -1.23108304      0.575536013     -0.303514004       5111.84033      -1.62477148    
  -1.23224795      0.576331973       0.00000000       5426.96240      -1.62484229    
  -1.28948605      0.428772002       0.00000000       5426.96240      -1.62484229    
  -1.28842103      0.428404987     -0.303512990       5426.96240      -1.62484229    
  -1.23108304      0.575536013     -0.303514004       5426.96240      -1.62484229    
  -1.28842103      0.428404987     -0.303512990       4036.77808      -1.60015559    
  -1.33082402      0.275959998     -0.303492010       4036.77808      -1.60015559    
  -1.33550000      0.277083993     -0.606999993       4036.77808      -1.60015559    