 VARIABLES="X" "Y" "Z" "abs(p) (Pa)" "angle(p) (rad)"
ZONE N=   2720,E =    2069, F=FEPOINT, ET=QUADRILATERAL
 -0.767116010      -1.12776399       0.00000000       474.328064      -1.57415295    
 -0.769354999      -1.12002099     -0.303523988       474.328064      -1.57415295    
 -0.896136999      -1.02028203     -0.303463012       474.328064      -1.57415295    
 -0.894908011      -1.02288902       0.00000000       474.328064      -1.57415295    
 -0.767116010      -1.12776399       0.00000000       514.156921      -1.57416618    
 -0.630888999      -1.20308697       0.00000000       514.156921      -1.57416618    
 -0.635528028      -1.19958198     -0.303541005       514.156921      -1.57416618    
 -0.769354999      -1.12002099     -0.303523988       514.156921      -1.57416618    
 -0.635528028      -1.19958198     -0.303541005       421.027222      -1.57575810    
 -0.495362997      -1.26606500     -0.303519011       421.027222      -1.57575810    
 -0.499298006      -1.26809204     -0.606999993       421.027222      -1.57575810    
 -0.640147984      -1.19813800     -0.606998026       421.027222      -1.57575810    
 -0.635528028      -1.19958198     -0.303541005       396.440430      -1.57573044    
 -0.640147984      -1.19813800     -0.606998026       396.440430      -1.57573044    
 -0.777105987      -1.11956596     -0.606999993       396.440430      -1.57573044    
 -0.769354999      -1.12002099     -0.303523988       396.440430      -1.57573044    
 -0.635528028      -1.19958198     -0.303541005       545.701111      -1.57417631    
 -0.630888999      -1.20308697       0.00000000       545.701111      -1.57417631    
 -0.494486004      -1.26955199       0.00000000       545.701111      -1.57417631    
 -0.495362997      -1.26606500     -0.303519011       545.701111      -1.57417631    
 -0.494486004      -1.26955199       0.00000000       570.782471      -1.57418180    
 -0.346311986      -1.31449997       0.00000000       570.782471      -1.57418180    
 -0.346753001      -1.31307304     -0.303510010       570.782471      -1.57418180    
 -0.495362997      -1.26606500     -0.303519011       570.782471      -1.57418180    
 -0.346753001      -1.31307304     -0.303510010       454.968842      -1.57576108    
 -0.193608001      -1.34425998     -0.303494990       454.968842      -1.57576108    
 -0.195028007      -1.34579206     -0.606999993       454.968842      -1.57576108    
 -0.348751009      -1.31376004     -0.606999993       454.968842      -1.57576108    
 -0.346753001      -1.31307304     -0.303510010       441.170471      -1.57575870    
 -0.348751009      -1.31376004     -0.606999993       441.170471      -1.57575870    
 -0.499298006      -1.26809204     -0.606999993       441.170471      -1.57575870    
 -0.495362997      -1.26606500     -0.303519011       441.170471      -1.57575870    
 -0.346753001      -1.31307304     -0.303510010       588.489746      -1.57418430    
 -0.346311986      -1.31449997       0.00000000       588.489746      -1.57418430    
 -0.193381995      -1.34595394       0.00000000       588.489746      -1.57418430    
 -0.193608001      -1.34425998     -0.303494990       588.489746      -1.57418430    
 -0.193381995      -1.34595394       0.00000000       599.083923      -1.57419014    
  -3.75179984E-02  -1.36130500       0.00000000       599.083923      -1.57419014    
  -3.73950005E-02  -1.35827899     -0.303512007       599.083923      -1.57419014    
 -0.193608001      -1.34425998     -0.303494990       599.083923      -1.57419014    
  -3.73950005E-02  -1.35827899     -0.303512007       464.410309      -1.57576180    
  0.119547002      -1.35239303     -0.303498000       464.410309      -1.57576180    
  0.119135000      -1.35326600     -0.606999993       464.410309      -1.57576180    
  -3.82840000E-02  -1.36122894     -0.606998980       464.410309      -1.57576180    
  -3.73950005E-02  -1.35827899     -0.303512007       462.738373      -1.57576859    
  -3.82840000E-02  -1.36122894     -0.606998980       462.738373      -1.57576859    
 -0.195028007      -1.34579206     -0.606999993       462.738373      -1.57576859    
 -0.193608001      -1.34425998     -0.303494990       462.738373      -1.57576859    
  -3.73950005E-02  -1.35827899     -0.303512007       600.939453      -1.57419038    
  -3.75179984E-02  -1.36130500       0.00000000       600.939453      -1.57419038    
  0.119788997      -1.35320199       0.00000000       600.939453      -1.57419038    
  0.119547002      -1.35239303     -0.303498000       600.939453      -1.57419038    
  0.119788997      -1.35320199       0.00000000       594.770813      -1.57419312    
  0.276576012      -1.33565402       0.00000000       594.770813      -1.57419312    
  0.275435001      -1.33191597     -0.303496003       594.770813      -1.57419312    
  0.119547002      -1.35239303     -0.303498000       594.770813      -1.57419312    
  0.275435001      -1.33191597     -0.303496003       448.459595      -1.57580006    
  0.427076995      -1.28898001     -0.303507000       448.459595      -1.57580006    
  0.427242011      -1.28995001     -0.606999993       448.459595      -1.57580006    
  0.275831014      -1.33588004     -0.606999993       448.459595      -1.57580006    
  0.275435001      -1.33191597     -0.303496003       459.714020      -1.57579577    
  0.275831014      -1.33588004     -0.606999993       459.714020      -1.57579577    
  0.119135000      -1.35326600     -0.606999993       459.714020      -1.57579577    
  0.119547002      -1.35239303     -0.303498000       459.714020      -1.57579577    
  0.275435001      -1.33191597     -0.303496003       580.056824      -1.57419753    
  0.276576012      -1.33565402       0.00000000       580.056824      -1.57419753    
  0.427509993      -1.28986895       0.00000000       580.056824      -1.57419753    
  0.427076995      -1.28898001     -0.303507000       580.056824      -1.57419753    
  0.427509993      -1.28986895       0.00000000       558.466187      -1.57418334    
  0.574636996      -1.23315501       0.00000000       558.466187      -1.57418334    
  0.573706985      -1.23136795     -0.303485990       558.466187      -1.57418334    
  0.427076995      -1.28898001     -0.303507000       558.466187      -1.57418334    
  0.573706985      -1.23136795     -0.303485990       409.097229      -1.57577276    
  0.712854981      -1.15688002     -0.303496987       409.097229      -1.57577276    
  0.713809013      -1.15876603     -0.606999993       409.097229      -1.57577276    
  0.574283004      -1.23334301     -0.606999993       409.097229      -1.57577276    
  0.573706985      -1.23136795     -0.303485990       431.874268      -1.57578230    
  0.574283004      -1.23334301     -0.606999993       431.874268      -1.57578230    
  0.427242011      -1.28995001     -0.606999993       431.874268      -1.57578230    
  0.427076995      -1.28898001     -0.303507000       431.874268      -1.57578230    
  0.573706985      -1.23136795     -0.303485990       530.029053      -1.57416332    
  0.574636996      -1.23315501       0.00000000       530.029053      -1.57416332    
  0.713741004      -1.15880203       0.00000000       530.029053      -1.57416332    
  0.712854981      -1.15688002     -0.303496987       530.029053      -1.57416332    
  0.713741004      -1.15880203       0.00000000       493.565643      -1.57414806    
  0.841937006      -1.06636095       0.00000000       493.565643      -1.57414806    
  0.841498017      -1.06573403     -0.303485990       493.565643      -1.57414806    
  0.712854981      -1.15688002     -0.303496987       493.565643      -1.57414806    
  0.841498017      -1.06573403     -0.303485990       347.549103      -1.57573199    
  0.960639000     -0.962104976     -0.303470999       347.549103      -1.57573199    
  0.964356005     -0.965893984     -0.606999993       347.549103      -1.57573199    
  0.841796994      -1.06647599     -0.606999993       347.549103      -1.57573199    
  0.841498017      -1.06573403     -0.303485990       380.746124      -1.57575679    
  0.841796994      -1.06647599     -0.606999993       380.746124      -1.57575679    
  0.713809013      -1.15876603     -0.606999993       380.746124      -1.57575679    
  0.712854981      -1.15688002     -0.303496987       380.746124      -1.57575679    
  0.841498017      -1.06573403     -0.303485990       450.497467      -1.57415330    
  0.841937006      -1.06636095       0.00000000       450.497467      -1.57415330    
  0.963932991     -0.966242015       0.00000000       450.497467      -1.57415330    
  0.960639000     -0.962104976     -0.303470999       450.497467      -1.57415330    
  0.963932991     -0.966242015       0.00000000       400.035400      -1.57415235    
   1.06506598     -0.843514979       0.00000000       400.035400      -1.57415235    
   1.06428695     -0.842682004     -0.303481996       400.035400      -1.57415235    
  0.960639000     -0.962104976     -0.303470999       400.035400      -1.57415235    
   1.06428695     -0.842682004     -0.303481996       267.017639      -1.57571411    
   1.15591598     -0.714210987     -0.303485006       267.017639      -1.57571411    
   1.15788805     -0.715448976     -0.606999993       267.017639      -1.57571411    
   1.06537795     -0.843134999     -0.606999993       267.017639      -1.57571411    
   1.06428695     -0.842682004     -0.303481996       308.162750      -1.57573533    
   1.06537795     -0.843134999     -0.606999993       308.162750      -1.57573533    
  0.964356005     -0.965893984     -0.606999993       308.162750      -1.57573533    
  0.960639000     -0.962104976     -0.303470999       308.162750      -1.57573533    
   1.06428695     -0.842682004     -0.303481996       345.786926      -1.57410336    
   1.06506598     -0.843514979       0.00000000       345.786926      -1.57410336    
   1.15792501     -0.715381980       0.00000000       345.786926      -1.57410336    
   1.15591598     -0.714210987     -0.303485006       345.786926      -1.57410336    
   1.15792501     -0.715381980       0.00000000       285.945312      -1.57406318    
   1.23237598     -0.576093972       0.00000000       285.945312      -1.57406318    
   1.23120904     -0.575251997     -0.303514004       285.945312      -1.57406318    
   1.15591598     -0.714210987     -0.303485006       285.945312      -1.57406318    
   1.23120904     -0.575251997     -0.303514004       171.884705      -1.57557499    
   1.28844094     -0.428344995     -0.303512990       171.884705      -1.57557499    
   1.28952503     -0.428642988     -0.606999993       171.884705      -1.57557499    
   1.23252702     -0.575810015     -0.606999993       171.884705      -1.57557499    
   1.23120904     -0.575251997     -0.303514004       220.849274      -1.57566893    
   1.23252702     -0.575810015     -0.606999993       220.849274      -1.57566893    
   1.15788805     -0.715448976     -0.606999993       220.849274      -1.57566893    
   1.15591598     -0.714210987     -0.303485006       220.849274      -1.57566893    
   1.23120904     -0.575251997     -0.303514004       222.190216      -1.57406843    
   1.23237598     -0.576093972       0.00000000       222.190216      -1.57406843    
   1.28947699     -0.428801000       0.00000000       222.190216      -1.57406843    
   1.28844094     -0.428344995     -0.303512990       222.190216      -1.57406843    
   1.28947699     -0.428801000       0.00000000       157.194656      -1.57382309    
   1.33532202     -0.277671993       0.00000000       157.194656      -1.57382309    
   1.33076501     -0.276203990     -0.303492010       157.194656      -1.57382309    
   1.28844094     -0.428344995     -0.303512990       157.194656      -1.57382309    
   1.33076501     -0.276203990     -0.303492010       67.2350159      -1.57506561    
   1.35229194     -0.119709998     -0.303514004       67.2350159      -1.57506561    
   1.35321999     -0.119608998     -0.606999993       67.2350159      -1.57506561    
   1.33549094     -0.277112991     -0.606999993       67.2350159      -1.57506561    
   1.33076501     -0.276203990     -0.303492010       121.533951      -1.57535827    
   1.33549094     -0.277112991     -0.606999993       121.533951      -1.57535827    
   1.28952503     -0.428642988     -0.606999993       121.533951      -1.57535827    
   1.28844094     -0.428344995     -0.303512990       121.533951      -1.57535827    
   1.33076501     -0.276203990     -0.303492010       87.9953613      -1.57328522    
   1.33532202     -0.277671993       0.00000000       87.9953613      -1.57328522    
   1.35319102     -0.119900003       0.00000000       87.9953613      -1.57328522    
   1.35229194     -0.119709998     -0.303514004       87.9953613      -1.57328522    
   1.35319102     -0.119900003       0.00000000       19.2786541      -1.56904137    
   1.36124396       3.81390005E-02   0.00000000       19.2786541      -1.56904137    
   1.35858905       3.79349999E-02 -0.303501010       19.2786541      -1.56904137    
   1.35229194     -0.119709998     -0.303514004       19.2786541      -1.56904137    
   1.35858905       3.79349999E-02 -0.303501010       39.8066864       1.56349409    
   1.34464097      0.195331007     -0.303496003       39.8066864       1.56349409    
   1.34573400      0.195616007     -0.606999993       39.8066864       1.56349409    
   1.36126804       3.78950015E-02 -0.606999993       39.8066864       1.56349409    
   1.35858905       3.79349999E-02 -0.303501010       14.8469677      -1.56983495    
   1.36126804       3.78950015E-02 -0.606999993       14.8469677      -1.56983495    
   1.35321999     -0.119608998     -0.606999993       14.8469677      -1.56983495    
   1.35229194     -0.119709998     -0.303514004       14.8469677      -1.56983495    
   1.35858905       3.79349999E-02 -0.303501010       51.0956841       1.56535721    
   1.36124396       3.81390005E-02   0.00000000       51.0956841       1.56535721    
   1.34575403      0.195406005       0.00000000       51.0956841       1.56535721    
   1.34464097      0.195331007     -0.303496003       51.0956841       1.56535721    
   1.34575403      0.195406005       0.00000000       119.891159       1.56641757    
   1.31339800      0.349945009       0.00000000       119.891159       1.56641757    
   1.31216300      0.349725991     -0.303487003       119.891159       1.56641757    
   1.34464097      0.195331007     -0.303496003       119.891159       1.56641757    
   1.31216300      0.349725991     -0.303487003       144.241013       1.56487668    
   1.26341999      0.500032008     -0.303494006       144.241013       1.56487668    
   1.26736605      0.501691997     -0.606999993       144.241013       1.56487668    
   1.31333196      0.350163996     -0.606999993       144.241013       1.56487668    
   1.31216300      0.349725991     -0.303487003       93.1182327       1.56469309    
   1.31333196      0.350163996     -0.606999993       93.1182327       1.56469309    
   1.34573400      0.195616007     -0.606999993       93.1182327       1.56469309    
   1.34464097      0.195331007     -0.303496003       93.1182327       1.56469309    
   1.31216300      0.349725991     -0.303487003       186.661163       1.56667948    
   1.31339800      0.349945009       0.00000000       186.661163       1.56667948    
   1.26751196      0.501209974       0.00000000       186.661163       1.56667948    
   1.26341999      0.500032008     -0.303494006       186.661163       1.56667948    
   1.26751196      0.501209974       0.00000000       252.516663       1.56683946    
   1.19658697      0.643051028       0.00000000       252.516663       1.56683946    
   1.19583094      0.642783999     -0.303505003       252.516663       1.56683946    
   1.26341999      0.500032008     -0.303494006       252.516663       1.56683946    
   1.19583094      0.642783999     -0.303505003       242.166031       1.56515992    
   1.11495602      0.778467000     -0.303483993       242.166031       1.56515992    
   1.11731696      0.779847026     -0.606999993       242.166031       1.56515992    
   1.19653296      0.643149972     -0.606999993       242.166031       1.56515992    
   1.19583094      0.642783999     -0.303505003       195.401291       1.56511152    
   1.19653296      0.643149972     -0.606999993       195.401291       1.56511152    
   1.26736605      0.501691997     -0.606999993       195.401291       1.56511152    
   1.26341999      0.500032008     -0.303494006       195.401291       1.56511152    
   1.19583094      0.642783999     -0.303505003       313.765717       1.56690395    
   1.19658697      0.643051028       0.00000000       313.765717       1.56690395    
   1.11705506      0.780165970       0.00000000       313.765717       1.56690395    
   1.11495602      0.778467000     -0.303483993       313.765717       1.56690395    
   1.11705506      0.780165970       0.00000000       372.044647       1.56697488    
   1.01674199      0.902397990       0.00000000       372.044647       1.56697488    
   1.01591504      0.901737988     -0.303478003       372.044647       1.56697488    
   1.11495602      0.778467000     -0.303483993       372.044647       1.56697488    
   1.01591504      0.901737988     -0.303478003       327.482574       1.56528509    
  0.904204011       1.01322901     -0.303456992       327.482574       1.56528509    
  0.905143023       1.01448905     -0.606999993       327.482574       1.56528509    
   1.01659799      0.902572989     -0.606999993       327.482574       1.56528509    
   1.01591504      0.901737988     -0.303478003       287.290710       1.56524181    
   1.01659799      0.902572989     -0.606999993       287.290710       1.56524181    
   1.11731696      0.779847026     -0.606999993       287.290710       1.56524181    
   1.11495602      0.778467000     -0.303483993       287.290710       1.56524181    
   1.01591504      0.901737988     -0.303478003       423.841400       1.56700420    
   1.01674199      0.902397990       0.00000000       423.841400       1.56700420    
  0.905318975       1.01434398       0.00000000       423.841400       1.56700420    
  0.904204011       1.01322901     -0.303456992       423.841400       1.56700420    
  0.905318975       1.01434398       0.00000000       470.404297       1.56701720    
  0.782918990       1.11479497       0.00000000       470.404297       1.56701720    
  0.780644000       1.11195600     -0.303485006       470.404297       1.56701720    
  0.904204011       1.01322901     -0.303456992       470.404297       1.56701720    
  0.780644000       1.11195600     -0.303485006       394.642822       1.56534517    
  0.645825028       1.19414902     -0.303514004       394.642822       1.56534517    
  0.646153986       1.19492805     -0.606999993       394.642822       1.56534517    
  0.782611012       1.11504900     -0.606999993       394.642822       1.56534517    
  0.780644000       1.11195600     -0.303485006       363.116638       1.56530690    
  0.782611012       1.11504900     -0.606999993       363.116638       1.56530690    
  0.905143023       1.01448905     -0.606999993       363.116638       1.56530690    
  0.904204011       1.01322901     -0.303456992       363.116638       1.56530690    
  0.780644000       1.11195600     -0.303485006       510.521820       1.56703508    
  0.782918990       1.11479497       0.00000000       510.521820       1.56703508    
  0.646345019       1.19482601       0.00000000       510.521820       1.56703508    
  0.645825028       1.19414902     -0.303514004       510.521820       1.56703508    
  0.646345019       1.19482601       0.00000000       543.199463       1.56704533    
  0.504974008       1.26637006       0.00000000       543.199463       1.56704533    
  0.503772974       1.26314998     -0.303521991       543.199463       1.56704533    
  0.645825028       1.19414902     -0.303514004       543.199463       1.56704533    
  0.503772974       1.26314998     -0.303521991       440.128876       1.56536329    
  0.353130996       1.31116498     -0.303510994       440.128876       1.56536329    
  0.353300005       1.31237996     -0.606999993       440.128876       1.56536329    
  0.505183995       1.26630700     -0.606999993       440.128876       1.56536329    
  0.503772974       1.26314998     -0.303521991       419.769165       1.56534636    
  0.505183995       1.26630700     -0.606999993       419.769165       1.56534636    
  0.646153986       1.19492805     -0.606999993       419.769165       1.56534636    
  0.645825028       1.19414902     -0.303514004       419.769165       1.56534636    
  0.503772974       1.26314998     -0.303521991       569.207520       1.56705773    
  0.504974008       1.26637006       0.00000000       569.207520       1.56705773    
  0.353493989       1.31232095       0.00000000       569.207520       1.56705773    
  0.353130996       1.31116498     -0.303510994       569.207520       1.56705773    
  0.353493989       1.31232095       0.00000000       586.717407       1.56706142    
  0.199064001       1.34539402       0.00000000       586.717407       1.56706142    
  0.198755994       1.34360003     -0.303496003       586.717407       1.56706142    
  0.353130996       1.31116498     -0.303510994       586.717407       1.56706142    
  0.198755994       1.34360003     -0.303496003       461.486053       1.56537807    
   4.12769988E-02   1.35817802     -0.303508013       461.486053       1.56537807    
   4.12410013E-02   1.36093795     -0.606999993       461.486053       1.56537807    
  0.199025005       1.34539795     -0.606999993       461.486053       1.56537807    
  0.198755994       1.34360003     -0.303496003       453.919128       1.56537271    
  0.199025005       1.34539795     -0.606999993       453.919128       1.56537271    
  0.353300005       1.31237996     -0.606999993       453.919128       1.56537271    
  0.353130996       1.31116498     -0.303510994       453.919128       1.56537271    
  0.198755994       1.34360003     -0.303496003       597.151184       1.56706476    
  0.199064001       1.34539402       0.00000000       597.151184       1.56706476    
   4.17769998E-02   1.36088502       0.00000000       597.151184       1.56706476    
   4.12769988E-02   1.35817802     -0.303508013       597.151184       1.56706476    
   4.17769998E-02   1.36088502       0.00000000       599.276611       1.56706095    
 -0.116410002       1.35353506       0.00000000       599.276611       1.56706095    
 -0.116471998       1.35271096     -0.303496987       599.276611       1.56706095    
   4.12769988E-02   1.35817802     -0.303508013       599.276611       1.56706095    
 -0.116471998       1.35271096     -0.303496987       458.277283       1.56533957    
 -0.273027003       1.33229196     -0.303496003       458.277283       1.56533957    
 -0.273876995       1.33647299     -0.606999993       458.277283       1.56533957    
 -0.116722003       1.35350394     -0.606999993       458.277283       1.56533957    
 -0.116471998       1.35271096     -0.303496987       463.186737       1.56538296    
 -0.116722003       1.35350394     -0.606999993       463.186737       1.56538296    
   4.12410013E-02   1.36093795     -0.606999993       463.186737       1.56538296    
   4.12769988E-02   1.35817802     -0.303508013       463.186737       1.56538296    
 -0.116471998       1.35271096     -0.303496987       593.396912       1.56705678    
 -0.116410002       1.35353506       0.00000000       593.396912       1.56705678    
 -0.274069011       1.33641505       0.00000000       593.396912       1.56705678    
 -0.273027003       1.33229196     -0.303496003       593.396912       1.56705678    
 -0.274069011       1.33641505       0.00000000       579.033142       1.56704700    
 -0.425588995       1.29045200       0.00000000       579.033142       1.56704700    
 -0.425258011       1.28953803     -0.303507000       579.033142       1.56704700    
 -0.273027003       1.33229196     -0.303496003       579.033142       1.56704700    
 -0.425258011       1.28953803     -0.303507000       431.178192       1.56533468    
 -0.572302997       1.23206902     -0.303485990       431.178192       1.56533468    
 -0.573064029       1.23399496     -0.606999993       431.178192       1.56533468    
 -0.425651014       1.29043305     -0.606999993       431.178192       1.56533468    
 -0.425258011       1.28953803     -0.303507000       447.178284       1.56532598    
 -0.425651014       1.29043305     -0.606999993       447.178284       1.56532598    
 -0.273876995       1.33647299     -0.606999993       447.178284       1.56532598    
 -0.273027003       1.33229196     -0.303496003       447.178284       1.56532598    
 -0.425258011       1.28953803     -0.303507000       558.005127       1.56705475    
 -0.425588995       1.29045200       0.00000000       558.005127       1.56705475    
 -0.573195994       1.23392498       0.00000000       558.005127       1.56705475    
 -0.572302997       1.23206902     -0.303485990       558.005127       1.56705475    
 -0.573195994       1.23392498       0.00000000       529.853699       1.56705928    
 -0.712655008       1.15938199       0.00000000       529.853699       1.56705928    
 -0.711889029       1.15749002     -0.303496003       529.853699       1.56705928    
 -0.572302997       1.23206902     -0.303485990       529.853699       1.56705928    
 -0.711889029       1.15749002     -0.303496003       380.504211       1.56529915    
 -0.840825975       1.06629205     -0.303485990       380.504211       1.56529915    
 -0.841368973       1.06682706     -0.606999993       380.504211       1.56529915    
 -0.712980986       1.15920806     -0.606999993       380.504211       1.56529915    
 -0.711889029       1.15749002     -0.303496003       408.613708       1.56531823    
 -0.712980986       1.15920806     -0.606999993       408.613708       1.56531823    
 -0.573064029       1.23399496     -0.606999993       408.613708       1.56531823    
 -0.572302997       1.23206902     -0.303485990       408.613708       1.56531823    
 -0.711889029       1.15749002     -0.303496003       493.724640       1.56705523    
 -0.712655008       1.15938199       0.00000000       493.724640       1.56705523    
 -0.841165006       1.06699395       0.00000000       493.724640       1.56705523    
 -0.840825975       1.06629205     -0.303485990       493.724640       1.56705523    
 -0.841165006       1.06699395       0.00000000       451.475006       1.56704676    
 -0.963320017      0.966744006       0.00000000       451.475006       1.56704676    
 -0.960084975      0.962615013     -0.303470999       451.475006       1.56704676    
 -0.840825975       1.06629205     -0.303485990       451.475006       1.56704676    
 -0.960084975      0.962615013     -0.303470999       308.412506       1.56520915    
  -1.06383705      0.843237996     -0.303481996       308.412506       1.56520915    
  -1.06481802      0.843816996     -0.606999993       308.412506       1.56520915    
 -0.963873982      0.966289997     -0.606999993       308.412506       1.56520915    
 -0.960084975      0.962615013     -0.303470999       347.886597       1.56528509    
 -0.963873982      0.966289997     -0.606999993       347.886597       1.56528509    
 -0.841368973       1.06682706     -0.606999993       347.886597       1.56528509    
 -0.840825975       1.06629205     -0.303485990       347.886597       1.56528509    
 -0.960084975      0.962615013     -0.303470999       400.861816       1.56699622    
 -0.963320017      0.966744006       0.00000000       400.861816       1.56699622    
  -1.06464398      0.844029009       0.00000000       400.861816       1.56699622    
  -1.06383705      0.843237996     -0.303481996       400.861816       1.56699622    
  -1.06464398      0.844029009       0.00000000       346.132294       1.56696510    
  -1.15769398      0.715813994       0.00000000       346.132294       1.56696510    
  -1.15564799      0.714680016     -0.303483993       346.132294       1.56696510    
  -1.06383705      0.843237996     -0.303481996       346.132294       1.56696510    
  -1.15564799      0.714680016     -0.303483993       220.702179       1.56506956    
  -1.23108304      0.575536013     -0.303514004       220.702179       1.56506956    
  -1.23232996      0.576179981     -0.606999993       220.702179       1.56506956    
  -1.15756094      0.716063023     -0.606999993       220.702179       1.56506956    
  -1.15564799      0.714680016     -0.303483993       266.977661       1.56517720    
  -1.15756094      0.716063023     -0.606999993       266.977661       1.56517720    
  -1.06481802      0.843816996     -0.606999993       266.977661       1.56517720    
  -1.06383705      0.843237996     -0.303481996       266.977661       1.56517720    
  -1.15564799      0.714680016     -0.303483993       286.118683       1.56688750    
  -1.15769398      0.715813994       0.00000000       286.118683       1.56688750    
  -1.23224795      0.576331973       0.00000000       286.118683       1.56688750    
  -1.23108304      0.575536013     -0.303514004       286.118683       1.56688750    
  -1.23224795      0.576331973       0.00000000       222.217819       1.56676841    
  -1.28948605      0.428772002       0.00000000       222.217819       1.56676841    
  -1.28842103      0.428404987     -0.303512990       222.217819       1.56676841    
  -1.23108304      0.575536013     -0.303514004       222.217819       1.56676841    
  -1.28842103      0.428404987     -0.303512990       120.885078       1.56465852    
  -1.33082402      0.275959998     -0.303492010       120.885078       1.56465852    
  -1.33550000      0.277083993     -0.606999993       120.885078       1.56465852    