 VARIABLES="X" "Y" "Z" "abs(p) (Pa)" "angle(p) (rad)"
ZONE N=   2720,E =    2069, F=FEPOINT, ET=QUADRILATERAL
 -0.767116010      -1.12776399       0.00000000       36456.8398      -1.56890428    
 -0.769354999      -1.12002099     -0.303523988       36456.8398      -1.56890428    
 -0.896136999      -1.02028203     -0.303463012       36456.8398      -1.56890428    
 -0.894908011      -1.02288902       0.00000000       36456.8398      -1.56890428    
 -0.767116010      -1.12776399       0.00000000       39061.3516      -1.56936526    
 -0.630888999      -1.20308697       0.00000000       39061.3516      -1.56936526    
 -0.635528028      -1.19958198     -0.303541005       39061.3516      -1.56936526    
 -0.769354999      -1.12002099     -0.303523988       39061.3516      -1.56936526    
 -0.635528028      -1.19958198     -0.303541005       21231.3926      -1.56638157    
 -0.495362997      -1.26606500     -0.303519011       21231.3926      -1.56638157    
 -0.499298006      -1.26809204     -0.606999993       21231.3926      -1.56638157    
 -0.640147984      -1.19813800     -0.606998026       21231.3926      -1.56638157    
 -0.635528028      -1.19958198     -0.303541005       20042.6895      -1.56601417    
 -0.640147984      -1.19813800     -0.606998026       20042.6895      -1.56601417    
 -0.777105987      -1.11956596     -0.606999993       20042.6895      -1.56601417    
 -0.769354999      -1.12002099     -0.303523988       20042.6895      -1.56601417    
 -0.635528028      -1.19958198     -0.303541005       41040.7422      -1.56966817    
 -0.630888999      -1.20308697       0.00000000       41040.7422      -1.56966817    
 -0.494486004      -1.26955199       0.00000000       41040.7422      -1.56966817    
 -0.495362997      -1.26606500     -0.303519011       41040.7422      -1.56966817    
 -0.494486004      -1.26955199       0.00000000       42783.2109      -1.56990361    
 -0.346311986      -1.31449997       0.00000000       42783.2109      -1.56990361    
 -0.346753001      -1.31307304     -0.303510010       42783.2109      -1.56990361    
 -0.495362997      -1.26606500     -0.303519011       42783.2109      -1.56990361    
 -0.346753001      -1.31307304     -0.303510010       22747.9648      -1.56676733    
 -0.193608001      -1.34425998     -0.303494990       22747.9648      -1.56676733    
 -0.195028007      -1.34579206     -0.606999993       22747.9648      -1.56676733    
 -0.348751009      -1.31376004     -0.606999993       22747.9648      -1.56676733    
 -0.346753001      -1.31307304     -0.303510010       22126.2598      -1.56662703    
 -0.348751009      -1.31376004     -0.606999993       22126.2598      -1.56662703    
 -0.499298006      -1.26809204     -0.606999993       22126.2598      -1.56662703    
 -0.495362997      -1.26606500     -0.303519011       22126.2598      -1.56662703    
 -0.346753001      -1.31307304     -0.303510010       44134.4922      -1.57001889    
 -0.346311986      -1.31449997       0.00000000       44134.4922      -1.57001889    
 -0.193381995      -1.34595394       0.00000000       44134.4922      -1.57001889    
 -0.193608001      -1.34425998     -0.303494990       44134.4922      -1.57001889    
 -0.193381995      -1.34595394       0.00000000       44999.0117      -1.57011259    
  -3.75179984E-02  -1.36130500       0.00000000       44999.0117      -1.57011259    
  -3.73950005E-02  -1.35827899     -0.303512007       44999.0117      -1.57011259    
 -0.193608001      -1.34425998     -0.303494990       44999.0117      -1.57011259    
  -3.73950005E-02  -1.35827899     -0.303512007       22956.7734      -1.56680477    
  0.119547002      -1.35239303     -0.303498000       22956.7734      -1.56680477    
  0.119135000      -1.35326600     -0.606999993       22956.7734      -1.56680477    
  -3.82840000E-02  -1.36122894     -0.606998980       22956.7734      -1.56680477    
  -3.73950005E-02  -1.35827899     -0.303512007       23052.5352      -1.56683862    
  -3.82840000E-02  -1.36122894     -0.606998980       23052.5352      -1.56683862    
 -0.195028007      -1.34579206     -0.606999993       23052.5352      -1.56683862    
 -0.193608001      -1.34425998     -0.303494990       23052.5352      -1.56683862    
  -3.73950005E-02  -1.35827899     -0.303512007       44506.7109      -1.57008660    
  -3.75179984E-02  -1.36130500       0.00000000       44506.7109      -1.57008660    
  0.119788997      -1.35320199       0.00000000       44506.7109      -1.57008660    
  0.119547002      -1.35239303     -0.303498000       44506.7109      -1.57008660    
  0.119788997      -1.35320199       0.00000000       43472.4180      -1.57001889    
  0.276576012      -1.33565402       0.00000000       43472.4180      -1.57001889    
  0.275435001      -1.33191597     -0.303496003       43472.4180      -1.57001889    
  0.119547002      -1.35239303     -0.303498000       43472.4180      -1.57001889    
  0.275435001      -1.33191597     -0.303496003       22106.8145      -1.56657469    
  0.427076995      -1.28898001     -0.303507000       22106.8145      -1.56657469    
  0.427242011      -1.28995001     -0.606999993       22106.8145      -1.56657469    
  0.275831014      -1.33588004     -0.606999993       22106.8145      -1.56657469    
  0.275435001      -1.33191597     -0.303496003       22786.0586      -1.56675708    
  0.275831014      -1.33588004     -0.606999993       22786.0586      -1.56675708    
  0.119135000      -1.35326600     -0.606999993       22786.0586      -1.56675708    
  0.119547002      -1.35239303     -0.303498000       22786.0586      -1.56675708    
  0.275435001      -1.33191597     -0.303496003       41792.8086      -1.56984925    
  0.276576012      -1.33565402       0.00000000       41792.8086      -1.56984925    
  0.427509993      -1.28986895       0.00000000       41792.8086      -1.56984925    
  0.427076995      -1.28898001     -0.303507000       41792.8086      -1.56984925    
  0.427509993      -1.28986895       0.00000000       39430.7812      -1.56953108    
  0.574636996      -1.23315501       0.00000000       39430.7812      -1.56953108    
  0.573706985      -1.23136795     -0.303485990       39430.7812      -1.56953108    
  0.427076995      -1.28898001     -0.303507000       39430.7812      -1.56953108    
  0.573706985      -1.23136795     -0.303485990       19980.9375      -1.56591415    
  0.712854981      -1.15688002     -0.303496987       19980.9375      -1.56591415    
  0.713809013      -1.15876603     -0.606999993       19980.9375      -1.56591415    
  0.574283004      -1.23334301     -0.606999993       19980.9375      -1.56591415    
  0.573706985      -1.23136795     -0.303485990       21152.4316      -1.56627822    
  0.574283004      -1.23334301     -0.606999993       21152.4316      -1.56627822    
  0.427242011      -1.28995001     -0.606999993       21152.4316      -1.56627822    
  0.427076995      -1.28898001     -0.303507000       21152.4316      -1.56627822    
  0.573706985      -1.23136795     -0.303485990       37030.2695      -1.56914747    
  0.574636996      -1.23315501       0.00000000       37030.2695      -1.56914747    
  0.713741004      -1.15880203       0.00000000       37030.2695      -1.56914747    
  0.712854981      -1.15688002     -0.303496987       37030.2695      -1.56914747    
  0.713741004      -1.15880203       0.00000000       34475.2070      -1.56865466    
  0.841937006      -1.06636095       0.00000000       34475.2070      -1.56865466    
  0.841498017      -1.06573403     -0.303485990       34475.2070      -1.56865466    
  0.712854981      -1.15688002     -0.303496987       34475.2070      -1.56865466    
  0.841498017      -1.06573403     -0.303485990       17093.8477      -1.56484079    
  0.960639000     -0.962104976     -0.303470999       17093.8477      -1.56484079    
  0.964356005     -0.965893984     -0.606999993       17093.8477      -1.56484079    
  0.841796994      -1.06647599     -0.606999993       17093.8477      -1.56484079    
  0.841498017      -1.06573403     -0.303485990       18636.2695      -1.56543851    
  0.841796994      -1.06647599     -0.606999993       18636.2695      -1.56543851    
  0.713809013      -1.15876603     -0.606999993       18636.2695      -1.56543851    
  0.712854981      -1.15688002     -0.303496987       18636.2695      -1.56543851    
  0.841498017      -1.06573403     -0.303485990       32283.8340      -1.56811666    
  0.841937006      -1.06636095       0.00000000       32283.8340      -1.56811666    
  0.963932991     -0.966242015       0.00000000       32283.8340      -1.56811666    
  0.960639000     -0.962104976     -0.303470999       32283.8340      -1.56811666    
  0.963932991     -0.966242015       0.00000000       29346.9961      -1.56733310    
   1.06506598     -0.843514979       0.00000000       29346.9961      -1.56733310    
   1.06428695     -0.842682004     -0.303481996       29346.9961      -1.56733310    
  0.960639000     -0.962104976     -0.303470999       29346.9961      -1.56733310    
   1.06428695     -0.842682004     -0.303481996       13794.0723      -1.56310081    
   1.15591598     -0.714210987     -0.303485006       13794.0723      -1.56310081    
   1.15788805     -0.715448976     -0.606999993       13794.0723      -1.56310081    
   1.06537795     -0.843134999     -0.606999993       13794.0723      -1.56310081    
   1.06428695     -0.842682004     -0.303481996       15410.4404      -1.56406498    
   1.06537795     -0.843134999     -0.606999993       15410.4404      -1.56406498    
  0.964356005     -0.965893984     -0.606999993       15410.4404      -1.56406498    
  0.960639000     -0.962104976     -0.303470999       15410.4404      -1.56406498    
   1.06428695     -0.842682004     -0.303481996       25345.3008      -1.56609094    
   1.06506598     -0.843514979       0.00000000       25345.3008      -1.56609094    
   1.15792501     -0.715381980       0.00000000       25345.3008      -1.56609094    
   1.15591598     -0.714210987     -0.303485006       25345.3008      -1.56609094    
   1.15792501     -0.715381980       0.00000000       21471.7598      -1.56428957    
   1.23237598     -0.576093972       0.00000000       21471.7598      -1.56428957    
   1.23120904     -0.575251997     -0.303514004       21471.7598      -1.56428957    
   1.15591598     -0.714210987     -0.303485006       21471.7598      -1.56428957    
   1.23120904     -0.575251997     -0.303514004       9472.95117      -1.55906916    
   1.28844094     -0.428344995     -0.303512990       9472.95117      -1.55906916    
   1.28952503     -0.428642988     -0.606999993       9472.95117      -1.55906916    
   1.23252702     -0.575810015     -0.606999993       9472.95117      -1.55906916    
   1.23120904     -0.575251997     -0.303514004       11711.5303      -1.56154656    
   1.23252702     -0.575810015     -0.606999993       11711.5303      -1.56154656    
   1.15788805     -0.715448976     -0.606999993       11711.5303      -1.56154656    
   1.15591598     -0.714210987     -0.303485006       11711.5303      -1.56154656    
   1.23120904     -0.575251997     -0.303514004       17651.9570      -1.56158984    
   1.23237598     -0.576093972       0.00000000       17651.9570      -1.56158984    
   1.28947699     -0.428801000       0.00000000       17651.9570      -1.56158984    
   1.28844094     -0.428344995     -0.303512990       17651.9570      -1.56158984    
   1.28947699     -0.428801000       0.00000000       13143.1787      -1.55662060    
   1.33532202     -0.277671993       0.00000000       13143.1787      -1.55662060    
   1.33076501     -0.276203990     -0.303492010       13143.1787      -1.55662060    
   1.28844094     -0.428344995     -0.303512990       13143.1787      -1.55662060    
   1.33076501     -0.276203990     -0.303492010       4865.49414      -1.54674220    
   1.35229194     -0.119709998     -0.303514004       4865.49414      -1.54674220    
   1.35321999     -0.119608998     -0.606999993       4865.49414      -1.54674220    
   1.33549094     -0.277112991     -0.606999993       4865.49414      -1.54674220    
   1.33076501     -0.276203990     -0.303492010       7123.40186      -1.55477393    
   1.33549094     -0.277112991     -0.606999993       7123.40186      -1.55477393    
   1.28952503     -0.428642988     -0.606999993       7123.40186      -1.55477393    
   1.28844094     -0.428344995     -0.303512990       7123.40186      -1.55477393    
   1.33076501     -0.276203990     -0.303492010       8314.74512      -1.54589570    
   1.33532202     -0.277671993       0.00000000       8314.74512      -1.54589570    
   1.35319102     -0.119900003       0.00000000       8314.74512      -1.54589570    
   1.35229194     -0.119709998     -0.303514004       8314.74512      -1.54589570    
   1.35319102     -0.119900003       0.00000000       3476.68457      -1.50503194    
   1.36124396       3.81390005E-02   0.00000000       3476.68457      -1.50503194    
   1.35858905       3.79349999E-02 -0.303501010       3476.68457      -1.50503194    
   1.35229194     -0.119709998     -0.303514004       3476.68457      -1.50503194    
   1.35858905       3.79349999E-02 -0.303501010       436.954498       1.28264594    
   1.34464097      0.195331007     -0.303496003       436.954498       1.28264594    
   1.34573400      0.195616007     -0.606999993       436.954498       1.28264594    
   1.36126804       3.78950015E-02 -0.606999993       436.954498       1.28264594    
   1.35858905       3.79349999E-02 -0.303501010       2005.34680      -1.51054728    
   1.36126804       3.78950015E-02 -0.606999993       2005.34680      -1.51054728    
   1.35321999     -0.119608998     -0.606999993       2005.34680      -1.51054728    
   1.35229194     -0.119709998     -0.303514004       2005.34680      -1.51054728    
   1.35858905       3.79349999E-02 -0.303501010       1125.03369       1.34714389    
   1.36124396       3.81390005E-02   0.00000000       1125.03369       1.34714389    
   1.34575403      0.195406005       0.00000000       1125.03369       1.34714389    
   1.34464097      0.195331007     -0.303496003       1125.03369       1.34714389    
   1.34575403      0.195406005       0.00000000       5787.03564       1.52423012    
   1.31339800      0.349945009       0.00000000       5787.03564       1.52423012    
   1.31216300      0.349725991     -0.303487003       5787.03564       1.52423012    
   1.34464097      0.195331007     -0.303496003       5787.03564       1.52423012    
   1.31216300      0.349725991     -0.303487003       5400.38721       1.54680800    
   1.26341999      0.500032008     -0.303494006       5400.38721       1.54680800    
   1.26736605      0.501691997     -0.606999993       5400.38721       1.54680800    
   1.31333196      0.350163996     -0.606999993       5400.38721       1.54680800    
   1.31216300      0.349725991     -0.303487003       2864.44971       1.52638388    
   1.31333196      0.350163996     -0.606999993       2864.44971       1.52638388    
   1.34573400      0.195616007     -0.606999993       2864.44971       1.52638388    
   1.34464097      0.195331007     -0.303496003       2864.44971       1.52638388    
   1.31216300      0.349725991     -0.303487003       10420.4648       1.54292059    
   1.31339800      0.349945009       0.00000000       10420.4648       1.54292059    
   1.26751196      0.501209974       0.00000000       10420.4648       1.54292059    
   1.26341999      0.500032008     -0.303494006       10420.4648       1.54292059    
   1.26751196      0.501209974       0.00000000       14873.8018       1.55005455    
   1.19658697      0.643051028       0.00000000       14873.8018       1.55005455    
   1.19583094      0.642783999     -0.303505003       14873.8018       1.55005455    
   1.26341999      0.500032008     -0.303494006       14873.8018       1.55005455    
   1.19583094      0.642783999     -0.303505003       9897.50000       1.55758250    
   1.11495602      0.778467000     -0.303483993       9897.50000       1.55758250    
   1.11731696      0.779847026     -0.606999993       9897.50000       1.55758250    
   1.19653296      0.643149972     -0.606999993       9897.50000       1.55758250    
   1.19583094      0.642783999     -0.303505003       7636.11816       1.55370831    
   1.19653296      0.643149972     -0.606999993       7636.11816       1.55370831    
   1.26736605      0.501691997     -0.606999993       7636.11816       1.55370831    
   1.26341999      0.500032008     -0.303494006       7636.11816       1.55370831    
   1.19583094      0.642783999     -0.303505003       18997.0117       1.55382335    
   1.19658697      0.643051028       0.00000000       18997.0117       1.55382335    
   1.11705506      0.780165970       0.00000000       18997.0117       1.55382335    
   1.11495602      0.778467000     -0.303483993       18997.0117       1.55382335    
   1.11705506      0.780165970       0.00000000       22526.5527       1.55604661    
   1.01674199      0.902397990       0.00000000       22526.5527       1.55604661    
   1.01591504      0.901737988     -0.303478003       22526.5527       1.55604661    
   1.11495602      0.778467000     -0.303483993       22526.5527       1.55604661    
   1.01591504      0.901737988     -0.303478003       13710.6455       1.56134987    
  0.904204011       1.01322901     -0.303456992       13710.6455       1.56134987    
  0.905143023       1.01448905     -0.606999993       13710.6455       1.56134987    
   1.01659799      0.902572989     -0.606999993       13710.6455       1.56134987    
   1.01591504      0.901737988     -0.303478003       11929.7852       1.55985224    
   1.01659799      0.902572989     -0.606999993       11929.7852       1.55985224    
   1.11731696      0.779847026     -0.606999993       11929.7852       1.55985224    
   1.11495602      0.778467000     -0.303483993       11929.7852       1.55985224    
   1.01591504      0.901737988     -0.303478003       25653.2012       1.55759096    
   1.01674199      0.902397990       0.00000000       25653.2012       1.55759096    
  0.905318975       1.01434398       0.00000000       25653.2012       1.55759096    
  0.904204011       1.01322901     -0.303456992       25653.2012       1.55759096    
  0.905318975       1.01434398       0.00000000       28938.4082       1.55858779    
  0.782918990       1.11479497       0.00000000       28938.4082       1.55858779    
  0.780644000       1.11195600     -0.303485006       28938.4082       1.55858779    
  0.904204011       1.01322901     -0.303456992       28938.4082       1.55858779    
  0.780644000       1.11195600     -0.303485006       16669.5586       1.56300437    
  0.645825028       1.19414902     -0.303514004       16669.5586       1.56300437    
  0.646153986       1.19492805     -0.606999993       16669.5586       1.56300437    
  0.782611012       1.11504900     -0.606999993       16669.5586       1.56300437    
  0.780644000       1.11195600     -0.303485006       15302.0645       1.56233597    
  0.782611012       1.11504900     -0.606999993       15302.0645       1.56233597    
  0.905143023       1.01448905     -0.606999993       15302.0645       1.56233597    
  0.904204011       1.01322901     -0.303456992       15302.0645       1.56233597    
  0.780644000       1.11195600     -0.303485006       31437.2578       1.55926847    
  0.782918990       1.11479497       0.00000000       31437.2578       1.55926847    
  0.646345019       1.19482601       0.00000000       31437.2578       1.55926847    
  0.645825028       1.19414902     -0.303514004       31437.2578       1.55926847    
  0.646345019       1.19482601       0.00000000       33800.7344       1.55972397    
  0.504974008       1.26637006       0.00000000       33800.7344       1.55972397    
  0.503772974       1.26314998     -0.303521991       33800.7344       1.55972397    
  0.645825028       1.19414902     -0.303514004       33800.7344       1.55972397    
  0.503772974       1.26314998     -0.303521991       18848.0176       1.56372058    
  0.353130996       1.31116498     -0.303510994       18848.0176       1.56372058    
  0.353300005       1.31237996     -0.606999993       18848.0176       1.56372058    
  0.505183995       1.26630700     -0.606999993       18848.0176       1.56372058    
  0.503772974       1.26314998     -0.303521991       17891.2520       1.56344366    
  0.505183995       1.26630700     -0.606999993       17891.2520       1.56344366    
  0.646153986       1.19492805     -0.606999993       17891.2520       1.56344366    
  0.645825028       1.19414902     -0.303514004       17891.2520       1.56344366    
  0.503772974       1.26314998     -0.303521991       35551.5742       1.56002998    
  0.504974008       1.26637006       0.00000000       35551.5742       1.56002998    
  0.353493989       1.31232095       0.00000000       35551.5742       1.56002998    
  0.353130996       1.31116498     -0.303510994       35551.5742       1.56002998    
  0.353493989       1.31232095       0.00000000       36819.9609       1.56025553    
  0.199064001       1.34539402       0.00000000       36819.9609       1.56025553    
  0.198755994       1.34360003     -0.303496003       36819.9609       1.56025553    
  0.353130996       1.31116498     -0.303510994       36819.9609       1.56025553    
  0.198755994       1.34360003     -0.303496003       19940.1191       1.56389797    
   4.12769988E-02   1.35817802     -0.303508013       19940.1191       1.56389797    
   4.12410013E-02   1.36093795     -0.606999993       19940.1191       1.56389797    
  0.199025005       1.34539795     -0.606999993       19940.1191       1.56389797    
  0.198755994       1.34360003     -0.303496003       19567.5566       1.56388879    
  0.199025005       1.34539795     -0.606999993       19567.5566       1.56388879    
  0.353300005       1.31237996     -0.606999993       19567.5566       1.56388879    
  0.353130996       1.31116498     -0.303510994       19567.5566       1.56388879    
  0.198755994       1.34360003     -0.303496003       37917.3477       1.56029069    
  0.199064001       1.34539402       0.00000000       37917.3477       1.56029069    
   4.17769998E-02   1.36088502       0.00000000       37917.3477       1.56029069    
   4.12769988E-02   1.35817802     -0.303508013       37917.3477       1.56029069    
   4.17769998E-02   1.36088502       0.00000000       38600.5859       1.56029618    
 -0.116410002       1.35353506       0.00000000       38600.5859       1.56029618    
 -0.116471998       1.35271096     -0.303496987       38600.5859       1.56029618    
   4.12769988E-02   1.35817802     -0.303508013       38600.5859       1.56029618    
 -0.116471998       1.35271096     -0.303496987       20143.2051       1.56383753    
 -0.273027003       1.33229196     -0.303496003       20143.2051       1.56383753    
 -0.273876995       1.33647299     -0.606999993       20143.2051       1.56383753    
 -0.116722003       1.35350394     -0.606999993       20143.2051       1.56383753    
 -0.116471998       1.35271096     -0.303496987       20112.8867       1.56388104    
 -0.116722003       1.35350394     -0.606999993       20112.8867       1.56388104    
   4.12410013E-02   1.36093795     -0.606999993       20112.8867       1.56388104    
   4.12769988E-02   1.35817802     -0.303508013       20112.8867       1.56388104    
 -0.116471998       1.35271096     -0.303496987       38817.3672       1.56014299    
 -0.116410002       1.35353506       0.00000000       38817.3672       1.56014299    
 -0.274069011       1.33641505       0.00000000       38817.3672       1.56014299    
 -0.273027003       1.33229196     -0.303496003       38817.3672       1.56014299    
 -0.274069011       1.33641505       0.00000000       37791.3594       1.55996001    
 -0.425588995       1.29045200       0.00000000       37791.3594       1.55996001    
 -0.425258011       1.28953803     -0.303507000       37791.3594       1.55996001    
 -0.273027003       1.33229196     -0.303496003       37791.3594       1.55996001    
 -0.425258011       1.28953803     -0.303507000       18778.9512       1.56348622    
 -0.572302997       1.23206902     -0.303485990       18778.9512       1.56348622    
 -0.573064029       1.23399496     -0.606999993       18778.9512       1.56348622    
 -0.425651014       1.29043305     -0.606999993       18778.9512       1.56348622    
 -0.425258011       1.28953803     -0.303507000       19652.4590       1.56368959    
 -0.425651014       1.29043305     -0.606999993       19652.4590       1.56368959    
 -0.273876995       1.33647299     -0.606999993       19652.4590       1.56368959    
 -0.273027003       1.33229196     -0.303496003       19652.4590       1.56368959    
 -0.425258011       1.28953803     -0.303507000       35469.0430       1.55973709    
 -0.425588995       1.29045200       0.00000000       35469.0430       1.55973709    
 -0.573195994       1.23392498       0.00000000       35469.0430       1.55973709    
 -0.572302997       1.23206902     -0.303485990       35469.0430       1.55973709    
 -0.573195994       1.23392498       0.00000000       32854.2930       1.55930758    
 -0.712655008       1.15938199       0.00000000       32854.2930       1.55930758    
 -0.711889029       1.15749002     -0.303496003       32854.2930       1.55930758    
 -0.572302997       1.23206902     -0.303485990       32854.2930       1.55930758    
 -0.711889029       1.15749002     -0.303496003       16197.4922       1.56261325    
 -0.840825975       1.06629205     -0.303485990       16197.4922       1.56261325    
 -0.841368973       1.06682706     -0.606999993       16197.4922       1.56261325    
 -0.712980986       1.15920806     -0.606999993       16197.4922       1.56261325    
 -0.711889029       1.15749002     -0.303496003       17606.6465       1.56312382    
 -0.712980986       1.15920806     -0.606999993       17606.6465       1.56312382    
 -0.573064029       1.23399496     -0.606999993       17606.6465       1.56312382    
 -0.572302997       1.23206902     -0.303485990       17606.6465       1.56312382    
 -0.711889029       1.15749002     -0.303496003       29716.7305       1.55872834    
 -0.712655008       1.15938199       0.00000000       29716.7305       1.55872834    
 -0.841165006       1.06699395       0.00000000       29716.7305       1.55872834    
 -0.840825975       1.06629205     -0.303485990       29716.7305       1.55872834    
 -0.841165006       1.06699395       0.00000000       26677.3770       1.55775881    
 -0.963320017      0.966744006       0.00000000       26677.3770       1.55775881    
 -0.960084975      0.962615013     -0.303470999       26677.3770       1.55775881    
 -0.840825975       1.06629205     -0.303485990       26677.3770       1.55775881    
 -0.960084975      0.962615013     -0.303470999       12800.5137       1.56057286    
  -1.06383705      0.843237996     -0.303481996       12800.5137       1.56057286    
  -1.06481802      0.843816996     -0.606999993       12800.5137       1.56057286    
 -0.963873982      0.966289997     -0.606999993       12800.5137       1.56057286    
 -0.960084975      0.962615013     -0.303470999       14543.0840       1.56178272    
 -0.963873982      0.966289997     -0.606999993       14543.0840       1.56178272    
 -0.841368973       1.06682706     -0.606999993       14543.0840       1.56178272    
 -0.840825975       1.06629205     -0.303485990       14543.0840       1.56178272    
 -0.960084975      0.962615013     -0.303470999       23546.1465       1.55645990    
 -0.963320017      0.966744006       0.00000000       23546.1465       1.55645990    
  -1.06464398      0.844029009       0.00000000       23546.1465       1.55645990    
  -1.06383705      0.843237996     -0.303481996       23546.1465       1.55645990    
  -1.06464398      0.844029009       0.00000000       19845.2012       1.55445743    
  -1.15769398      0.715813994       0.00000000       19845.2012       1.55445743    
  -1.15564799      0.714680016     -0.303483993       19845.2012       1.55445743    
  -1.06383705      0.843237996     -0.303481996       19845.2012       1.55445743    
  -1.15564799      0.714680016     -0.303483993       8829.80762       1.55584753    
  -1.23108304      0.575536013     -0.303514004       8829.80762       1.55584753    
  -1.23232996      0.576179981     -0.606999993       8829.80762       1.55584753    
  -1.15756094      0.716063023     -0.606999993       8829.80762       1.55584753    
  -1.15564799      0.714680016     -0.303483993       10870.2422       1.55871224    
  -1.15756094      0.716063023     -0.606999993       10870.2422       1.55871224    
  -1.06481802      0.843816996     -0.606999993       10870.2422       1.55871224    
  -1.06383705      0.843237996     -0.303481996       10870.2422       1.55871224    
  -1.15564799      0.714680016     -0.303483993       16155.6162       1.55128622    
  -1.15769398      0.715813994       0.00000000       16155.6162       1.55128622    
  -1.23224795      0.576331973       0.00000000       16155.6162       1.55128622    
  -1.23108304      0.575536013     -0.303514004       16155.6162       1.55128622    
  -1.23224795      0.576331973       0.00000000       11936.1328       1.54580081    
  -1.28948605      0.428772002       0.00000000       11936.1328       1.54580081    
  -1.28842103      0.428404987     -0.303512990       11936.1328       1.54580081    
  -1.23108304      0.575536013     -0.303514004       11936.1328       1.54580081    
  -1.28842103      0.428404987     -0.303512990       4104.13818       1.53919542    
  -1.33082402      0.275959998     -0.303492010       4104.13818       1.53919542    
  -1.33550000      0.277083993     -0.606999993       4104.13818       1.53919542    