 VARIABLES="X" "Y" "Z" "abs(p) (Pa)" "angle(p) (rad)"
ZONE N=   2720,E =    2069, F=FEPOINT, ET=QUADRILATERAL
 -0.767116010      -1.12776399       0.00000000      0.363012433      -1.57101595    
 -0.769354999      -1.12002099     -0.303523988      0.363012433      -1.57101595    
 -0.896136999      -1.02028203     -0.303463012      0.363012433      -1.57101595    
 -0.894908011      -1.02288902       0.00000000      0.363012433      -1.57101595    
 -0.767116010      -1.12776399       0.00000000      0.394182980       1.57099855    
 -0.630888999      -1.20308697       0.00000000      0.394182980       1.57099855    
 -0.635528028      -1.19958198     -0.303541005      0.394182980       1.57099855    
 -0.769354999      -1.12002099     -0.303523988      0.394182980       1.57099855    
 -0.635528028      -1.19958198     -0.303541005      0.371356070      -1.57101095    
 -0.495362997      -1.26606500     -0.303519011      0.371356070      -1.57101095    
 -0.499298006      -1.26809204     -0.606999993      0.371356070      -1.57101095    
 -0.640147984      -1.19813800     -0.606998026      0.371356070      -1.57101095    
 -0.635528028      -1.19958198     -0.303541005      0.317614734       1.57104719    
 -0.640147984      -1.19813800     -0.606998026      0.317614734       1.57104719    
 -0.777105987      -1.11956596     -0.606999993      0.317614734       1.57104719    
 -0.769354999      -1.12002099     -0.303523988      0.317614734       1.57104719    
 -0.635528028      -1.19958198     -0.303541005      0.327689856      -1.57103956    
 -0.630888999      -1.20308697       0.00000000      0.327689856      -1.57103956    
 -0.494486004      -1.26955199       0.00000000      0.327689856      -1.57103956    
 -0.495362997      -1.26606500     -0.303519011      0.327689856      -1.57103956    
 -0.494486004      -1.26955199       0.00000000      0.306876093       1.57105601    
 -0.346311986      -1.31449997       0.00000000      0.306876093       1.57105601    
 -0.346753001      -1.31307304     -0.303510010      0.306876093       1.57105601    
 -0.495362997      -1.26606500     -0.303519011      0.306876093       1.57105601    
 -0.346753001      -1.31307304     -0.303510010       1.61142312E-02  -1.57574224    
 -0.193608001      -1.34425998     -0.303494990       1.61142312E-02  -1.57574224    
 -0.195028007      -1.34579206     -0.606999993       1.61142312E-02  -1.57574224    
 -0.348751009      -1.31376004     -0.606999993       1.61142312E-02  -1.57574224    
 -0.346753001      -1.31307304     -0.303510010      0.326598674       1.57104039    
 -0.348751009      -1.31376004     -0.606999993      0.326598674       1.57104039    
 -0.499298006      -1.26809204     -0.606999993      0.326598674       1.57104039    
 -0.495362997      -1.26606500     -0.303519011      0.326598674       1.57104039    
 -0.346753001      -1.31307304     -0.303510010       1.14119947E-02  -1.57778335    
 -0.346311986      -1.31449997       0.00000000       1.14119947E-02  -1.57778335    
 -0.193381995      -1.34595394       0.00000000       1.14119947E-02  -1.57778335    
 -0.193608001      -1.34425998     -0.303494990       1.14119947E-02  -1.57778335    
 -0.193381995      -1.34595394       0.00000000      0.201369196      -1.57119226    
  -3.75179984E-02  -1.36130500       0.00000000      0.201369196      -1.57119226    
  -3.73950005E-02  -1.35827899     -0.303512007      0.201369196      -1.57119226    
 -0.193608001      -1.34425998     -0.303494990      0.201369196      -1.57119226    
  -3.73950005E-02  -1.35827899     -0.303512007      0.184980959       1.57122719    
  0.119547002      -1.35239303     -0.303498000      0.184980959       1.57122719    
  0.119135000      -1.35326600     -0.606999993      0.184980959       1.57122719    
  -3.82840000E-02  -1.36122894     -0.606998980      0.184980959       1.57122719    
  -3.73950005E-02  -1.35827899     -0.303512007      0.181127116      -1.57123637    
  -3.82840000E-02  -1.36122894     -0.606998980      0.181127116      -1.57123637    
 -0.195028007      -1.34579206     -0.606999993      0.181127116      -1.57123637    
 -0.193608001      -1.34425998     -0.303494990      0.181127116      -1.57123637    
  -3.73950005E-02  -1.35827899     -0.303512007      0.174381226       1.57125354    
  -3.75179984E-02  -1.36130500       0.00000000      0.174381226       1.57125354    
  0.119788997      -1.35320199       0.00000000      0.174381226       1.57125354    
  0.119547002      -1.35239303     -0.303498000      0.174381226       1.57125354    
  0.119788997      -1.35320199       0.00000000      0.524372101      -1.57094836    
  0.276576012      -1.33565402       0.00000000      0.524372101      -1.57094836    
  0.275435001      -1.33191597     -0.303496003      0.524372101      -1.57094836    
  0.119547002      -1.35239303     -0.303498000      0.524372101      -1.57094836    
  0.275435001      -1.33191597     -0.303496003      0.476225585       1.57096362    
  0.427076995      -1.28898001     -0.303507000      0.476225585       1.57096362    
  0.427242011      -1.28995001     -0.606999993      0.476225585       1.57096362    
  0.275831014      -1.33588004     -0.606999993      0.476225585       1.57096362    
  0.275435001      -1.33191597     -0.303496003      0.513529301      -1.57095146    
  0.275831014      -1.33588004     -0.606999993      0.513529301      -1.57095146    
  0.119135000      -1.35326600     -0.606999993      0.513529301      -1.57095146    
  0.119547002      -1.35239303     -0.303498000      0.513529301      -1.57095146    
  0.275435001      -1.33191597     -0.303496003      0.477999538       1.57096314    
  0.276576012      -1.33565402       0.00000000      0.477999538       1.57096314    
  0.427509993      -1.28986895       0.00000000      0.477999538       1.57096314    
  0.427076995      -1.28898001     -0.303507000      0.477999538       1.57096314    
  0.427509993      -1.28986895       0.00000000       7.39567652E-02  -1.57187426    
  0.574636996      -1.23315501       0.00000000       7.39567652E-02  -1.57187426    
  0.573706985      -1.23136795     -0.303485990       7.39567652E-02  -1.57187426    
  0.427076995      -1.28898001     -0.303507000       7.39567652E-02  -1.57187426    
  0.573706985      -1.23136795     -0.303485990       6.59300759E-02  -1.57200515    
  0.712854981      -1.15688002     -0.303496987       6.59300759E-02  -1.57200515    
  0.713809013      -1.15876603     -0.606999993       6.59300759E-02  -1.57200515    
  0.574283004      -1.23334301     -0.606999993       6.59300759E-02  -1.57200515    
  0.573706985      -1.23136795     -0.303485990       7.84592703E-02  -1.57181191    
  0.574283004      -1.23334301     -0.606999993       7.84592703E-02  -1.57181191    
  0.427242011      -1.28995001     -0.606999993       7.84592703E-02  -1.57181191    
  0.427076995      -1.28898001     -0.303507000       7.84592703E-02  -1.57181191    
  0.573706985      -1.23136795     -0.303485990       7.11608604E-02  -1.57191634    
  0.574636996      -1.23315501       0.00000000       7.11608604E-02  -1.57191634    
  0.713741004      -1.15880203       0.00000000       7.11608604E-02  -1.57191634    
  0.712854981      -1.15688002     -0.303496987       7.11608604E-02  -1.57191634    
  0.713741004      -1.15880203       0.00000000      0.117703363       1.57147360    
  0.841937006      -1.06636095       0.00000000      0.117703363       1.57147360    
  0.841498017      -1.06573403     -0.303485990      0.117703363       1.57147360    
  0.712854981      -1.15688002     -0.303496987      0.117703363       1.57147360    
  0.841498017      -1.06573403     -0.303485990      0.494923294      -1.57095730    
  0.960639000     -0.962104976     -0.303470999      0.494923294      -1.57095730    
  0.964356005     -0.965893984     -0.606999993      0.494923294      -1.57095730    
  0.841796994      -1.06647599     -0.606999993      0.494923294      -1.57095730    
  0.841498017      -1.06573403     -0.303485990      0.126149923       1.57142806    
  0.841796994      -1.06647599     -0.606999993      0.126149923       1.57142806    
  0.713809013      -1.15876603     -0.606999993      0.126149923       1.57142806    
  0.712854981      -1.15688002     -0.303496987      0.126149923       1.57142806    
  0.841498017      -1.06573403     -0.303485990      0.501838803      -1.57095516    
  0.841937006      -1.06636095       0.00000000      0.501838803      -1.57095516    
  0.963932991     -0.966242015       0.00000000      0.501838803      -1.57095516    
  0.960639000     -0.962104976     -0.303470999      0.501838803      -1.57095516    
  0.963932991     -0.966242015       0.00000000      0.550793648       1.57094097    
   1.06506598     -0.843514979       0.00000000      0.550793648       1.57094097    
   1.06428695     -0.842682004     -0.303481996      0.550793648       1.57094097    
  0.960639000     -0.962104976     -0.303470999      0.550793648       1.57094097    
   1.06428695     -0.842682004     -0.303481996      0.155786723      -1.57130778    
   1.15591598     -0.714210987     -0.303485006      0.155786723      -1.57130778    
   1.15788805     -0.715448976     -0.606999993      0.155786723      -1.57130778    
   1.06537795     -0.843134999     -0.606999993      0.155786723      -1.57130778    
   1.06428695     -0.842682004     -0.303481996      0.540149212       1.57094383    
   1.06537795     -0.843134999     -0.606999993      0.540149212       1.57094383    
  0.964356005     -0.965893984     -0.606999993      0.540149212       1.57094383    
  0.960639000     -0.962104976     -0.303470999      0.540149212       1.57094383    
   1.06428695     -0.842682004     -0.303481996      0.147830889      -1.57133555    
   1.06506598     -0.843514979       0.00000000      0.147830889      -1.57133555    
   1.15792501     -0.715381980       0.00000000      0.147830889      -1.57133555    
   1.15591598     -0.714210987     -0.303485006      0.147830889      -1.57133555    
   1.15792501     -0.715381980       0.00000000       4.63428684E-02   1.57251608    
   1.23237598     -0.576093972       0.00000000       4.63428684E-02   1.57251608    
   1.23120904     -0.575251997     -0.303514004       4.63428684E-02   1.57251608    
   1.15591598     -0.714210987     -0.303485006       4.63428684E-02   1.57251608    
   1.23120904     -0.575251997     -0.303514004      0.139107093       1.57136917    
   1.28844094     -0.428344995     -0.303512990      0.139107093       1.57136917    
   1.28952503     -0.428642988     -0.606999993      0.139107093       1.57136917    
   1.23252702     -0.575810015     -0.606999993      0.139107093       1.57136917    
   1.23120904     -0.575251997     -0.303514004       4.17697132E-02   1.57270372    
   1.23252702     -0.575810015     -0.606999993       4.17697132E-02   1.57270372    
   1.15788805     -0.715448976     -0.606999993       4.17697132E-02   1.57270372    
   1.15591598     -0.714210987     -0.303485006       4.17697132E-02   1.57270372    
   1.23120904     -0.575251997     -0.303514004      0.138041005       1.57137370    
   1.23237598     -0.576093972       0.00000000      0.138041005       1.57137370    
   1.28947699     -0.428801000       0.00000000      0.138041005       1.57137370    
   1.28844094     -0.428344995     -0.303512990      0.138041005       1.57137370    
   1.28947699     -0.428801000       0.00000000      0.395340383      -1.57099795    
   1.33532202     -0.277671993       0.00000000      0.395340383      -1.57099795    
   1.33076501     -0.276203990     -0.303492010      0.395340383      -1.57099795    
   1.28844094     -0.428344995     -0.303512990      0.395340383      -1.57099795    
   1.33076501     -0.276203990     -0.303492010      0.429121137       1.57098198    
   1.35229194     -0.119709998     -0.303514004      0.429121137       1.57098198    
   1.35321999     -0.119608998     -0.606999993      0.429121137       1.57098198    
   1.33549094     -0.277112991     -0.606999993      0.429121137       1.57098198    
   1.33076501     -0.276203990     -0.303492010      0.394444644      -1.57099831    
   1.33549094     -0.277112991     -0.606999993      0.394444644      -1.57099831    
   1.28952503     -0.428642988     -0.606999993      0.394444644      -1.57099831    
   1.28844094     -0.428344995     -0.303512990      0.394444644      -1.57099831    
   1.33076501     -0.276203990     -0.303492010      0.436516106       1.57097900    
   1.33532202     -0.277671993       0.00000000      0.436516106       1.57097900    
   1.35319102     -0.119900003       0.00000000      0.436516106       1.57097900    
   1.35229194     -0.119709998     -0.303514004      0.436516106       1.57097900    
   1.35319102     -0.119900003       0.00000000      0.250621229      -1.57111430    
   1.36124396       3.81390005E-02   0.00000000      0.250621229      -1.57111430    
   1.35858905       3.79349999E-02 -0.303501010      0.250621229      -1.57111430    
   1.35229194     -0.119709998     -0.303514004      0.250621229      -1.57111430    
   1.35858905       3.79349999E-02 -0.303501010      0.153624758       1.57131505    
   1.34464097      0.195331007     -0.303496003      0.153624758       1.57131505    
   1.34573400      0.195616007     -0.606999993      0.153624758       1.57131505    
   1.36126804       3.78950015E-02 -0.606999993      0.153624758       1.57131505    
   1.35858905       3.79349999E-02 -0.303501010      0.256683260      -1.57110679    
   1.36126804       3.78950015E-02 -0.606999993      0.256683260      -1.57110679    
   1.35321999     -0.119608998     -0.606999993      0.256683260      -1.57110679    
   1.35229194     -0.119709998     -0.303514004      0.256683260      -1.57110679    
   1.35858905       3.79349999E-02 -0.303501010      0.161143079       1.57129097    
   1.36124396       3.81390005E-02   0.00000000      0.161143079       1.57129097    
   1.34575403      0.195406005       0.00000000      0.161143079       1.57129097    
   1.34464097      0.195331007     -0.303496003      0.161143079       1.57129097    
   1.34575403      0.195406005       0.00000000       9.19630080E-02   1.57166302    
   1.31339800      0.349945009       0.00000000       9.19630080E-02   1.57166302    
   1.31216300      0.349725991     -0.303487003       9.19630080E-02   1.57166302    
   1.34464097      0.195331007     -0.303496003       9.19630080E-02   1.57166302    
   1.31216300      0.349725991     -0.303487003      0.289391637      -1.57107162    
   1.26341999      0.500032008     -0.303494006      0.289391637      -1.57107162    
   1.26736605      0.501691997     -0.606999993      0.289391637      -1.57107162    
   1.31333196      0.350163996     -0.606999993      0.289391637      -1.57107162    
   1.31216300      0.349725991     -0.303487003       8.92317146E-02   1.57168925    
   1.31333196      0.350163996     -0.606999993       8.92317146E-02   1.57168925    
   1.34573400      0.195616007     -0.606999993       8.92317146E-02   1.57168925    
   1.34464097      0.195331007     -0.303496003       8.92317146E-02   1.57168925    
   1.31216300      0.349725991     -0.303487003      0.291367531      -1.57106984    
   1.31339800      0.349945009       0.00000000      0.291367531      -1.57106984    
   1.26751196      0.501209974       0.00000000      0.291367531      -1.57106984    
   1.26341999      0.500032008     -0.303494006      0.291367531      -1.57106984    
   1.26751196      0.501209974       0.00000000      0.309587985       1.57105374    
   1.19658697      0.643051028       0.00000000      0.309587985       1.57105374    
   1.19583094      0.642783999     -0.303505003      0.309587985       1.57105374    
   1.26341999      0.500032008     -0.303494006      0.309587985       1.57105374    
   1.19583094      0.642783999     -0.303505003      0.375534087      -1.57100856    
   1.11495602      0.778467000     -0.303483993      0.375534087      -1.57100856    
   1.11731696      0.779847026     -0.606999993      0.375534087      -1.57100856    
   1.19653296      0.643149972     -0.606999993      0.375534087      -1.57100856    
   1.19583094      0.642783999     -0.303505003      0.312548906       1.57105124    
   1.19653296      0.643149972     -0.606999993      0.312548906       1.57105124    
   1.26736605      0.501691997     -0.606999993      0.312548906       1.57105124    
   1.26341999      0.500032008     -0.303494006      0.312548906       1.57105124    
   1.19583094      0.642783999     -0.303505003      0.378162593      -1.57100713    
   1.19658697      0.643051028       0.00000000      0.378162593      -1.57100713    
   1.11705506      0.780165970       0.00000000      0.378162593      -1.57100713    
   1.11495602      0.778467000     -0.303483993      0.378162593      -1.57100713    
   1.11705506      0.780165970       0.00000000      0.309617102       1.57105374    
   1.01674199      0.902397990       0.00000000      0.309617102       1.57105374    
   1.01591504      0.901737988     -0.303478003      0.309617102       1.57105374    
   1.11495602      0.778467000     -0.303483993      0.309617102       1.57105374    
   1.01591504      0.901737988     -0.303478003       4.76681404E-02   1.57246757    
  0.904204011       1.01322901     -0.303456992       4.76681404E-02   1.57246757    
  0.905143023       1.01448905     -0.606999993       4.76681404E-02   1.57246757    
   1.01659799      0.902572989     -0.606999993       4.76681404E-02   1.57246757    
   1.01591504      0.901737988     -0.303478003      0.302521378       1.57105970    
   1.01659799      0.902572989     -0.606999993      0.302521378       1.57105970    
   1.11731696      0.779847026     -0.606999993      0.302521378       1.57105970    
   1.11495602      0.778467000     -0.303483993      0.302521378       1.57105970    
   1.01591504      0.901737988     -0.303478003       5.18855155E-02   1.57233250    
   1.01674199      0.902397990       0.00000000       5.18855155E-02   1.57233250    
  0.905318975       1.01434398       0.00000000       5.18855155E-02   1.57233250    
  0.904204011       1.01322901     -0.303456992       5.18855155E-02   1.57233250    
  0.905318975       1.01434398       0.00000000      0.209864706      -1.57117605    
  0.782918990       1.11479497       0.00000000      0.209864706      -1.57117605    
  0.780644000       1.11195600     -0.303485006      0.209864706      -1.57117605    
  0.904204011       1.01322901     -0.303456992      0.209864706      -1.57117605    
  0.780644000       1.11195600     -0.303485006      0.238764867       1.57113004    
  0.645825028       1.19414902     -0.303514004      0.238764867       1.57113004    
  0.646153986       1.19492805     -0.606999993      0.238764867       1.57113004    
  0.782611012       1.11504900     -0.606999993      0.238764867       1.57113004    
  0.780644000       1.11195600     -0.303485006      0.207404524      -1.57118046    
  0.782611012       1.11504900     -0.606999993      0.207404524      -1.57118046    
  0.905143023       1.01448905     -0.606999993      0.207404524      -1.57118046    
  0.904204011       1.01322901     -0.303456992      0.207404524      -1.57118046    
  0.780644000       1.11195600     -0.303485006      0.231724814       1.57114029    
  0.782918990       1.11479497       0.00000000      0.231724814       1.57114029    
  0.646345019       1.19482601       0.00000000      0.231724814       1.57114029    
  0.645825028       1.19414902     -0.303514004      0.231724814       1.57114029    
  0.646345019       1.19482601       0.00000000      0.457670242      -1.57097042    
  0.504974008       1.26637006       0.00000000      0.457670242      -1.57097042    
  0.503772974       1.26314998     -0.303521991      0.457670242      -1.57097042    
  0.645825028       1.19414902     -0.303514004      0.457670242      -1.57097042    
  0.503772974       1.26314998     -0.303521991      0.405459523       1.57099283    
  0.353130996       1.31116498     -0.303510994      0.405459523       1.57099283    
  0.353300005       1.31237996     -0.606999993      0.405459523       1.57099283    
  0.505183995       1.26630700     -0.606999993      0.405459523       1.57099283    
  0.503772974       1.26314998     -0.303521991      0.449472904      -1.57097352    
  0.505183995       1.26630700     -0.606999993      0.449472904      -1.57097352    
  0.646153986       1.19492805     -0.606999993      0.449472904      -1.57097352    
  0.645825028       1.19414902     -0.303514004      0.449472904      -1.57097352    
  0.503772974       1.26314998     -0.303521991      0.411407620       1.57099009    
  0.504974008       1.26637006       0.00000000      0.411407620       1.57099009    
  0.353493989       1.31232095       0.00000000      0.411407620       1.57099009    
  0.353130996       1.31116498     -0.303510994      0.411407620       1.57099009    
  0.353493989       1.31232095       0.00000000       4.21768986E-02  -1.57268584    
  0.199064001       1.34539402       0.00000000       4.21768986E-02  -1.57268584    
  0.198755994       1.34360003     -0.303496003       4.21768986E-02  -1.57268584    
  0.353130996       1.31116498     -0.303510994       4.21768986E-02  -1.57268584    
  0.198755994       1.34360003     -0.303496003      0.151365951      -1.57132268    
   4.12769988E-02   1.35817802     -0.303508013      0.151365951      -1.57132268    
   4.12410013E-02   1.36093795     -0.606999993      0.151365951      -1.57132268    
  0.199025005       1.34539795     -0.606999993      0.151365951      -1.57132268    
  0.198755994       1.34360003     -0.303496003       4.27885912E-02  -1.57265806    
  0.199025005       1.34539795     -0.606999993       4.27885912E-02  -1.57265806    
  0.353300005       1.31237996     -0.606999993       4.27885912E-02  -1.57265806    
  0.353130996       1.31116498     -0.303510994       4.27885912E-02  -1.57265806    
  0.198755994       1.34360003     -0.303496003      0.159522653      -1.57129598    
  0.199064001       1.34539402       0.00000000      0.159522653      -1.57129598    
   4.17769998E-02   1.36088502       0.00000000      0.159522653      -1.57129598    
   4.12769988E-02   1.35817802     -0.303508013      0.159522653      -1.57129598    
   4.17769998E-02   1.36088502       0.00000000      0.151143566       1.57132363    
 -0.116410002       1.35353506       0.00000000      0.151143566       1.57132363    
 -0.116471998       1.35271096     -0.303496987      0.151143566       1.57132363    
   4.12769988E-02   1.35817802     -0.303508013      0.151143566       1.57132363    
 -0.116471998       1.35271096     -0.303496987      0.511606872      -1.57095206    
 -0.273027003       1.33229196     -0.303496003      0.511606872      -1.57095206    
 -0.273876995       1.33647299     -0.606999993      0.511606872      -1.57095206    
 -0.116722003       1.35350394     -0.606999993      0.511606872      -1.57095206    
 -0.116471998       1.35271096     -0.303496987      0.168183267       1.57126999    
 -0.116722003       1.35350394     -0.606999993      0.168183267       1.57126999    
   4.12410013E-02   1.36093795     -0.606999993      0.168183267       1.57126999    
   4.12769988E-02   1.35817802     -0.303508013      0.168183267       1.57126999    
 -0.116471998       1.35271096     -0.303496987      0.526562035      -1.57094765    
 -0.116410002       1.35353506       0.00000000      0.526562035      -1.57094765    
 -0.274069011       1.33641505       0.00000000      0.526562035      -1.57094765    
 -0.273027003       1.33229196     -0.303496003      0.526562035      -1.57094765    
 -0.274069011       1.33641505       0.00000000      0.489378035       1.57095921    
 -0.425588995       1.29045200       0.00000000      0.489378035       1.57095921    
 -0.425258011       1.28953803     -0.303507000      0.489378035       1.57095921    
 -0.273027003       1.33229196     -0.303496003      0.489378035       1.57095921    
 -0.425258011       1.28953803     -0.303507000       8.91321525E-02  -1.57169032    
 -0.572302997       1.23206902     -0.303485990       8.91321525E-02  -1.57169032    
 -0.573064029       1.23399496     -0.606999993       8.91321525E-02  -1.57169032    
 -0.425651014       1.29043305     -0.606999993       8.91321525E-02  -1.57169032    
 -0.425258011       1.28953803     -0.303507000      0.483383238       1.57096112    
 -0.425651014       1.29043305     -0.606999993      0.483383238       1.57096112    
 -0.273876995       1.33647299     -0.606999993      0.483383238       1.57096112    
 -0.273027003       1.33229196     -0.303496003      0.483383238       1.57096112    
 -0.425258011       1.28953803     -0.303507000       8.44913572E-02  -1.57173979    
 -0.425588995       1.29045200       0.00000000       8.44913572E-02  -1.57173979    
 -0.573195994       1.23392498       0.00000000       8.44913572E-02  -1.57173979    
 -0.572302997       1.23206902     -0.303485990       8.44913572E-02  -1.57173979    
 -0.573195994       1.23392498       0.00000000       5.62418252E-02  -1.57221353    
 -0.712655008       1.15938199       0.00000000       5.62418252E-02  -1.57221353    
 -0.711889029       1.15749002     -0.303496003       5.62418252E-02  -1.57221353    
 -0.572302997       1.23206902     -0.303485990       5.62418252E-02  -1.57221353    
 -0.711889029       1.15749002     -0.303496003      0.126732156       1.57142508    
 -0.840825975       1.06629205     -0.303485990      0.126732156       1.57142508    
 -0.841368973       1.06682706     -0.606999993      0.126732156       1.57142508    
 -0.712980986       1.15920806     -0.606999993      0.126732156       1.57142508    
 -0.711889029       1.15749002     -0.303496003       5.41317537E-02  -1.57226813    
 -0.712980986       1.15920806     -0.606999993       5.41317537E-02  -1.57226813    
 -0.573064029       1.23399496     -0.606999993       5.41317537E-02  -1.57226813    
 -0.572302997       1.23206902     -0.303485990       5.41317537E-02  -1.57226813    
 -0.711889029       1.15749002     -0.303496003      0.117960185       1.57147193    
 -0.712655008       1.15938199       0.00000000      0.117960185       1.57147193    
 -0.841165006       1.06699395       0.00000000      0.117960185       1.57147193    
 -0.840825975       1.06629205     -0.303485990      0.117960185       1.57147193    
 -0.841165006       1.06699395       0.00000000      0.494760245      -1.57095742    
 -0.963320017      0.966744006       0.00000000      0.494760245      -1.57095742    
 -0.960084975      0.962615013     -0.303470999      0.494760245      -1.57095742    
 -0.840825975       1.06629205     -0.303485990      0.494760245      -1.57095742    
 -0.960084975      0.962615013     -0.303470999      0.538723946       1.57094419    
  -1.06383705      0.843237996     -0.303481996      0.538723946       1.57094419    
  -1.06481802      0.843816996     -0.606999993      0.538723946       1.57094419    
 -0.963873982      0.966289997     -0.606999993      0.538723946       1.57094419    
 -0.960084975      0.962615013     -0.303470999      0.489917129      -1.57095897    
 -0.963873982      0.966289997     -0.606999993      0.489917129      -1.57095897    
 -0.841368973       1.06682706     -0.606999993      0.489917129      -1.57095897    
 -0.840825975       1.06629205     -0.303485990      0.489917129      -1.57095897    
 -0.960084975      0.962615013     -0.303470999      0.547917664       1.57094181    
 -0.963320017      0.966744006       0.00000000      0.547917664       1.57094181    
  -1.06464398      0.844029009       0.00000000      0.547917664       1.57094181    
  -1.06383705      0.843237996     -0.303481996      0.547917664       1.57094181    
  -1.06464398      0.844029009       0.00000000      0.156643078      -1.57130516    
  -1.15769398      0.715813994       0.00000000      0.156643078      -1.57130516    
  -1.15564799      0.714680016     -0.303483993      0.156643078      -1.57130516    
  -1.06383705      0.843237996     -0.303481996      0.156643078      -1.57130516    
  -1.15564799      0.714680016     -0.303483993       4.53502834E-02   1.57255340    
  -1.23108304      0.575536013     -0.303514004       4.53502834E-02   1.57255340    
  -1.23232996      0.576179981     -0.606999993       4.53502834E-02   1.57255340    
  -1.15756094      0.716063023     -0.606999993       4.53502834E-02   1.57255340    
  -1.15564799      0.714680016     -0.303483993      0.165132314      -1.57127881    
  -1.15756094      0.716063023     -0.606999993      0.165132314      -1.57127881    
  -1.06481802      0.843816996     -0.606999993      0.165132314      -1.57127881    
  -1.06383705      0.843237996     -0.303481996      0.165132314      -1.57127881    
  -1.15564799      0.714680016     -0.303483993       4.86995503E-02   1.57243299    
  -1.15769398      0.715813994       0.00000000       4.86995503E-02   1.57243299    
  -1.23224795      0.576331973       0.00000000       4.86995503E-02   1.57243299    
  -1.23108304      0.575536013     -0.303514004       4.86995503E-02   1.57243299    
  -1.23224795      0.576331973       0.00000000      0.137038097       1.57137799    
  -1.28948605      0.428772002       0.00000000      0.137038097       1.57137799    
  -1.28842103      0.428404987     -0.303512990      0.137038097       1.57137799    
  -1.23108304      0.575536013     -0.303514004      0.137038097       1.57137799    
  -1.28842103      0.428404987     -0.303512990      0.392200172      -1.57099950    
  -1.33082402      0.275959998     -0.303492010      0.392200172      -1.57099950    
  -1.33550000      0.277083993     -0.606999993      0.392200172      -1.57099950    