 VARIABLES="X" "Y" "Z" "abs(p) (Pa)" "angle(p) (rad)"
ZONE N=   2720,E =    2069, F=FEPOINT, ET=QUADRILATERAL
 -0.767116010      -1.12776399       0.00000000       3438.77075       1.75004160    
 -0.769354999      -1.12002099     -0.303523988       3438.77075       1.75004160    
 -0.896136999      -1.02028203     -0.303463012       3438.77075       1.75004160    
 -0.894908011      -1.02288902       0.00000000       3438.77075       1.75004160    
 -0.767116010      -1.12776399       0.00000000       2905.14697       1.75071836    
 -0.630888999      -1.20308697       0.00000000       2905.14697       1.75071836    
 -0.635528028      -1.19958198     -0.303541005       2905.14697       1.75071836    
 -0.769354999      -1.12002099     -0.303523988       2905.14697       1.75071836    
 -0.635528028      -1.19958198     -0.303541005       2432.89844       1.74729979    
 -0.495362997      -1.26606500     -0.303519011       2432.89844       1.74729979    
 -0.499298006      -1.26809204     -0.606999993       2432.89844       1.74729979    
 -0.640147984      -1.19813800     -0.606998026       2432.89844       1.74729979    
 -0.635528028      -1.19958198     -0.303541005       3038.41016       1.74691653    
 -0.640147984      -1.19813800     -0.606998026       3038.41016       1.74691653    
 -0.777105987      -1.11956596     -0.606999993       3038.41016       1.74691653    
 -0.769354999      -1.12002099     -0.303523988       3038.41016       1.74691653    
 -0.635528028      -1.19958198     -0.303541005       2299.97852       1.74957287    
 -0.630888999      -1.20308697       0.00000000       2299.97852       1.74957287    
 -0.494486004      -1.26955199       0.00000000       2299.97852       1.74957287    
 -0.495362997      -1.26606500     -0.303519011       2299.97852       1.74957287    
 -0.494486004      -1.26955199       0.00000000       1716.53833       1.75078917    
 -0.346311986      -1.31449997       0.00000000       1716.53833       1.75078917    
 -0.346753001      -1.31307304     -0.303510010       1716.53833       1.75078917    
 -0.495362997      -1.26606500     -0.303519011       1716.53833       1.75078917    
 -0.346753001      -1.31307304     -0.303510010       1149.43872       1.75050342    
 -0.193608001      -1.34425998     -0.303494990       1149.43872       1.75050342    
 -0.195028007      -1.34579206     -0.606999993       1149.43872       1.75050342    
 -0.348751009      -1.31376004     -0.606999993       1149.43872       1.75050342    
 -0.346753001      -1.31307304     -0.303510010       1810.53247       1.74848413    
 -0.348751009      -1.31376004     -0.606999993       1810.53247       1.74848413    
 -0.499298006      -1.26809204     -0.606999993       1810.53247       1.74848413    
 -0.495362997      -1.26606500     -0.303519011       1810.53247       1.74848413    
 -0.346753001      -1.31307304     -0.303510010       1090.40051       1.75327301    
 -0.346311986      -1.31449997       0.00000000       1090.40051       1.75327301    
 -0.193381995      -1.34595394       0.00000000       1090.40051       1.75327301    
 -0.193608001      -1.34425998     -0.303494990       1090.40051       1.75327301    
 -0.193381995      -1.34595394       0.00000000       478.581512       1.77197361    
  -3.75179984E-02  -1.36130500       0.00000000       478.581512       1.77197361    
  -3.73950005E-02  -1.35827899     -0.303512007       478.581512       1.77197361    
 -0.193608001      -1.34425998     -0.303494990       478.581512       1.77197361    
  -3.73950005E-02  -1.35827899     -0.303512007       200.887604      -1.42656732    
  0.119547002      -1.35239303     -0.303498000       200.887604      -1.42656732    
  0.119135000      -1.35326600     -0.606999993       200.887604      -1.42656732    
  -3.82840000E-02  -1.36122894     -0.606998980       200.887604      -1.42656732    
  -3.73950005E-02  -1.35827899     -0.303512007       473.363739       1.75658512    
  -3.82840000E-02  -1.36122894     -0.606998980       473.363739       1.75658512    
 -0.195028007      -1.34579206     -0.606999993       473.363739       1.75658512    
 -0.193608001      -1.34425998     -0.303494990       473.363739       1.75658512    
  -3.73950005E-02  -1.35827899     -0.303512007       161.851532      -1.47120202    
  -3.75179984E-02  -1.36130500       0.00000000       161.851532      -1.47120202    
  0.119788997      -1.35320199       0.00000000       161.851532      -1.47120202    
  0.119547002      -1.35239303     -0.303498000       161.851532      -1.47120202    
  0.119788997      -1.35320199       0.00000000       819.793701      -1.40871322    
  0.276576012      -1.33565402       0.00000000       819.793701      -1.40871322    
  0.275435001      -1.33191597     -0.303496003       819.793701      -1.40871322    
  0.119547002      -1.35239303     -0.303498000       819.793701      -1.40871322    
  0.275435001      -1.33191597     -0.303496003       1525.88745      -1.40279031    
  0.427076995      -1.28898001     -0.303507000       1525.88745      -1.40279031    
  0.427242011      -1.28995001     -0.606999993       1525.88745      -1.40279031    
  0.275831014      -1.33588004     -0.606999993       1525.88745      -1.40279031    
  0.275435001      -1.33191597     -0.303496003       869.392517      -1.40638900    
  0.275831014      -1.33588004     -0.606999993       869.392517      -1.40638900    
  0.119135000      -1.35326600     -0.606999993       869.392517      -1.40638900    
  0.119547002      -1.35239303     -0.303498000       869.392517      -1.40638900    
  0.275435001      -1.33191597     -0.303496003       1440.33765      -1.40305114    
  0.276576012      -1.33565402       0.00000000       1440.33765      -1.40305114    
  0.427509993      -1.28986895       0.00000000       1440.33765      -1.40305114    
  0.427076995      -1.28898001     -0.303507000       1440.33765      -1.40305114    
  0.427509993      -1.28986895       0.00000000       2053.38892      -1.40112317    
  0.574636996      -1.23315501       0.00000000       2053.38892      -1.40112317    
  0.573706985      -1.23136795     -0.303485990       2053.38892      -1.40112317    
  0.427076995      -1.28898001     -0.303507000       2053.38892      -1.40112317    
  0.573706985      -1.23136795     -0.303485990       2797.39453      -1.39991283    
  0.712854981      -1.15688002     -0.303496987       2797.39453      -1.39991283    
  0.713809013      -1.15876603     -0.606999993       2797.39453      -1.39991283    
  0.574283004      -1.23334301     -0.606999993       2797.39453      -1.39991283    
  0.573706985      -1.23136795     -0.303485990       2177.04492      -1.40078974    
  0.574283004      -1.23334301     -0.606999993       2177.04492      -1.40078974    
  0.427242011      -1.28995001     -0.606999993       2177.04492      -1.40078974    
  0.427076995      -1.28898001     -0.303507000       2177.04492      -1.40078974    
  0.573706985      -1.23136795     -0.303485990       2639.05200      -1.39977181    
  0.574636996      -1.23315501       0.00000000       2639.05200      -1.39977181    
  0.713741004      -1.15880203       0.00000000       2639.05200      -1.39977181    
  0.712854981      -1.15688002     -0.303496987       2639.05200      -1.39977181    
  0.713741004      -1.15880203       0.00000000       3187.90674      -1.39897335    
  0.841937006      -1.06636095       0.00000000       3187.90674      -1.39897335    
  0.841498017      -1.06573403     -0.303485990       3187.90674      -1.39897335    
  0.712854981      -1.15688002     -0.303496987       3187.90674      -1.39897335    
  0.841498017      -1.06573403     -0.303485990       3923.32593      -1.39922416    
  0.960639000     -0.962104976     -0.303470999       3923.32593      -1.39922416    
  0.964356005     -0.965893984     -0.606999993       3923.32593      -1.39922416    
  0.841796994      -1.06647599     -0.606999993       3923.32593      -1.39922416    
  0.841498017      -1.06573403     -0.303485990       3373.06738      -1.39968216    
  0.841796994      -1.06647599     -0.606999993       3373.06738      -1.39968216    
  0.713809013      -1.15876603     -0.606999993       3373.06738      -1.39968216    
  0.712854981      -1.15688002     -0.303496987       3373.06738      -1.39968216    
  0.841498017      -1.06573403     -0.303485990       3726.53174      -1.39774251    
  0.841937006      -1.06636095       0.00000000       3726.53174      -1.39774251    
  0.963932991     -0.966242015       0.00000000       3726.53174      -1.39774251    
  0.960639000     -0.962104976     -0.303470999       3726.53174      -1.39774251    
  0.963932991     -0.966242015       0.00000000       4178.55566      -1.39747524    
   1.06506598     -0.843514979       0.00000000       4178.55566      -1.39747524    
   1.06428695     -0.842682004     -0.303481996       4178.55566      -1.39747524    
  0.960639000     -0.962104976     -0.303470999       4178.55566      -1.39747524    
   1.06428695     -0.842682004     -0.303481996       4840.69189      -1.39815986    
   1.15591598     -0.714210987     -0.303485006       4840.69189      -1.39815986    
   1.15788805     -0.715448976     -0.606999993       4840.69189      -1.39815986    
   1.06537795     -0.843134999     -0.606999993       4840.69189      -1.39815986    
   1.06428695     -0.842682004     -0.303481996       4401.57812      -1.39909291    
   1.06537795     -0.843134999     -0.606999993       4401.57812      -1.39909291    
  0.964356005     -0.965893984     -0.606999993       4401.57812      -1.39909291    
  0.960639000     -0.962104976     -0.303470999       4401.57812      -1.39909291    
   1.06428695     -0.842682004     -0.303481996       4578.91357      -1.39728487    
   1.06506598     -0.843514979       0.00000000       4578.91357      -1.39728487    
   1.15792501     -0.715381980       0.00000000       4578.91357      -1.39728487    
   1.15591598     -0.714210987     -0.303485006       4578.91357      -1.39728487    
   1.15792501     -0.715381980       0.00000000       4938.39746      -1.39711952    
   1.23237598     -0.576093972       0.00000000       4938.39746      -1.39711952    
   1.23120904     -0.575251997     -0.303514004       4938.39746      -1.39711952    
   1.15591598     -0.714210987     -0.303485006       4938.39746      -1.39711952    
   1.23120904     -0.575251997     -0.303514004       5492.74023      -1.39801824    
   1.28844094     -0.428344995     -0.303512990       5492.74023      -1.39801824    
   1.28952503     -0.428642988     -0.606999993       5492.74023      -1.39801824    
   1.23252702     -0.575810015     -0.606999993       5492.74023      -1.39801824    
   1.23120904     -0.575251997     -0.303514004       5205.58545      -1.39809692    
   1.23252702     -0.575810015     -0.606999993       5205.58545      -1.39809692    
   1.15788805     -0.715448976     -0.606999993       5205.58545      -1.39809692    
   1.15591598     -0.714210987     -0.303485006       5205.58545      -1.39809692    
   1.23120904     -0.575251997     -0.303514004       5239.97949      -1.39646387    
   1.23237598     -0.576093972       0.00000000       5239.97949      -1.39646387    
   1.28947699     -0.428801000       0.00000000       5239.97949      -1.39646387    
   1.28844094     -0.428344995     -0.303512990       5239.97949      -1.39646387    
   1.28947699     -0.428801000       0.00000000       5443.95508      -1.39677238    
   1.33532202     -0.277671993       0.00000000       5443.95508      -1.39677238    
   1.33076501     -0.276203990     -0.303492010       5443.95508      -1.39677238    
   1.28844094     -0.428344995     -0.303512990       5443.95508      -1.39677238    
   1.33076501     -0.276203990     -0.303492010       5879.79785      -1.39719427    
   1.35229194     -0.119709998     -0.303514004       5879.79785      -1.39719427    
   1.35321999     -0.119608998     -0.606999993       5879.79785      -1.39719427    
   1.33549094     -0.277112991     -0.606999993       5879.79785      -1.39719427    
   1.33076501     -0.276203990     -0.303492010       5719.53467      -1.39803302    
   1.33549094     -0.277112991     -0.606999993       5719.53467      -1.39803302    
   1.28952503     -0.428642988     -0.606999993       5719.53467      -1.39803302    
   1.28844094     -0.428344995     -0.303512990       5719.53467      -1.39803302    
   1.33076501     -0.276203990     -0.303492010       5555.30566      -1.39731216    
   1.33532202     -0.277671993       0.00000000       5555.30566      -1.39731216    
   1.35319102     -0.119900003       0.00000000       5555.30566      -1.39731216    
   1.35229194     -0.119709998     -0.303514004       5555.30566      -1.39731216    
   1.35319102     -0.119900003       0.00000000       5615.21240      -1.39732146    
   1.36124396       3.81390005E-02   0.00000000       5615.21240      -1.39732146    
   1.35858905       3.79349999E-02 -0.303501010       5615.21240      -1.39732146    
   1.35229194     -0.119709998     -0.303514004       5615.21240      -1.39732146    
   1.35858905       3.79349999E-02 -0.303501010       5908.36230      -1.39770329    
   1.34464097      0.195331007     -0.303496003       5908.36230      -1.39770329    
   1.34573400      0.195616007     -0.606999993       5908.36230      -1.39770329    
   1.36126804       3.78950015E-02 -0.606999993       5908.36230      -1.39770329    
   1.35858905       3.79349999E-02 -0.303501010       5922.39941      -1.39766705    
   1.36126804       3.78950015E-02 -0.606999993       5922.39941      -1.39766705    
   1.35321999     -0.119608998     -0.606999993       5922.39941      -1.39766705    
   1.35229194     -0.119709998     -0.303514004       5922.39941      -1.39766705    
   1.35858905       3.79349999E-02 -0.303501010       5627.75684      -1.39646101    
   1.36124396       3.81390005E-02   0.00000000       5627.75684      -1.39646101    
   1.34575403      0.195406005       0.00000000       5627.75684      -1.39646101    
   1.34464097      0.195331007     -0.303496003       5627.75684      -1.39646101    
   1.34575403      0.195406005       0.00000000       5536.28906      -1.39651716    
   1.31339800      0.349945009       0.00000000       5536.28906      -1.39651716    
   1.31216300      0.349725991     -0.303487003       5536.28906      -1.39651716    
   1.34464097      0.195331007     -0.303496003       5536.28906      -1.39651716    
   1.31216300      0.349725991     -0.303487003       5621.91504      -1.39818788    
   1.26341999      0.500032008     -0.303494006       5621.91504      -1.39818788    
   1.26736605      0.501691997     -0.606999993       5621.91504      -1.39818788    
   1.31333196      0.350163996     -0.606999993       5621.91504      -1.39818788    
   1.31216300      0.349725991     -0.303487003       5804.67871      -1.39769697    
   1.31333196      0.350163996     -0.606999993       5804.67871      -1.39769697    
   1.34573400      0.195616007     -0.606999993       5804.67871      -1.39769697    
   1.34464097      0.195331007     -0.303496003       5804.67871      -1.39769697    
   1.31216300      0.349725991     -0.303487003       5379.35889      -1.39653575    
   1.31339800      0.349945009       0.00000000       5379.35889      -1.39653575    
   1.26751196      0.501209974       0.00000000       5379.35889      -1.39653575    
   1.26341999      0.500032008     -0.303494006       5379.35889      -1.39653575    
   1.26751196      0.501209974       0.00000000       5113.20996      -1.39761055    
   1.19658697      0.643051028       0.00000000       5113.20996      -1.39761055    
   1.19583094      0.642783999     -0.303505003       5113.20996      -1.39761055    
   1.26341999      0.500032008     -0.303494006       5113.20996      -1.39761055    
   1.19583094      0.642783999     -0.303505003       5062.93994      -1.39749014    
   1.11495602      0.778467000     -0.303483993       5062.93994      -1.39749014    
   1.11731696      0.779847026     -0.606999993       5062.93994      -1.39749014    
   1.19653296      0.643149972     -0.606999993       5062.93994      -1.39749014    
   1.19583094      0.642783999     -0.303505003       5368.14502      -1.39824843    
   1.19653296      0.643149972     -0.606999993       5368.14502      -1.39824843    
   1.26736605      0.501691997     -0.606999993       5368.14502      -1.39824843    
   1.26341999      0.500032008     -0.303494006       5368.14502      -1.39824843    
   1.19583094      0.642783999     -0.303505003       4779.27734      -1.39790511    
   1.19658697      0.643051028       0.00000000       4779.27734      -1.39790511    
   1.11705506      0.780165970       0.00000000       4779.27734      -1.39790511    
   1.11495602      0.778467000     -0.303483993       4779.27734      -1.39790511    
   1.11705506      0.780165970       0.00000000       4397.44873      -1.39816809    
   1.01674199      0.902397990       0.00000000       4397.44873      -1.39816809    
   1.01591504      0.901737988     -0.303478003       4397.44873      -1.39816809    
   1.11495602      0.778467000     -0.303483993       4397.44873      -1.39816809    
   1.01591504      0.901737988     -0.303478003       4186.70850      -1.39860964    
  0.904204011       1.01322901     -0.303456992       4186.70850      -1.39860964    
  0.905143023       1.01448905     -0.606999993       4186.70850      -1.39860964    
   1.01659799      0.902572989     -0.606999993       4186.70850      -1.39860964    
   1.01591504      0.901737988     -0.303478003       4652.41162      -1.39843547    
   1.01659799      0.902572989     -0.606999993       4652.41162      -1.39843547    
   1.11731696      0.779847026     -0.606999993       4652.41162      -1.39843547    
   1.11495602      0.778467000     -0.303483993       4652.41162      -1.39843547    
   1.01591504      0.901737988     -0.303478003       3947.92139      -1.39855945    
   1.01674199      0.902397990       0.00000000       3947.92139      -1.39855945    
  0.905318975       1.01434398       0.00000000       3947.92139      -1.39855945    
  0.904204011       1.01322901     -0.303456992       3947.92139      -1.39855945    
  0.905318975       1.01434398       0.00000000       3490.38892      -1.39764941    
  0.782918990       1.11479497       0.00000000       3490.38892      -1.39764941    
  0.780644000       1.11195600     -0.303485006       3490.38892      -1.39764941    
  0.904204011       1.01322901     -0.303456992       3490.38892      -1.39764941    
  0.780644000       1.11195600     -0.303485006       3115.56641      -1.39924252    
  0.645825028       1.19414902     -0.303514004       3115.56641      -1.39924252    
  0.646153986       1.19492805     -0.606999993       3115.56641      -1.39924252    
  0.782611012       1.11504900     -0.606999993       3115.56641      -1.39924252    
  0.780644000       1.11195600     -0.303485006       3675.02051      -1.39896214    
  0.782611012       1.11504900     -0.606999993       3675.02051      -1.39896214    
  0.905143023       1.01448905     -0.606999993       3675.02051      -1.39896214    
  0.904204011       1.01322901     -0.303456992       3675.02051      -1.39896214    
  0.780644000       1.11195600     -0.303485006       2964.20850      -1.39787376    
  0.782918990       1.11479497       0.00000000       2964.20850      -1.39787376    
  0.646345019       1.19482601       0.00000000       2964.20850      -1.39787376    
  0.645825028       1.19414902     -0.303514004       2964.20850      -1.39787376    
  0.646345019       1.19482601       0.00000000       2355.95386      -1.40068674    
  0.504974008       1.26637006       0.00000000       2355.95386      -1.40068674    
  0.503772974       1.26314998     -0.303521991       2355.95386      -1.40068674    
  0.645825028       1.19414902     -0.303514004       2355.95386      -1.40068674    
  0.503772974       1.26314998     -0.303521991       1879.52307      -1.40072060    
  0.353130996       1.31116498     -0.303510994       1879.52307      -1.40072060    
  0.353300005       1.31237996     -0.606999993       1879.52307      -1.40072060    
  0.505183995       1.26630700     -0.606999993       1879.52307      -1.40072060    
  0.503772974       1.26314998     -0.303521991       2506.53491      -1.39999425    
  0.505183995       1.26630700     -0.606999993       2506.53491      -1.39999425    
  0.646153986       1.19492805     -0.606999993       2506.53491      -1.39999425    
  0.645825028       1.19414902     -0.303514004       2506.53491      -1.39999425    
  0.503772974       1.26314998     -0.303521991       1762.33850      -1.40253031    
  0.504974008       1.26637006       0.00000000       1762.33850      -1.40253031    
  0.353493989       1.31232095       0.00000000       1762.33850      -1.40253031    
  0.353130996       1.31116498     -0.303510994       1762.33850      -1.40253031    
  0.353493989       1.31232095       0.00000000       1125.61755      -1.40706646    
  0.199064001       1.34539402       0.00000000       1125.61755      -1.40706646    
  0.198755994       1.34360003     -0.303496003       1125.61755      -1.40706646    
  0.353130996       1.31116498     -0.303510994       1125.61755      -1.40706646    
  0.198755994       1.34360003     -0.303496003       505.971680      -1.42224729    
   4.12769988E-02   1.35817802     -0.303508013       505.971680      -1.42224729    
   4.12410013E-02   1.36093795     -0.606999993       505.971680      -1.42224729    
  0.199025005       1.34539795     -0.606999993       505.971680      -1.42224729    
  0.198755994       1.34360003     -0.303496003       1211.89099      -1.40320134    
  0.199025005       1.34539795     -0.606999993       1211.89099      -1.40320134    
  0.353300005       1.31237996     -0.606999993       1211.89099      -1.40320134    
  0.353130996       1.31116498     -0.303510994       1211.89099      -1.40320134    
  0.198755994       1.34360003     -0.303496003       479.904358      -1.42379081    
  0.199064001       1.34539402       0.00000000       479.904358      -1.42379081    
   4.17769998E-02   1.36088502       0.00000000       479.904358      -1.42379081    
   4.12769988E-02   1.35817802     -0.303508013       479.904358      -1.42379081    
   4.17769998E-02   1.36088502       0.00000000       167.947464       1.82870877    
 -0.116410002       1.35353506       0.00000000       167.947464       1.82870877    
 -0.116471998       1.35271096     -0.303496987       167.947464       1.82870877    
   4.12769988E-02   1.35817802     -0.303508013       167.947464       1.82870877    
 -0.116471998       1.35271096     -0.303496987       871.741577       1.76413488    
 -0.273027003       1.33229196     -0.303496003       871.741577       1.76413488    
 -0.273876995       1.33647299     -0.606999993       871.741577       1.76413488    
 -0.116722003       1.35350394     -0.606999993       871.741577       1.76413488    
 -0.116471998       1.35271096     -0.303496987       175.304184       1.81844878    
 -0.116722003       1.35350394     -0.606999993       175.304184       1.81844878    
   4.12410013E-02   1.36093795     -0.606999993       175.304184       1.81844878    
   4.12769988E-02   1.35817802     -0.303508013       175.304184       1.81844878    
 -0.116471998       1.35271096     -0.303496987       827.629883       1.76374114    
 -0.116410002       1.35353506       0.00000000       827.629883       1.76374114    
 -0.274069011       1.33641505       0.00000000       827.629883       1.76374114    
 -0.273027003       1.33229196     -0.303496003       827.629883       1.76374114    
 -0.274069011       1.33641505       0.00000000       1451.45251       1.75628746    
 -0.425588995       1.29045200       0.00000000       1451.45251       1.75628746    
 -0.425258011       1.28953803     -0.303507000       1451.45251       1.75628746    
 -0.273027003       1.33229196     -0.303496003       1451.45251       1.75628746    
 -0.425258011       1.28953803     -0.303507000       2181.89673       1.75266159    
 -0.572302997       1.23206902     -0.303485990       2181.89673       1.75266159    
 -0.573064029       1.23399496     -0.606999993       2181.89673       1.75266159    
 -0.425651014       1.29043305     -0.606999993       2181.89673       1.75266159    
 -0.425258011       1.28953803     -0.303507000       1529.97192       1.75551271    
 -0.425651014       1.29043305     -0.606999993       1529.97192       1.75551271    
 -0.273876995       1.33647299     -0.606999993       1529.97192       1.75551271    
 -0.273027003       1.33229196     -0.303496003       1529.97192       1.75551271    
 -0.425258011       1.28953803     -0.303507000       2067.54248       1.75348973    
 -0.425588995       1.29045200       0.00000000       2067.54248       1.75348973    
 -0.573195994       1.23392498       0.00000000       2067.54248       1.75348973    
 -0.572302997       1.23206902     -0.303485990       2067.54248       1.75348973    
 -0.573195994       1.23392498       0.00000000       2651.19897       1.75198221    
 -0.712655008       1.15938199       0.00000000       2651.19897       1.75198221    
 -0.711889029       1.15749002     -0.303496003       2651.19897       1.75198221    
 -0.572302997       1.23206902     -0.303485990       2651.19897       1.75198221    
 -0.711889029       1.15749002     -0.303496003       3376.59058       1.74959803    
 -0.840825975       1.06629205     -0.303485990       3376.59058       1.74959803    
 -0.841368973       1.06682706     -0.606999993       3376.59058       1.74959803    
 -0.712980986       1.15920806     -0.606999993       3376.59058       1.74959803    
 -0.711889029       1.15749002     -0.303496003       2798.86743       1.75058544    
 -0.712980986       1.15920806     -0.606999993       2798.86743       1.75058544    
 -0.573064029       1.23399496     -0.606999993       2798.86743       1.75058544    
 -0.572302997       1.23206902     -0.303485990       2798.86743       1.75058544    
 -0.711889029       1.15749002     -0.303496003       3192.19629       1.75091910    
 -0.712655008       1.15938199       0.00000000       3192.19629       1.75091910    
 -0.841165006       1.06699395       0.00000000       3192.19629       1.75091910    
 -0.840825975       1.06629205     -0.303485990       3192.19629       1.75091910    
 -0.841165006       1.06699395       0.00000000       3710.55908       1.75039828    
 -0.963320017      0.966744006       0.00000000       3710.55908       1.75039828    
 -0.960084975      0.962615013     -0.303470999       3710.55908       1.75039828    
 -0.840825975       1.06629205     -0.303485990       3710.55908       1.75039828    
 -0.960084975      0.962615013     -0.303470999       4400.83398       1.74840248    
  -1.06383705      0.843237996     -0.303481996       4400.83398       1.74840248    
  -1.06481802      0.843816996     -0.606999993       4400.83398       1.74840248    
 -0.963873982      0.966289997     -0.606999993       4400.83398       1.74840248    
 -0.960084975      0.962615013     -0.303470999       3923.74829       1.74898219    
 -0.963873982      0.966289997     -0.606999993       3923.74829       1.74898219    
 -0.841368973       1.06682706     -0.606999993       3923.74829       1.74898219    
 -0.840825975       1.06629205     -0.303485990       3923.74829       1.74898219    
 -0.960084975      0.962615013     -0.303470999       4168.44629       1.75016487    
 -0.963320017      0.966744006       0.00000000       4168.44629       1.75016487    
  -1.06464398      0.844029009       0.00000000       4168.44629       1.75016487    
  -1.06383705      0.843237996     -0.303481996       4168.44629       1.75016487    
  -1.06464398      0.844029009       0.00000000       4583.07324       1.74981010    
  -1.15769398      0.715813994       0.00000000       4583.07324       1.74981010    
  -1.15564799      0.714680016     -0.303483993       4583.07324       1.74981010    
  -1.06383705      0.843237996     -0.303481996       4583.07324       1.74981010    
  -1.15564799      0.714680016     -0.303483993       5198.58936       1.74803674    
  -1.23108304      0.575536013     -0.303514004       5198.58936       1.74803674    
  -1.23232996      0.576179981     -0.606999993       5198.58936       1.74803674    
  -1.15756094      0.716063023     -0.606999993       5198.58936       1.74803674    
  -1.15564799      0.714680016     -0.303483993       4828.36230       1.74820435    
  -1.15756094      0.716063023     -0.606999993       4828.36230       1.74820435    
  -1.06481802      0.843816996     -0.606999993       4828.36230       1.74820435    
  -1.06383705      0.843237996     -0.303481996       4828.36230       1.74820435    
  -1.15564799      0.714680016     -0.303483993       4954.02930       1.74956620    
  -1.15769398      0.715813994       0.00000000       4954.02930       1.74956620    
  -1.23224795      0.576331973       0.00000000       4954.02930       1.74956620    
  -1.23108304      0.575536013     -0.303514004       4954.02930       1.74956620    
  -1.23224795      0.576331973       0.00000000       5244.03564       1.74939978    
  -1.28948605      0.428772002       0.00000000       5244.03564       1.74939978    
  -1.28842103      0.428404987     -0.303512990       5244.03564       1.74939978    
  -1.23108304      0.575536013     -0.303514004       5244.03564       1.74939978    
  -1.28842103      0.428404987     -0.303512990       5696.11865       1.74700296    
  -1.33082402      0.275959998     -0.303492010       5696.11865       1.74700296    
  -1.33550000      0.277083993     -0.606999993       5696.11865       1.74700296    