 VARIABLES="X" "Y" "Z" "abs(p) (Pa)" "angle(p) (rad)"
ZONE N=   2720,E =    2069, F=FEPOINT, ET=QUADRILATERAL
 -0.767116010      -1.12776399       0.00000000       5187.85547       1.58580410    
 -0.769354999      -1.12002099     -0.303523988       5187.85547       1.58580410    
 -0.896136999      -1.02028203     -0.303463012       5187.85547       1.58580410    
 -0.894908011      -1.02288902       0.00000000       5187.85547       1.58580410    
 -0.767116010      -1.12776399       0.00000000       4420.65332       1.58711505    
 -0.630888999      -1.20308697       0.00000000       4420.65332       1.58711505    
 -0.635528028      -1.19958198     -0.303541005       4420.65332       1.58711505    
 -0.769354999      -1.12002099     -0.303523988       4420.65332       1.58711505    
 -0.635528028      -1.19958198     -0.303541005       3036.18628       1.59207046    
 -0.495362997      -1.26606500     -0.303519011       3036.18628       1.59207046    
 -0.499298006      -1.26809204     -0.606999993       3036.18628       1.59207046    
 -0.640147984      -1.19813800     -0.606998026       3036.18628       1.59207046    
 -0.635528028      -1.19958198     -0.303541005       3748.32910       1.58977246    
 -0.640147984      -1.19813800     -0.606998026       3748.32910       1.58977246    
 -0.777105987      -1.11956596     -0.606999993       3748.32910       1.58977246    
 -0.769354999      -1.12002099     -0.303523988       3748.32910       1.58977246    
 -0.635528028      -1.19958198     -0.303541005       3455.46094       1.58967900    
 -0.630888999      -1.20308697       0.00000000       3455.46094       1.58967900    
 -0.494486004      -1.26955199       0.00000000       3455.46094       1.58967900    
 -0.495362997      -1.26606500     -0.303519011       3455.46094       1.58967900    
 -0.494486004      -1.26955199       0.00000000       2629.77051       1.59320855    
 -0.346311986      -1.31449997       0.00000000       2629.77051       1.59320855    
 -0.346753001      -1.31307304     -0.303510010       2629.77051       1.59320855    
 -0.495362997      -1.26606500     -0.303519011       2629.77051       1.59320855    
 -0.346753001      -1.31307304     -0.303510010       1538.65784       1.60370290    
 -0.193608001      -1.34425998     -0.303494990       1538.65784       1.60370290    
 -0.195028007      -1.34579206     -0.606999993       1538.65784       1.60370290    
 -0.348751009      -1.31376004     -0.606999993       1538.65784       1.60370290    
 -0.346753001      -1.31307304     -0.303510010       2309.47119       1.59585690    
 -0.348751009      -1.31376004     -0.606999993       2309.47119       1.59585690    
 -0.499298006      -1.26809204     -0.606999993       2309.47119       1.59585690    
 -0.495362997      -1.26606500     -0.303519011       2309.47119       1.59585690    
 -0.346753001      -1.31307304     -0.303510010       1751.43469       1.60054171    
 -0.346311986      -1.31449997       0.00000000       1751.43469       1.60054171    
 -0.193381995      -1.34595394       0.00000000       1751.43469       1.60054171    
 -0.193608001      -1.34425998     -0.303494990       1751.43469       1.60054171    
 -0.193381995      -1.34595394       0.00000000       994.551758       1.61669588    
  -3.75179984E-02  -1.36130500       0.00000000       994.551758       1.61669588    
  -3.73950005E-02  -1.35827899     -0.303512007       994.551758       1.61669588    
 -0.193608001      -1.34425998     -0.303494990       994.551758       1.61669588    
  -3.73950005E-02  -1.35827899     -0.303512007       74.5081635      -2.06933641    
  0.119547002      -1.35239303     -0.303498000       74.5081635      -2.06933641    
  0.119135000      -1.35326600     -0.606999993       74.5081635      -2.06933641    
  -3.82840000E-02  -1.36122894     -0.606998980       74.5081635      -2.06933641    
  -3.73950005E-02  -1.35827899     -0.303512007       728.760132       1.62997222    
  -3.82840000E-02  -1.36122894     -0.606998980       728.760132       1.62997222    
 -0.195028007      -1.34579206     -0.606999993       728.760132       1.62997222    
 -0.193608001      -1.34425998     -0.303494990       728.760132       1.62997222    
  -3.73950005E-02  -1.35827899     -0.303512007       101.106857       1.96093464    
  -3.75179984E-02  -1.36130500       0.00000000       101.106857       1.96093464    
  0.119788997      -1.35320199       0.00000000       101.106857       1.96093464    
  0.119547002      -1.35239303     -0.303498000       101.106857       1.96093464    
  0.119788997      -1.35320199       0.00000000       850.561829      -1.60720134    
  0.276576012      -1.33565402       0.00000000       850.561829      -1.60720134    
  0.275435001      -1.33191597     -0.303496003       850.561829      -1.60720134    
  0.119547002      -1.35239303     -0.303498000       850.561829      -1.60720134    
  0.275435001      -1.33191597     -0.303496003       1518.65967      -1.58455575    
  0.427076995      -1.28898001     -0.303507000       1518.65967      -1.58455575    
  0.427242011      -1.28995001     -0.606999993       1518.65967      -1.58455575    
  0.275831014      -1.33588004     -0.606999993       1518.65967      -1.58455575    
  0.275435001      -1.33191597     -0.303496003       758.013916      -1.60810840    
  0.275831014      -1.33588004     -0.606999993       758.013916      -1.60810840    
  0.119135000      -1.35326600     -0.606999993       758.013916      -1.60810840    
  0.119547002      -1.35239303     -0.303498000       758.013916      -1.60810840    
  0.275435001      -1.33191597     -0.303496003       1723.01099      -1.58467686    
  0.276576012      -1.33565402       0.00000000       1723.01099      -1.58467686    
  0.427509993      -1.28986895       0.00000000       1723.01099      -1.58467686    
  0.427076995      -1.28898001     -0.303507000       1723.01099      -1.58467686    
  0.427509993      -1.28986895       0.00000000       2572.68823      -1.57736623    
  0.574636996      -1.23315501       0.00000000       2572.68823      -1.57736623    
  0.573706985      -1.23136795     -0.303485990       2572.68823      -1.57736623    
  0.427076995      -1.28898001     -0.303507000       2572.68823      -1.57736623    
  0.573706985      -1.23136795     -0.303485990       3009.94751      -1.57289100    
  0.712854981      -1.15688002     -0.303496987       3009.94751      -1.57289100    
  0.713809013      -1.15876603     -0.606999993       3009.94751      -1.57289100    
  0.574283004      -1.23334301     -0.606999993       3009.94751      -1.57289100    
  0.573706985      -1.23136795     -0.303485990       2282.33398      -1.57668006    
  0.574283004      -1.23334301     -0.606999993       2282.33398      -1.57668006    
  0.427242011      -1.28995001     -0.606999993       2282.33398      -1.57668006    
  0.427076995      -1.28898001     -0.303507000       2282.33398      -1.57668006    
  0.573706985      -1.23136795     -0.303485990       3408.37500      -1.57377374    
  0.574636996      -1.23315501       0.00000000       3408.37500      -1.57377374    
  0.713741004      -1.15880203       0.00000000       3408.37500      -1.57377374    
  0.712854981      -1.15688002     -0.303496987       3408.37500      -1.57377374    
  0.713741004      -1.15880203       0.00000000       4184.12354      -1.57169914    
  0.841937006      -1.06636095       0.00000000       4184.12354      -1.57169914    
  0.841498017      -1.06573403     -0.303485990       4184.12354      -1.57169914    
  0.712854981      -1.15688002     -0.303496987       4184.12354      -1.57169914    
  0.841498017      -1.06573403     -0.303485990       4286.31641      -1.56921637    
  0.960639000     -0.962104976     -0.303470999       4286.31641      -1.56921637    
  0.964356005     -0.965893984     -0.606999993       4286.31641      -1.56921637    
  0.841796994      -1.06647599     -0.606999993       4286.31641      -1.56921637    
  0.841498017      -1.06573403     -0.303485990       3660.67627      -1.57070959    
  0.841796994      -1.06647599     -0.606999993       3660.67627      -1.57070959    
  0.713809013      -1.15876603     -0.606999993       3660.67627      -1.57070959    
  0.712854981      -1.15688002     -0.303496987       3660.67627      -1.57070959    
  0.841498017      -1.06573403     -0.303485990       4949.50928      -1.57027018    
  0.841937006      -1.06636095       0.00000000       4949.50928      -1.57027018    
  0.963932991     -0.966242015       0.00000000       4949.50928      -1.57027018    
  0.960639000     -0.962104976     -0.303470999       4949.50928      -1.57027018    
  0.963932991     -0.966242015       0.00000000       5577.17627      -1.56937647    
   1.06506598     -0.843514979       0.00000000       5577.17627      -1.56937647    
   1.06428695     -0.842682004     -0.303481996       5577.17627      -1.56937647    
  0.960639000     -0.962104976     -0.303470999       5577.17627      -1.56937647    
   1.06428695     -0.842682004     -0.303481996       5448.78418      -1.56750524    
   1.15591598     -0.714210987     -0.303485006       5448.78418      -1.56750524    
   1.15788805     -0.715448976     -0.606999993       5448.78418      -1.56750524    
   1.06537795     -0.843134999     -0.606999993       5448.78418      -1.56750524    
   1.06428695     -0.842682004     -0.303481996       4833.45068      -1.56822777    
   1.06537795     -0.843134999     -0.606999993       4833.45068      -1.56822777    
  0.964356005     -0.965893984     -0.606999993       4833.45068      -1.56822777    
  0.960639000     -0.962104976     -0.303470999       4833.45068      -1.56822777    
   1.06428695     -0.842682004     -0.303481996       6133.21680      -1.56870449    
   1.06506598     -0.843514979       0.00000000       6133.21680      -1.56870449    
   1.15792501     -0.715381980       0.00000000       6133.21680      -1.56870449    
   1.15591598     -0.714210987     -0.303485006       6133.21680      -1.56870449    
   1.15792501     -0.715381980       0.00000000       6611.66162      -1.56820476    
   1.23237598     -0.576093972       0.00000000       6611.66162      -1.56820476    
   1.23120904     -0.575251997     -0.303514004       6611.66162      -1.56820476    
   1.15591598     -0.714210987     -0.303485006       6611.66162      -1.56820476    
   1.23120904     -0.575251997     -0.303514004       6191.98096      -1.56659186    
   1.28844094     -0.428344995     -0.303512990       6191.98096      -1.56659186    
   1.28952503     -0.428642988     -0.606999993       6191.98096      -1.56659186    
   1.23252702     -0.575810015     -0.606999993       6191.98096      -1.56659186    
   1.23120904     -0.575251997     -0.303514004       5857.67139      -1.56697321    
   1.23252702     -0.575810015     -0.606999993       5857.67139      -1.56697321    
   1.15788805     -0.715448976     -0.606999993       5857.67139      -1.56697321    
   1.15591598     -0.714210987     -0.303485006       5857.67139      -1.56697321    
   1.23120904     -0.575251997     -0.303514004       7111.08594      -1.56784558    
   1.23237598     -0.576093972       0.00000000       7111.08594      -1.56784558    
   1.28947699     -0.428801000       0.00000000       7111.08594      -1.56784558    
   1.28844094     -0.428344995     -0.303512990       7111.08594      -1.56784558    
   1.28947699     -0.428801000       0.00000000       7360.62012      -1.56760740    
   1.33532202     -0.277671993       0.00000000       7360.62012      -1.56760740    
   1.33076501     -0.276203990     -0.303492010       7360.62012      -1.56760740    
   1.28844094     -0.428344995     -0.303512990       7360.62012      -1.56760740    
   1.33076501     -0.276203990     -0.303492010       6784.19971      -1.56614816    
   1.35229194     -0.119709998     -0.303514004       6784.19971      -1.56614816    
   1.35321999     -0.119608998     -0.606999993       6784.19971      -1.56614816    
   1.33549094     -0.277112991     -0.606999993       6784.19971      -1.56614816    
   1.33076501     -0.276203990     -0.303492010       6427.18945      -1.56628513    
   1.33549094     -0.277112991     -0.606999993       6427.18945      -1.56628513    
   1.28952503     -0.428642988     -0.606999993       6427.18945      -1.56628513    
   1.28844094     -0.428344995     -0.303512990       6427.18945      -1.56628513    
   1.33076501     -0.276203990     -0.303492010       7417.98486      -1.56743968    
   1.33532202     -0.277671993       0.00000000       7417.98486      -1.56743968    
   1.35319102     -0.119900003       0.00000000       7417.98486      -1.56743968    
   1.35229194     -0.119709998     -0.303514004       7417.98486      -1.56743968    
   1.35319102     -0.119900003       0.00000000       7496.17969      -1.56733394    
   1.36124396       3.81390005E-02   0.00000000       7496.17969      -1.56733394    
   1.35858905       3.79349999E-02 -0.303501010       7496.17969      -1.56733394    
   1.35229194     -0.119709998     -0.303514004       7496.17969      -1.56733394    
   1.35858905       3.79349999E-02 -0.303501010       6687.27441      -1.56593454    
   1.34464097      0.195331007     -0.303496003       6687.27441      -1.56593454    
   1.34573400      0.195616007     -0.606999993       6687.27441      -1.56593454    
   1.36126804       3.78950015E-02 -0.606999993       6687.27441      -1.56593454    
   1.35858905       3.79349999E-02 -0.303501010       6731.74316      -1.56600285    
   1.36126804       3.78950015E-02 -0.606999993       6731.74316      -1.56600285    
   1.35321999     -0.119608998     -0.606999993       6731.74316      -1.56600285    
   1.35229194     -0.119709998     -0.303514004       6731.74316      -1.56600285    
   1.35858905       3.79349999E-02 -0.303501010       7668.71777      -1.56730330    
   1.36124396       3.81390005E-02   0.00000000       7668.71777      -1.56730330    
   1.34575403      0.195406005       0.00000000       7668.71777      -1.56730330    
   1.34464097      0.195331007     -0.303496003       7668.71777      -1.56730330    
   1.34575403      0.195406005       0.00000000       7527.26660      -1.56732905    
   1.31339800      0.349945009       0.00000000       7527.26660      -1.56732905    
   1.31216300      0.349725991     -0.303487003       7527.26660      -1.56732905    
   1.34464097      0.195331007     -0.303496003       7527.26660      -1.56732905    
   1.31216300      0.349725991     -0.303487003       6302.92627      -1.56605220    
   1.26341999      0.500032008     -0.303494006       6302.92627      -1.56605220    
   1.26736605      0.501691997     -0.606999993       6302.92627      -1.56605220    
   1.31333196      0.350163996     -0.606999993       6302.92627      -1.56605220    
   1.31216300      0.349725991     -0.303487003       6565.89111      -1.56596100    
   1.31333196      0.350163996     -0.606999993       6565.89111      -1.56596100    
   1.34573400      0.195616007     -0.606999993       6565.89111      -1.56596100    
   1.34464097      0.195331007     -0.303496003       6565.89111      -1.56596100    
   1.31216300      0.349725991     -0.303487003       7276.97314      -1.56740952    
   1.31339800      0.349945009       0.00000000       7276.97314      -1.56740952    
   1.26751196      0.501209974       0.00000000       7276.97314      -1.56740952    
   1.26341999      0.500032008     -0.303494006       7276.97314      -1.56740952    
   1.26751196      0.501209974       0.00000000       6728.04297      -1.56758201    
   1.19658697      0.643051028       0.00000000       6728.04297      -1.56758201    
   1.19583094      0.642783999     -0.303505003       6728.04297      -1.56758201    
   1.26341999      0.500032008     -0.303494006       6728.04297      -1.56758201    
   1.19583094      0.642783999     -0.303505003       5743.51025      -1.56652200    
   1.11495602      0.778467000     -0.303483993       5743.51025      -1.56652200    
   1.11731696      0.779847026     -0.606999993       5743.51025      -1.56652200    
   1.19653296      0.643149972     -0.606999993       5743.51025      -1.56652200    
   1.19583094      0.642783999     -0.303505003       5999.28271      -1.56623077    
   1.19653296      0.643149972     -0.606999993       5999.28271      -1.56623077    
   1.26736605      0.501691997     -0.606999993       5999.28271      -1.56623077    
   1.26341999      0.500032008     -0.303494006       5999.28271      -1.56623077    
   1.19583094      0.642783999     -0.303505003       6261.57861      -1.56788552    
   1.19658697      0.643051028       0.00000000       6261.57861      -1.56788552    
   1.11705506      0.780165970       0.00000000       6261.57861      -1.56788552    
   1.11495602      0.778467000     -0.303483993       6261.57861      -1.56788552    
   1.11705506      0.780165970       0.00000000       5722.19971      -1.56830180    
   1.01674199      0.902397990       0.00000000       5722.19971      -1.56830180    
   1.01591504      0.901737988     -0.303478003       5722.19971      -1.56830180    
   1.11495602      0.778467000     -0.303483993       5722.19971      -1.56830180    
   1.01591504      0.901737988     -0.303478003       4562.98682      -1.56751955    
  0.904204011       1.01322901     -0.303456992       4562.98682      -1.56751955    
  0.905143023       1.01448905     -0.606999993       4562.98682      -1.56751955    
   1.01659799      0.902572989     -0.606999993       4562.98682      -1.56751955    
   1.01591504      0.901737988     -0.303478003       5099.08789      -1.56688643    
   1.01659799      0.902572989     -0.606999993       5099.08789      -1.56688643    
   1.11731696      0.779847026     -0.606999993       5099.08789      -1.56688643    
   1.11495602      0.778467000     -0.303483993       5099.08789      -1.56688643    
   1.01591504      0.901737988     -0.303478003       5095.13330      -1.56892920    
   1.01674199      0.902397990       0.00000000       5095.13330      -1.56892920    
  0.905318975       1.01434398       0.00000000       5095.13330      -1.56892920    
  0.904204011       1.01322901     -0.303456992       5095.13330      -1.56892920    
  0.905318975       1.01434398       0.00000000       4543.32373      -1.56972492    
  0.782918990       1.11479497       0.00000000       4543.32373      -1.56972492    
  0.780644000       1.11195600     -0.303485006       4543.32373      -1.56972492    
  0.904204011       1.01322901     -0.303456992       4543.32373      -1.56972492    
  0.780644000       1.11195600     -0.303485006       3303.00879      -1.56980741    
  0.645825028       1.19414902     -0.303514004       3303.00879      -1.56980741    
  0.646153986       1.19492805     -0.606999993       3303.00879      -1.56980741    
  0.782611012       1.11504900     -0.606999993       3303.00879      -1.56980741    
  0.780644000       1.11195600     -0.303485006       3955.08276      -1.56842470    
  0.782611012       1.11504900     -0.606999993       3955.08276      -1.56842470    
  0.905143023       1.01448905     -0.606999993       3955.08276      -1.56842470    
  0.904204011       1.01322901     -0.303456992       3955.08276      -1.56842470    
  0.780644000       1.11195600     -0.303485006       3816.01758      -1.57101035    
  0.782918990       1.11479497       0.00000000       3816.01758      -1.57101035    
  0.646345019       1.19482601       0.00000000       3816.01758      -1.57101035    
  0.645825028       1.19414902     -0.303514004       3816.01758      -1.57101035    
  0.646345019       1.19482601       0.00000000       2847.16260      -1.57356369    
  0.504974008       1.26637006       0.00000000       2847.16260      -1.57356369    
  0.503772974       1.26314998     -0.303521991       2847.16260      -1.57356369    
  0.645825028       1.19414902     -0.303514004       2847.16260      -1.57356369    
  0.503772974       1.26314998     -0.303521991       1874.69739      -1.57635975    
  0.353130996       1.31116498     -0.303510994       1874.69739      -1.57635975    
  0.353300005       1.31237996     -0.606999993       1874.69739      -1.57635975    
  0.505183995       1.26630700     -0.606999993       1874.69739      -1.57635975    
  0.503772974       1.26314998     -0.303521991       2597.13770      -1.57214284    
  0.505183995       1.26630700     -0.606999993       2597.13770      -1.57214284    
  0.646153986       1.19492805     -0.606999993       2597.13770      -1.57214284    
  0.645825028       1.19414902     -0.303514004       2597.13770      -1.57214284    
  0.503772974       1.26314998     -0.303521991       2002.89148      -1.57801628    
  0.504974008       1.26637006       0.00000000       2002.89148      -1.57801628    
  0.353493989       1.31232095       0.00000000       2002.89148      -1.57801628    
  0.353130996       1.31116498     -0.303510994       2002.89148      -1.57801628    
  0.353493989       1.31232095       0.00000000       1102.20447      -1.59038377    
  0.199064001       1.34539402       0.00000000       1102.20447      -1.59038377    
  0.198755994       1.34360003     -0.303496003       1102.20447      -1.59038377    
  0.353130996       1.31116498     -0.303510994       1102.20447      -1.59038377    
  0.198755994       1.34360003     -0.303496003       149.156967      -1.74711525    
   4.12769988E-02   1.35817802     -0.303508013       149.156967      -1.74711525    
   4.12410013E-02   1.36093795     -0.606999993       149.156967      -1.74711525    
  0.199025005       1.34539795     -0.606999993       149.156967      -1.74711525    
  0.198755994       1.34360003     -0.303496003       1091.89819      -1.58720541    
  0.199025005       1.34539795     -0.606999993       1091.89819      -1.58720541    
  0.353300005       1.31237996     -0.606999993       1091.89819      -1.58720541    
  0.353130996       1.31116498     -0.303510994       1091.89819      -1.58720541    
  0.198755994       1.34360003     -0.303496003       186.447723      -1.72616994    
  0.199064001       1.34539402       0.00000000       186.447723      -1.72616994    
   4.17769998E-02   1.36088502       0.00000000       186.447723      -1.72616994    
   4.12769988E-02   1.35817802     -0.303508013       186.447723      -1.72616994    
   4.17769998E-02   1.36088502       0.00000000       709.922729       1.62179565    
 -0.116410002       1.35353506       0.00000000       709.922729       1.62179565    
 -0.116471998       1.35271096     -0.303496987       709.922729       1.62179565    
   4.12769988E-02   1.35817802     -0.303508013       709.922729       1.62179565    
 -0.116471998       1.35271096     -0.303496987       1525.39514       1.59828031    
 -0.273027003       1.33229196     -0.303496003       1525.39514       1.59828031    
 -0.273876995       1.33647299     -0.606999993       1525.39514       1.59828031    
 -0.116722003       1.35350394     -0.606999993       1525.39514       1.59828031    
 -0.116471998       1.35271096     -0.303496987       655.707031       1.62239313    
 -0.116722003       1.35350394     -0.606999993       655.707031       1.62239313    
   4.12410013E-02   1.36093795     -0.606999993       655.707031       1.62239313    
   4.12769988E-02   1.35817802     -0.303508013       655.707031       1.62239313    
 -0.116471998       1.35271096     -0.303496987       1642.79822       1.59742856    
 -0.116410002       1.35353506       0.00000000       1642.79822       1.59742856    
 -0.274069011       1.33641505       0.00000000       1642.79822       1.59742856    
 -0.273027003       1.33229196     -0.303496003       1642.79822       1.59742856    
 -0.274069011       1.33641505       0.00000000       2526.31421       1.59090722    
 -0.425588995       1.29045200       0.00000000       2526.31421       1.59090722    
 -0.425258011       1.28953803     -0.303507000       2526.31421       1.59090722    
 -0.273027003       1.33229196     -0.303496003       2526.31421       1.59090722    
 -0.425258011       1.28953803     -0.303507000       3076.18335       1.58923876    
 -0.572302997       1.23206902     -0.303485990       3076.18335       1.58923876    
 -0.573064029       1.23399496     -0.606999993       3076.18335       1.58923876    
 -0.425651014       1.29043305     -0.606999993       3076.18335       1.58923876    
 -0.425258011       1.28953803     -0.303507000       2299.28540       1.59224653    
 -0.425651014       1.29043305     -0.606999993       2299.28540       1.59224653    
 -0.273876995       1.33647299     -0.606999993       2299.28540       1.59224653    
 -0.273027003       1.33229196     -0.303496003       2299.28540       1.59224653    
 -0.425258011       1.28953803     -0.303507000       3417.49316       1.58768463    
 -0.425588995       1.29045200       0.00000000       3417.49316       1.58768463    
 -0.573195994       1.23392498       0.00000000       3417.49316       1.58768463    
 -0.572302997       1.23206902     -0.303485990       3417.49316       1.58768463    
 -0.573195994       1.23392498       0.00000000       4257.92432       1.58589566    
 -0.712655008       1.15938199       0.00000000       4257.92432       1.58589566    
 -0.711889029       1.15749002     -0.303496003       4257.92432       1.58589566    
 -0.572302997       1.23206902     -0.303485990       4257.92432       1.58589566    
 -0.711889029       1.15749002     -0.303496003       4458.90332       1.58654678    
 -0.840825975       1.06629205     -0.303485990       4458.90332       1.58654678    
 -0.841368973       1.06682706     -0.606999993       4458.90332       1.58654678    
 -0.712980986       1.15920806     -0.606999993       4458.90332       1.58654678    
 -0.711889029       1.15749002     -0.303496003       3777.08374       1.58764946    
 -0.712980986       1.15920806     -0.606999993       3777.08374       1.58764946    
 -0.573064029       1.23399496     -0.606999993       3777.08374       1.58764946    
 -0.572302997       1.23206902     -0.303485990       3777.08374       1.58764946    
 -0.711889029       1.15749002     -0.303496003       5031.06885       1.58478606    
 -0.712655008       1.15938199       0.00000000       5031.06885       1.58478606    
 -0.841165006       1.06699395       0.00000000       5031.06885       1.58478606    
 -0.840825975       1.06629205     -0.303485990       5031.06885       1.58478606    
 -0.841165006       1.06699395       0.00000000       5757.60352       1.58405745    
 -0.963320017      0.966744006       0.00000000       5757.60352       1.58405745    
 -0.960084975      0.962615013     -0.303470999       5757.60352       1.58405745    
 -0.840825975       1.06629205     -0.303485990       5757.60352       1.58405745    
 -0.960084975      0.962615013     -0.303470999       5665.80273       1.58526158    
  -1.06383705      0.843237996     -0.303481996       5665.80273       1.58526158    
  -1.06481802      0.843816996     -0.606999993       5665.80273       1.58526158    
 -0.963873982      0.966289997     -0.606999993       5665.80273       1.58526158    
 -0.960084975      0.962615013     -0.303470999       5102.92822       1.58578610    
 -0.963873982      0.966289997     -0.606999993       5102.92822       1.58578610    
 -0.841368973       1.06682706     -0.606999993       5102.92822       1.58578610    
 -0.840825975       1.06629205     -0.303485990       5102.92822       1.58578610    
 -0.960084975      0.962615013     -0.303470999       6417.97461       1.58352983    
 -0.963320017      0.966744006       0.00000000       6417.97461       1.58352983    
  -1.06464398      0.844029009       0.00000000       6417.97461       1.58352983    
  -1.06383705      0.843237996     -0.303481996       6417.97461       1.58352983    
  -1.06464398      0.844029009       0.00000000       6994.68213       1.58317447    
  -1.15769398      0.715813994       0.00000000       6994.68213       1.58317447    
  -1.15564799      0.714680016     -0.303483993       6994.68213       1.58317447    
  -1.06383705      0.843237996     -0.303481996       6994.68213       1.58317447    
  -1.15564799      0.714680016     -0.303483993       6610.00635       1.58462644    
  -1.23108304      0.575536013     -0.303514004       6610.00635       1.58462644    
  -1.23232996      0.576179981     -0.606999993       6610.00635       1.58462644    
  -1.15756094      0.716063023     -0.606999993       6610.00635       1.58462644    
  -1.15564799      0.714680016     -0.303483993       6171.37012       1.58489180    
  -1.15756094      0.716063023     -0.606999993       6171.37012       1.58489180    
  -1.06481802      0.843816996     -0.606999993       6171.37012       1.58489180    
  -1.06383705      0.843237996     -0.303481996       6171.37012       1.58489180    
  -1.15564799      0.714680016     -0.303483993       7492.61865       1.58295465    
  -1.15769398      0.715813994       0.00000000       7492.61865       1.58295465    
  -1.23224795      0.576331973       0.00000000       7492.61865       1.58295465    
  -1.23108304      0.575536013     -0.303514004       7492.61865       1.58295465    
  -1.23224795      0.576331973       0.00000000       7888.62744       1.58279872    
  -1.28948605      0.428772002       0.00000000       7888.62744       1.58279872    
  -1.28842103      0.428404987     -0.303512990       7888.62744       1.58279872    
  -1.23108304      0.575536013     -0.303514004       7888.62744       1.58279872    
  -1.28842103      0.428404987     -0.303512990       7003.31934       1.58468366    
  -1.33082402      0.275959998     -0.303492010       7003.31934       1.58468366    
  -1.33550000      0.277083993     -0.606999993       7003.31934       1.58468366    