 VARIABLES="X" "Y" "Z" "abs(p) (Pa)" "angle(p) (rad)"
ZONE N=   2720,E =    2069, F=FEPOINT, ET=QUADRILATERAL
 -0.767116010      -1.12776399       0.00000000       4785.18115      -2.80189633    
 -0.769354999      -1.12002099     -0.303523988       4785.18115      -2.80189633    
 -0.896136999      -1.02028203     -0.303463012       4785.18115      -2.80189633    
 -0.894908011      -1.02288902       0.00000000       4785.18115      -2.80189633    
 -0.767116010      -1.12776399       0.00000000       4856.82959      -2.77479076    
 -0.630888999      -1.20308697       0.00000000       4856.82959      -2.77479076    
 -0.635528028      -1.19958198     -0.303541005       4856.82959      -2.77479076    
 -0.769354999      -1.12002099     -0.303523988       4856.82959      -2.77479076    
 -0.635528028      -1.19958198     -0.303541005       4958.95996      -2.74433613    
 -0.495362997      -1.26606500     -0.303519011       4958.95996      -2.74433613    
 -0.499298006      -1.26809204     -0.606999993       4958.95996      -2.74433613    
 -0.640147984      -1.19813800     -0.606998026       4958.95996      -2.74433613    
 -0.635528028      -1.19958198     -0.303541005       4898.02979      -2.76870918    
 -0.640147984      -1.19813800     -0.606998026       4898.02979      -2.76870918    
 -0.777105987      -1.11956596     -0.606999993       4898.02979      -2.76870918    
 -0.769354999      -1.12002099     -0.303523988       4898.02979      -2.76870918    
 -0.635528028      -1.19958198     -0.303541005       4921.73730      -2.74945736    
 -0.630888999      -1.20308697       0.00000000       4921.73730      -2.74945736    
 -0.494486004      -1.26955199       0.00000000       4921.73730      -2.74945736    
 -0.495362997      -1.26606500     -0.303519011       4921.73730      -2.74945736    
 -0.494486004      -1.26955199       0.00000000       4998.35742      -2.72025585    
 -0.346311986      -1.31449997       0.00000000       4998.35742      -2.72025585    
 -0.346753001      -1.31307304     -0.303510010       4998.35742      -2.72025585    
 -0.495362997      -1.26606500     -0.303519011       4998.35742      -2.72025585    
 -0.346753001      -1.31307304     -0.303510010       5087.80908      -2.69141984    
 -0.193608001      -1.34425998     -0.303494990       5087.80908      -2.69141984    
 -0.195028007      -1.34579206     -0.606999993       5087.80908      -2.69141984    
 -0.348751009      -1.31376004     -0.606999993       5087.80908      -2.69141984    
 -0.346753001      -1.31307304     -0.303510010       5024.06396      -2.71819925    
 -0.348751009      -1.31376004     -0.606999993       5024.06396      -2.71819925    
 -0.499298006      -1.26809204     -0.606999993       5024.06396      -2.71819925    
 -0.495362997      -1.26606500     -0.303519011       5024.06396      -2.71819925    
 -0.346753001      -1.31307304     -0.303510010       5075.57861      -2.69024682    
 -0.346311986      -1.31449997       0.00000000       5075.57861      -2.69024682    
 -0.193381995      -1.34595394       0.00000000       5075.57861      -2.69024682    
 -0.193608001      -1.34425998     -0.303494990       5075.57861      -2.69024682    
 -0.193381995      -1.34595394       0.00000000       5159.29004      -2.65797353    
  -3.75179984E-02  -1.36130500       0.00000000       5159.29004      -2.65797353    
  -3.73950005E-02  -1.35827899     -0.303512007       5159.29004      -2.65797353    
 -0.193608001      -1.34425998     -0.303494990       5159.29004      -2.65797353    
  -3.73950005E-02  -1.35827899     -0.303512007       5216.49170      -2.63658166    
  0.119547002      -1.35239303     -0.303498000       5216.49170      -2.63658166    
  0.119135000      -1.35326600     -0.606999993       5216.49170      -2.63658166    
  -3.82840000E-02  -1.36122894     -0.606998980       5216.49170      -2.63658166    
  -3.73950005E-02  -1.35827899     -0.303512007       5152.27002      -2.66446209    
  -3.82840000E-02  -1.36122894     -0.606998980       5152.27002      -2.66446209    
 -0.195028007      -1.34579206     -0.606999993       5152.27002      -2.66446209    
 -0.193608001      -1.34425998     -0.303494990       5152.27002      -2.66446209    
  -3.73950005E-02  -1.35827899     -0.303512007       5234.70215      -2.62700176    
  -3.75179984E-02  -1.36130500       0.00000000       5234.70215      -2.62700176    
  0.119788997      -1.35320199       0.00000000       5234.70215      -2.62700176    
  0.119547002      -1.35239303     -0.303498000       5234.70215      -2.62700176    
  0.119788997      -1.35320199       0.00000000       5306.22949      -2.59693813    
  0.276576012      -1.33565402       0.00000000       5306.22949      -2.59693813    
  0.275435001      -1.33191597     -0.303496003       5306.22949      -2.59693813    
  0.119547002      -1.35239303     -0.303498000       5306.22949      -2.59693813    
  0.275435001      -1.33191597     -0.303496003       5345.72510      -2.58136058    
  0.427076995      -1.28898001     -0.303507000       5345.72510      -2.58136058    
  0.427242011      -1.28995001     -0.606999993       5345.72510      -2.58136058    
  0.275831014      -1.33588004     -0.606999993       5345.72510      -2.58136058    
  0.275435001      -1.33191597     -0.303496003       5284.18848      -2.60869312    
  0.275831014      -1.33588004     -0.606999993       5284.18848      -2.60869312    
  0.119135000      -1.35326600     -0.606999993       5284.18848      -2.60869312    
  0.119547002      -1.35239303     -0.303498000       5284.18848      -2.60869312    
  0.275435001      -1.33191597     -0.303496003       5378.76904      -2.56655049    
  0.276576012      -1.33565402       0.00000000       5378.76904      -2.56655049    
  0.427509993      -1.28986895       0.00000000       5378.76904      -2.56655049    
  0.427076995      -1.28898001     -0.303507000       5378.76904      -2.56655049    
  0.427509993      -1.28986895       0.00000000       5445.15674      -2.53763151    
  0.574636996      -1.23315501       0.00000000       5445.15674      -2.53763151    
  0.573706985      -1.23136795     -0.303485990       5445.15674      -2.53763151    
  0.427076995      -1.28898001     -0.303507000       5445.15674      -2.53763151    
  0.573706985      -1.23136795     -0.303485990       5453.65186      -2.53066278    
  0.712854981      -1.15688002     -0.303496987       5453.65186      -2.53066278    
  0.713809013      -1.15876603     -0.606999993       5453.65186      -2.53066278    
  0.574283004      -1.23334301     -0.606999993       5453.65186      -2.53066278    
  0.573706985      -1.23136795     -0.303485990       5400.18115      -2.55549192    
  0.574283004      -1.23334301     -0.606999993       5400.18115      -2.55549192    
  0.427242011      -1.28995001     -0.606999993       5400.18115      -2.55549192    
  0.427076995      -1.28898001     -0.303507000       5400.18115      -2.55549192    
  0.573706985      -1.23136795     -0.303485990       5507.99219      -2.50986695    
  0.574636996      -1.23315501       0.00000000       5507.99219      -2.50986695    
  0.713741004      -1.15880203       0.00000000       5507.99219      -2.50986695    
  0.712854981      -1.15688002     -0.303496987       5507.99219      -2.50986695    
  0.713741004      -1.15880203       0.00000000       5566.41846      -2.48402691    
  0.841937006      -1.06636095       0.00000000       5566.41846      -2.48402691    
  0.841498017      -1.06573403     -0.303485990       5566.41846      -2.48402691    
  0.712854981      -1.15688002     -0.303496987       5566.41846      -2.48402691    
  0.841498017      -1.06573403     -0.303485990       5548.52490      -2.48605180    
  0.960639000     -0.962104976     -0.303470999       5548.52490      -2.48605180    
  0.964356005     -0.965893984     -0.606999993       5548.52490      -2.48605180    
  0.841796994      -1.06647599     -0.606999993       5548.52490      -2.48605180    
  0.841498017      -1.06573403     -0.303485990       5503.50977      -2.50712967    
  0.841796994      -1.06647599     -0.606999993       5503.50977      -2.50712967    
  0.713809013      -1.15876603     -0.606999993       5503.50977      -2.50712967    
  0.712854981      -1.15688002     -0.303496987       5503.50977      -2.50712967    
  0.841498017      -1.06573403     -0.303485990       5617.87939      -2.46115398    
  0.841937006      -1.06636095       0.00000000       5617.87939      -2.46115398    
  0.963932991     -0.966242015       0.00000000       5617.87939      -2.46115398    
  0.960639000     -0.962104976     -0.303470999       5617.87939      -2.46115398    
  0.963932991     -0.966242015       0.00000000       5666.65674      -2.43954968    
   1.06506598     -0.843514979       0.00000000       5666.65674      -2.43954968    
   1.06428695     -0.842682004     -0.303481996       5666.65674      -2.43954968    
  0.960639000     -0.962104976     -0.303470999       5666.65674      -2.43954968    
   1.06428695     -0.842682004     -0.303481996       5615.02197      -2.45040870    
   1.15591598     -0.714210987     -0.303485006       5615.02197      -2.45040870    
   1.15788805     -0.715448976     -0.606999993       5615.02197      -2.45040870    
   1.06537795     -0.843134999     -0.606999993       5615.02197      -2.45040870    
   1.06428695     -0.842682004     -0.303481996       5588.83594      -2.46645260    
   1.06537795     -0.843134999     -0.606999993       5588.83594      -2.46645260    
  0.964356005     -0.965893984     -0.606999993       5588.83594      -2.46645260    
  0.960639000     -0.962104976     -0.303470999       5588.83594      -2.46645260    
   1.06428695     -0.842682004     -0.303481996       5703.90576      -2.42114687    
   1.06506598     -0.843514979       0.00000000       5703.90576      -2.42114687    
   1.15792501     -0.715381980       0.00000000       5703.90576      -2.42114687    
   1.15591598     -0.714210987     -0.303485006       5703.90576      -2.42114687    
   1.15792501     -0.715381980       0.00000000       5741.53857      -2.40536594    
   1.23237598     -0.576093972       0.00000000       5741.53857      -2.40536594    
   1.23120904     -0.575251997     -0.303514004       5741.53857      -2.40536594    
   1.15591598     -0.714210987     -0.303485006       5741.53857      -2.40536594    
   1.23120904     -0.575251997     -0.303514004       5666.34131      -2.42441297    
   1.28844094     -0.428344995     -0.303512990       5666.34131      -2.42441297    
   1.28952503     -0.428642988     -0.606999993       5666.34131      -2.42441297    
   1.23252702     -0.575810015     -0.606999993       5666.34131      -2.42441297    
   1.23120904     -0.575251997     -0.303514004       5644.36475      -2.43596983    
   1.23252702     -0.575810015     -0.606999993       5644.36475      -2.43596983    
   1.15788805     -0.715448976     -0.606999993       5644.36475      -2.43596983    
   1.15591598     -0.714210987     -0.303485006       5644.36475      -2.43596983    
   1.23120904     -0.575251997     -0.303514004       5766.29932      -2.39362550    
   1.23237598     -0.576093972       0.00000000       5766.29932      -2.39362550    
   1.28947699     -0.428801000       0.00000000       5766.29932      -2.39362550    
   1.28844094     -0.428344995     -0.303512990       5766.29932      -2.39362550    
   1.28947699     -0.428801000       0.00000000       5791.99414      -2.38312650    
   1.33532202     -0.277671993       0.00000000       5791.99414      -2.38312650    
   1.33076501     -0.276203990     -0.303492010       5791.99414      -2.38312650    
   1.28844094     -0.428344995     -0.303512990       5791.99414      -2.38312650    
   1.33076501     -0.276203990     -0.303492010       5688.67529      -2.41187167    
   1.35229194     -0.119709998     -0.303514004       5688.67529      -2.41187167    
   1.35321999     -0.119608998     -0.606999993       5688.67529      -2.41187167    
   1.33549094     -0.277112991     -0.606999993       5688.67529      -2.41187167    
   1.33076501     -0.276203990     -0.303492010       5684.91064      -2.41583872    
   1.33549094     -0.277112991     -0.606999993       5684.91064      -2.41583872    
   1.28952503     -0.428642988     -0.606999993       5684.91064      -2.41583872    
   1.28844094     -0.428344995     -0.303512990       5684.91064      -2.41583872    
   1.33076501     -0.276203990     -0.303492010       5811.04346      -2.37604594    
   1.33532202     -0.277671993       0.00000000       5811.04346      -2.37604594    
   1.35319102     -0.119900003       0.00000000       5811.04346      -2.37604594    
   1.35229194     -0.119709998     -0.303514004       5811.04346      -2.37604594    
   1.35319102     -0.119900003       0.00000000       5817.28711      -2.37361884    
   1.36124396       3.81390005E-02   0.00000000       5817.28711      -2.37361884    
   1.35858905       3.79349999E-02 -0.303501010       5817.28711      -2.37361884    
   1.35229194     -0.119709998     -0.303514004       5817.28711      -2.37361884    
   1.35858905       3.79349999E-02 -0.303501010       5698.26709      -2.40929246    
   1.34464097      0.195331007     -0.303496003       5698.26709      -2.40929246    
   1.34573400      0.195616007     -0.606999993       5698.26709      -2.40929246    
   1.36126804       3.78950015E-02 -0.606999993       5698.26709      -2.40929246    
   1.35858905       3.79349999E-02 -0.303501010       5698.34619      -2.40861893    
   1.36126804       3.78950015E-02 -0.606999993       5698.34619      -2.40861893    
   1.35321999     -0.119608998     -0.606999993       5698.34619      -2.40861893    
   1.35229194     -0.119709998     -0.303514004       5698.34619      -2.40861893    
   1.35858905       3.79349999E-02 -0.303501010       5809.13477      -2.37598443    
   1.36124396       3.81390005E-02   0.00000000       5809.13477      -2.37598443    
   1.34575403      0.195406005       0.00000000       5809.13477      -2.37598443    
   1.34464097      0.195331007     -0.303496003       5809.13477      -2.37598443    
   1.34575403      0.195406005       0.00000000       5800.87402      -2.38051796    
   1.31339800      0.349945009       0.00000000       5800.87402      -2.38051796    
   1.31216300      0.349725991     -0.303487003       5800.87402      -2.38051796    
   1.34464097      0.195331007     -0.303496003       5800.87402      -2.38051796    
   1.31216300      0.349725991     -0.303487003       5681.75049      -2.41962004    
   1.26341999      0.500032008     -0.303494006       5681.75049      -2.41962004    
   1.26736605      0.501691997     -0.606999993       5681.75049      -2.41962004    
   1.31333196      0.350163996     -0.606999993       5681.75049      -2.41962004    
   1.31216300      0.349725991     -0.303487003       5690.12891      -2.41323018    
   1.31333196      0.350163996     -0.606999993       5690.12891      -2.41323018    
   1.34573400      0.195616007     -0.606999993       5690.12891      -2.41323018    
   1.34464097      0.195331007     -0.303496003       5690.12891      -2.41323018    
   1.31216300      0.349725991     -0.303487003       5786.73389      -2.38814783    
   1.31339800      0.349945009       0.00000000       5786.73389      -2.38814783    
   1.26751196      0.501209974       0.00000000       5786.73389      -2.38814783    
   1.26341999      0.500032008     -0.303494006       5786.73389      -2.38814783    
   1.26751196      0.501209974       0.00000000       5770.83691      -2.39745164    
   1.19658697      0.643051028       0.00000000       5770.83691      -2.39745164    
   1.19583094      0.642783999     -0.303505003       5770.83691      -2.39745164    
   1.26341999      0.500032008     -0.303494006       5770.83691      -2.39745164    
   1.19583094      0.642783999     -0.303505003       5628.14941      -2.44323874    
   1.11495602      0.778467000     -0.303483993       5628.14941      -2.44323874    
   1.11731696      0.779847026     -0.606999993       5628.14941      -2.44323874    
   1.19653296      0.643149972     -0.606999993       5628.14941      -2.44323874    
   1.19583094      0.642783999     -0.303505003       5662.01221      -2.42960477    
   1.19653296      0.643149972     -0.606999993       5662.01221      -2.42960477    
   1.26736605      0.501691997     -0.606999993       5662.01221      -2.42960477    
   1.26341999      0.500032008     -0.303494006       5662.01221      -2.42960477    
   1.19583094      0.642783999     -0.303505003       5738.39160      -2.41117287    
   1.19658697      0.643051028       0.00000000       5738.39160      -2.41117287    
   1.11705506      0.780165970       0.00000000       5738.39160      -2.41117287    
   1.11495602      0.778467000     -0.303483993       5738.39160      -2.41117287    
   1.11705506      0.780165970       0.00000000       5698.07910      -2.42827725    
   1.01674199      0.902397990       0.00000000       5698.07910      -2.42827725    
   1.01591504      0.901737988     -0.303478003       5698.07910      -2.42827725    
   1.11495602      0.778467000     -0.303483993       5698.07910      -2.42827725    
   1.01591504      0.901737988     -0.303478003       5565.03027      -2.47544074    
  0.904204011       1.01322901     -0.303456992       5565.03027      -2.47544074    
  0.905143023       1.01448905     -0.606999993       5565.03027      -2.47544074    
   1.01659799      0.902572989     -0.606999993       5565.03027      -2.47544074    
   1.01591504      0.901737988     -0.303478003       5603.02344      -2.45743489    
   1.01659799      0.902572989     -0.606999993       5603.02344      -2.45743489    
   1.11731696      0.779847026     -0.606999993       5603.02344      -2.45743489    
   1.11495602      0.778467000     -0.303483993       5603.02344      -2.45743489    
   1.01591504      0.901737988     -0.303478003       5651.20312      -2.44823217    
   1.01674199      0.902397990       0.00000000       5651.20312      -2.44823217    
  0.905318975       1.01434398       0.00000000       5651.20312      -2.44823217    
  0.904204011       1.01322901     -0.303456992       5651.20312      -2.44823217    
  0.905318975       1.01434398       0.00000000       5592.40137      -2.47165728    
  0.782918990       1.11479497       0.00000000       5592.40137      -2.47165728    
  0.780644000       1.11195600     -0.303485006       5592.40137      -2.47165728    
  0.904204011       1.01322901     -0.303456992       5592.40137      -2.47165728    
  0.780644000       1.11195600     -0.303485006       5476.54541      -2.51819730    
  0.645825028       1.19414902     -0.303514004       5476.54541      -2.51819730    
  0.646153986       1.19492805     -0.606999993       5476.54541      -2.51819730    
  0.782611012       1.11504900     -0.606999993       5476.54541      -2.51819730    
  0.780644000       1.11195600     -0.303485006       5524.47461      -2.49570084    
  0.782611012       1.11504900     -0.606999993       5524.47461      -2.49570084    
  0.905143023       1.01448905     -0.606999993       5524.47461      -2.49570084    
  0.904204011       1.01322901     -0.303456992       5524.47461      -2.49570084    
  0.780644000       1.11195600     -0.303485006       5534.30957      -2.49696589    
  0.782918990       1.11479497       0.00000000       5534.30957      -2.49696589    
  0.646345019       1.19482601       0.00000000       5534.30957      -2.49696589    
  0.645825028       1.19414902     -0.303514004       5534.30957      -2.49696589    
  0.646345019       1.19482601       0.00000000       5483.78223      -2.52214026    
  0.504974008       1.26637006       0.00000000       5483.78223      -2.52214026    
  0.503772974       1.26314998     -0.303521991       5483.78223      -2.52214026    
  0.645825028       1.19414902     -0.303514004       5483.78223      -2.52214026    
  0.503772974       1.26314998     -0.303521991       5369.70020      -2.56779814    
  0.353130996       1.31116498     -0.303510994       5369.70020      -2.56779814    
  0.353300005       1.31237996     -0.606999993       5369.70020      -2.56779814    
  0.505183995       1.26630700     -0.606999993       5369.70020      -2.56779814    
  0.503772974       1.26314998     -0.303521991       5426.31299      -2.54195833    
  0.505183995       1.26630700     -0.606999993       5426.31299      -2.54195833    
  0.646153986       1.19492805     -0.606999993       5426.31299      -2.54195833    
  0.645825028       1.19414902     -0.303514004       5426.31299      -2.54195833    
  0.503772974       1.26314998     -0.303521991       5416.31592      -2.55079937    
  0.504974008       1.26637006       0.00000000       5416.31592      -2.55079937    
  0.353493989       1.31232095       0.00000000       5416.31592      -2.55079937    
  0.353130996       1.31116498     -0.303510994       5416.31592      -2.55079937    
  0.353493989       1.31232095       0.00000000       5346.34912      -2.58021235    
  0.199064001       1.34539402       0.00000000       5346.34912      -2.58021235    
  0.198755994       1.34360003     -0.303496003       5346.34912      -2.58021235    
  0.353130996       1.31116498     -0.303510994       5346.34912      -2.58021235    
  0.198755994       1.34360003     -0.303496003       5258.16309      -2.61980915    
   4.12769988E-02   1.35817802     -0.303508013       5258.16309      -2.61980915    
   4.12410013E-02   1.36093795     -0.606999993       5258.16309      -2.61980915    
  0.199025005       1.34539795     -0.606999993       5258.16309      -2.61980915    
  0.198755994       1.34360003     -0.303496003       5310.53760      -2.59411240    
  0.199025005       1.34539795     -0.606999993       5310.53760      -2.59411240    
  0.353300005       1.31237996     -0.606999993       5310.53760      -2.59411240    
  0.353130996       1.31116498     -0.303510994       5310.53760      -2.59411240    
  0.198755994       1.34360003     -0.303496003       5273.04004      -2.61047673    
  0.199064001       1.34539402       0.00000000       5273.04004      -2.61047673    
   4.17769998E-02   1.36088502       0.00000000       5273.04004      -2.61047673    
   4.12769988E-02   1.35817802     -0.303508013       5273.04004      -2.61047673    
   4.17769998E-02   1.36088502       0.00000000       5197.66504      -2.64142561    
 -0.116410002       1.35353506       0.00000000       5197.66504      -2.64142561    
 -0.116471998       1.35271096     -0.303496987       5197.66504      -2.64142561    
   4.12769988E-02   1.35817802     -0.303508013       5197.66504      -2.64142561    
 -0.116471998       1.35271096     -0.303496987       5133.29395      -2.67368793    
 -0.273027003       1.33229196     -0.303496003       5133.29395      -2.67368793    
 -0.273876995       1.33647299     -0.606999993       5133.29395      -2.67368793    
 -0.116722003       1.35350394     -0.606999993       5133.29395      -2.67368793    
 -0.116471998       1.35271096     -0.303496987       5193.47998      -2.64746523    
 -0.116722003       1.35350394     -0.606999993       5193.47998      -2.64746523    
   4.12410013E-02   1.36093795     -0.606999993       5193.47998      -2.64746523    
   4.12769988E-02   1.35817802     -0.303508013       5193.47998      -2.64746523    
 -0.116471998       1.35271096     -0.303496987       5123.89941      -2.67210579    
 -0.116410002       1.35353506       0.00000000       5123.89941      -2.67210579    
 -0.274069011       1.33641505       0.00000000       5123.89941      -2.67210579    
 -0.273027003       1.33229196     -0.303496003       5123.89941      -2.67210579    
 -0.274069011       1.33641505       0.00000000       5044.54346      -2.70324588    
 -0.425588995       1.29045200       0.00000000       5044.54346      -2.70324588    
 -0.425258011       1.28953803     -0.303507000       5044.54346      -2.70324588    
 -0.273027003       1.33229196     -0.303496003       5044.54346      -2.70324588    
 -0.425258011       1.28953803     -0.303507000       4999.52295      -2.72740555    
 -0.572302997       1.23206902     -0.303485990       4999.52295      -2.72740555    
 -0.573064029       1.23399496     -0.606999993       4999.52295      -2.72740555    
 -0.425651014       1.29043305     -0.606999993       4999.52295      -2.72740555    
 -0.425258011       1.28953803     -0.303507000       5065.85205      -2.70133495    
 -0.425651014       1.29043305     -0.606999993       5065.85205      -2.70133495    
 -0.273876995       1.33647299     -0.606999993       5065.85205      -2.70133495    
 -0.273027003       1.33229196     -0.303496003       5065.85205      -2.70133495    
 -0.425258011       1.28953803     -0.303507000       4964.96045      -2.73294830    
 -0.425588995       1.29045200       0.00000000       4964.96045      -2.73294830    
 -0.573195994       1.23392498       0.00000000       4964.96045      -2.73294830    
 -0.572302997       1.23206902     -0.303485990       4964.96045      -2.73294830    
 -0.573195994       1.23392498       0.00000000       4886.44580      -2.76202488    
 -0.712655008       1.15938199       0.00000000       4886.44580      -2.76202488    
 -0.711889029       1.15749002     -0.303496003       4886.44580      -2.76202488    
 -0.572302997       1.23206902     -0.303485990       4886.44580      -2.76202488    
 -0.711889029       1.15749002     -0.303496003       4871.53125      -2.77742076    
 -0.840825975       1.06629205     -0.303485990       4871.53125      -2.77742076    
 -0.841368973       1.06682706     -0.606999993       4871.53125      -2.77742076    
 -0.712980986       1.15920806     -0.606999993       4871.53125      -2.77742076    
 -0.711889029       1.15749002     -0.303496003       4934.18213      -2.75333118    
 -0.712980986       1.15920806     -0.606999993       4934.18213      -2.75333118    
 -0.573064029       1.23399496     -0.606999993       4934.18213      -2.75333118    
 -0.572302997       1.23206902     -0.303485990       4934.18213      -2.75333118    
 -0.711889029       1.15749002     -0.303496003       4809.34863      -2.78940773    
 -0.712655008       1.15938199       0.00000000       4809.34863      -2.78940773    
 -0.841165006       1.06699395       0.00000000       4809.34863      -2.78940773    
 -0.840825975       1.06629205     -0.303485990       4809.34863      -2.78940773    
 -0.841165006       1.06699395       0.00000000       4741.01660      -2.81481791    
 -0.963320017      0.966744006       0.00000000       4741.01660      -2.81481791    
 -0.960084975      0.962615013     -0.303470999       4741.01660      -2.81481791    
 -0.840825975       1.06629205     -0.303485990       4741.01660      -2.81481791    
 -0.960084975      0.962615013     -0.303470999       4762.85205      -2.82046556    
  -1.06383705      0.843237996     -0.303481996       4762.85205      -2.82046556    
  -1.06481802      0.843816996     -0.606999993       4762.85205      -2.82046556    
 -0.963873982      0.966289997     -0.606999993       4762.85205      -2.82046556    
 -0.960084975      0.962615013     -0.303470999       4816.03027      -2.79984117    
 -0.963873982      0.966289997     -0.606999993       4816.03027      -2.79984117    
 -0.841368973       1.06682706     -0.606999993       4816.03027      -2.79984117    
 -0.840825975       1.06629205     -0.303485990       4816.03027      -2.79984117    
 -0.960084975      0.962615013     -0.303470999       4680.23291      -2.83806324    
 -0.963320017      0.966744006       0.00000000       4680.23291      -2.83806324    
  -1.06464398      0.844029009       0.00000000       4680.23291      -2.83806324    
  -1.06383705      0.843237996     -0.303481996       4680.23291      -2.83806324    
  -1.06464398      0.844029009       0.00000000       4627.75293      -2.85814667    
  -1.15769398      0.715813994       0.00000000       4627.75293      -2.85814667    
  -1.15564799      0.714680016     -0.303483993       4627.75293      -2.85814667    
  -1.06383705      0.843237996     -0.303481996       4627.75293      -2.85814667    
  -1.15564799      0.714680016     -0.303483993       4677.15527      -2.85279369    
  -1.23108304      0.575536013     -0.303514004       4677.15527      -2.85279369    
  -1.23232996      0.576179981     -0.606999993       4677.15527      -2.85279369    
  -1.15756094      0.716063023     -0.606999993       4677.15527      -2.85279369    
  -1.15564799      0.714680016     -0.303483993       4716.40771      -2.83777618    
  -1.15756094      0.716063023     -0.606999993       4716.40771      -2.83777618    
  -1.06481802      0.843816996     -0.606999993       4716.40771      -2.83777618    
  -1.06383705      0.843237996     -0.303481996       4716.40771      -2.83777618    
  -1.15564799      0.714680016     -0.303483993       4586.19873      -2.87577248    
  -1.15769398      0.715813994       0.00000000       4586.19873      -2.87577248    
  -1.23224795      0.576331973       0.00000000       4586.19873      -2.87577248    
  -1.23108304      0.575536013     -0.303514004       4586.19873      -2.87577248    
  -1.23224795      0.576331973       0.00000000       4552.25146      -2.88959289    
  -1.28948605      0.428772002       0.00000000       4552.25146      -2.88959289    
  -1.28842103      0.428404987     -0.303512990       4552.25146      -2.88959289    
  -1.23108304      0.575536013     -0.303514004       4552.25146      -2.88959289    
  -1.28842103      0.428404987     -0.303512990       4621.45312      -2.87640262    
  -1.33082402      0.275959998     -0.303492010       4621.45312      -2.87640262    
  -1.33550000      0.277083993     -0.606999993       4621.45312      -2.87640262    