 VARIABLES="X" "Y" "Z" "abs(p) (Pa)" "angle(p) (rad)"
ZONE N=   2720,E =    2069, F=FEPOINT, ET=QUADRILATERAL
 -0.767116010      -1.12776399       0.00000000       43.5331841       1.79603100    
 -0.769354999      -1.12002099     -0.303523988       43.5331841       1.79603100    
 -0.896136999      -1.02028203     -0.303463012       43.5331841       1.79603100    
 -0.894908011      -1.02288902       0.00000000       43.5331841       1.79603100    
 -0.767116010      -1.12776399       0.00000000       44.4114685       1.79616690    
 -0.630888999      -1.20308697       0.00000000       44.4114685       1.79616690    
 -0.635528028      -1.19958198     -0.303541005       44.4114685       1.79616690    
 -0.769354999      -1.12002099     -0.303523988       44.4114685       1.79616690    
 -0.635528028      -1.19958198     -0.303541005       73.3720779       1.70521116    
 -0.495362997      -1.26606500     -0.303519011       73.3720779       1.70521116    
 -0.499298006      -1.26809204     -0.606999993       73.3720779       1.70521116    
 -0.640147984      -1.19813800     -0.606998026       73.3720779       1.70521116    
 -0.635528028      -1.19958198     -0.303541005       72.8803864       1.70349264    
 -0.640147984      -1.19813800     -0.606998026       72.8803864       1.70349264    
 -0.777105987      -1.11956596     -0.606999993       72.8803864       1.70349264    
 -0.769354999      -1.12002099     -0.303523988       72.8803864       1.70349264    
 -0.635528028      -1.19958198     -0.303541005       77.2221832       1.70189965    
 -0.630888999      -1.20308697       0.00000000       77.2221832       1.70189965    
 -0.494486004      -1.26955199       0.00000000       77.2221832       1.70189965    
 -0.495362997      -1.26606500     -0.303519011       77.2221832       1.70189965    
 -0.494486004      -1.26955199       0.00000000       76.9462280       1.70440495    
 -0.346311986      -1.31449997       0.00000000       76.9462280       1.70440495    
 -0.346753001      -1.31307304     -0.303510010       76.9462280       1.70440495    
 -0.495362997      -1.26606500     -0.303519011       76.9462280       1.70440495    
 -0.346753001      -1.31307304     -0.303510010       74.5133972       1.70709050    
 -0.193608001      -1.34425998     -0.303494990       74.5133972       1.70709050    
 -0.195028007      -1.34579206     -0.606999993       74.5133972       1.70709050    
 -0.348751009      -1.31376004     -0.606999993       74.5133972       1.70709050    
 -0.346753001      -1.31307304     -0.303510010       73.8246765       1.70656037    
 -0.348751009      -1.31376004     -0.606999993       73.8246765       1.70656037    
 -0.499298006      -1.26809204     -0.606999993       73.8246765       1.70656037    
 -0.495362997      -1.26606500     -0.303519011       73.8246765       1.70656037    
 -0.346753001      -1.31307304     -0.303510010       76.5902176       1.70675981    
 -0.346311986      -1.31449997       0.00000000       76.5902176       1.70675981    
 -0.193381995      -1.34595394       0.00000000       76.5902176       1.70675981    
 -0.193608001      -1.34425998     -0.303494990       76.5902176       1.70675981    
 -0.193381995      -1.34595394       0.00000000       44.3784218       1.80930245    
  -3.75179984E-02  -1.36130500       0.00000000       44.3784218       1.80930245    
  -3.73950005E-02  -1.35827899     -0.303512007       44.3784218       1.80930245    
 -0.193608001      -1.34425998     -0.303494990       44.3784218       1.80930245    
  -3.73950005E-02  -1.35827899     -0.303512007       73.7082901       1.71098208    
  0.119547002      -1.35239303     -0.303498000       73.7082901       1.71098208    
  0.119135000      -1.35326600     -0.606999993       73.7082901       1.71098208    
  -3.82840000E-02  -1.36122894     -0.606998980       73.7082901       1.71098208    
  -3.73950005E-02  -1.35827899     -0.303512007       69.3311386       1.71887231    
  -3.82840000E-02  -1.36122894     -0.606998980       69.3311386       1.71887231    
 -0.195028007      -1.34579206     -0.606999993       69.3311386       1.71887231    
 -0.193608001      -1.34425998     -0.303494990       69.3311386       1.71887231    
  -3.73950005E-02  -1.35827899     -0.303512007       44.5835800       1.80943358    
  -3.75179984E-02  -1.36130500       0.00000000       44.5835800       1.80943358    
  0.119788997      -1.35320199       0.00000000       44.5835800       1.80943358    
  0.119547002      -1.35239303     -0.303498000       44.5835800       1.80943358    
  0.119788997      -1.35320199       0.00000000       39.6413155       1.84072483    
  0.276576012      -1.33565402       0.00000000       39.6413155       1.84072483    
  0.275435001      -1.33191597     -0.303496003       39.6413155       1.84072483    
  0.119547002      -1.35239303     -0.303498000       39.6413155       1.84072483    
  0.275435001      -1.33191597     -0.303496003       30.7427044       1.91482723    
  0.427076995      -1.28898001     -0.303507000       30.7427044       1.91482723    
  0.427242011      -1.28995001     -0.606999993       30.7427044       1.91482723    
  0.275831014      -1.33588004     -0.606999993       30.7427044       1.91482723    
  0.275435001      -1.33191597     -0.303496003       29.8368549       1.92542267    
  0.275831014      -1.33588004     -0.606999993       29.8368549       1.92542267    
  0.119135000      -1.35326600     -0.606999993       29.8368549       1.92542267    
  0.119547002      -1.35239303     -0.303498000       29.8368549       1.92542267    
  0.275435001      -1.33191597     -0.303496003       40.2265816       1.83669209    
  0.276576012      -1.33565402       0.00000000       40.2265816       1.83669209    
  0.427509993      -1.28986895       0.00000000       40.2265816       1.83669209    
  0.427076995      -1.28898001     -0.303507000       40.2265816       1.83669209    
  0.427509993      -1.28986895       0.00000000       46.2631454       1.80039847    
  0.574636996      -1.23315501       0.00000000       46.2631454       1.80039847    
  0.573706985      -1.23136795     -0.303485990       46.2631454       1.80039847    
  0.427076995      -1.28898001     -0.303507000       46.2631454       1.80039847    
  0.573706985      -1.23136795     -0.303485990       34.4292870       1.87427878    
  0.712854981      -1.15688002     -0.303496987       34.4292870       1.87427878    
  0.713809013      -1.15876603     -0.606999993       34.4292870       1.87427878    
  0.574283004      -1.23334301     -0.606999993       34.4292870       1.87427878    
  0.573706985      -1.23136795     -0.303485990       31.6545315       1.90363562    
  0.574283004      -1.23334301     -0.606999993       31.6545315       1.90363562    
  0.427242011      -1.28995001     -0.606999993       31.6545315       1.90363562    
  0.427076995      -1.28898001     -0.303507000       31.6545315       1.90363562    
  0.573706985      -1.23136795     -0.303485990       50.7285309       1.77862692    
  0.574636996      -1.23315501       0.00000000       50.7285309       1.77862692    
  0.713741004      -1.15880203       0.00000000       50.7285309       1.77862692    
  0.712854981      -1.15688002     -0.303496987       50.7285309       1.77862692    
  0.713741004      -1.15880203       0.00000000       50.8251610       1.77646744    
  0.841937006      -1.06636095       0.00000000       50.8251610       1.77646744    
  0.841498017      -1.06573403     -0.303485990       50.8251610       1.77646744    
  0.712854981      -1.15688002     -0.303496987       50.8251610       1.77646744    
  0.841498017      -1.06573403     -0.303485990       40.8075562       1.82055116    
  0.960639000     -0.962104976     -0.303470999       40.8075562       1.82055116    
  0.964356005     -0.965893984     -0.606999993       40.8075562       1.82055116    
  0.841796994      -1.06647599     -0.606999993       40.8075562       1.82055116    
  0.841498017      -1.06573403     -0.303485990       40.4204483       1.82596946    
  0.841796994      -1.06647599     -0.606999993       40.4204483       1.82596946    
  0.713809013      -1.15876603     -0.606999993       40.4204483       1.82596946    
  0.712854981      -1.15688002     -0.303496987       40.4204483       1.82596946    
  0.841498017      -1.06573403     -0.303485990       38.0917130       1.84450912    
  0.841937006      -1.06636095       0.00000000       38.0917130       1.84450912    
  0.963932991     -0.966242015       0.00000000       38.0917130       1.84450912    
  0.960639000     -0.962104976     -0.303470999       38.0917130       1.84450912    
  0.963932991     -0.966242015       0.00000000       35.3365669       1.86246777    
   1.06506598     -0.843514979       0.00000000       35.3365669       1.86246777    
   1.06428695     -0.842682004     -0.303481996       35.3365669       1.86246777    
  0.960639000     -0.962104976     -0.303470999       35.3365669       1.86246777    
   1.06428695     -0.842682004     -0.303481996       12.9184294      -2.42691207    
   1.15591598     -0.714210987     -0.303485006       12.9184294      -2.42691207    
   1.15788805     -0.715448976     -0.606999993       12.9184294      -2.42691207    
   1.06537795     -0.843134999     -0.606999993       12.9184294      -2.42691207    
   1.06428695     -0.842682004     -0.303481996       40.3824997       1.81946206    
   1.06537795     -0.843134999     -0.606999993       40.3824997       1.81946206    
  0.964356005     -0.965893984     -0.606999993       40.3824997       1.81946206    
  0.960639000     -0.962104976     -0.303470999       40.3824997       1.81946206    
   1.06428695     -0.842682004     -0.303481996       34.2922058       1.86564398    
   1.06506598     -0.843514979       0.00000000       34.2922058       1.86564398    
   1.15792501     -0.715381980       0.00000000       34.2922058       1.86564398    
   1.15591598     -0.714210987     -0.303485006       34.2922058       1.86564398    
   1.15792501     -0.715381980       0.00000000       33.3354568       1.86864972    
   1.23237598     -0.576093972       0.00000000       33.3354568       1.86864972    
   1.23120904     -0.575251997     -0.303514004       33.3354568       1.86864972    
   1.15591598     -0.714210987     -0.303485006       33.3354568       1.86864972    
   1.23120904     -0.575251997     -0.303514004       13.6477346      -2.32152247    
   1.28844094     -0.428344995     -0.303512990       13.6477346      -2.32152247    
   1.28952503     -0.428642988     -0.606999993       13.6477346      -2.32152247    
   1.23252702     -0.575810015     -0.606999993       13.6477346      -2.32152247    
   1.23120904     -0.575251997     -0.303514004       13.0450945      -2.39209056    
   1.23252702     -0.575810015     -0.606999993       13.0450945      -2.39209056    
   1.15788805     -0.715448976     -0.606999993       13.0450945      -2.39209056    
   1.15591598     -0.714210987     -0.303485006       13.0450945      -2.39209056    
   1.23120904     -0.575251997     -0.303514004       20.3041325      -2.06222034    
   1.23237598     -0.576093972       0.00000000       20.3041325      -2.06222034    
   1.28947699     -0.428801000       0.00000000       20.3041325      -2.06222034    
   1.28844094     -0.428344995     -0.303512990       20.3041325      -2.06222034    
   1.28947699     -0.428801000       0.00000000       10.4721565      -2.66967869    
   1.33532202     -0.277671993       0.00000000       10.4721565      -2.66967869    
   1.33076501     -0.276203990     -0.303492010       10.4721565      -2.66967869    
   1.28844094     -0.428344995     -0.303512990       10.4721565      -2.66967869    
   1.33076501     -0.276203990     -0.303492010       81.7282181      -1.67820406    
   1.35229194     -0.119709998     -0.303514004       81.7282181      -1.67820406    
   1.35321999     -0.119608998     -0.606999993       81.7282181      -1.67820406    
   1.33549094     -0.277112991     -0.606999993       81.7282181      -1.67820406    
   1.33076501     -0.276203990     -0.303492010       17.7834187      -2.10433960    
   1.33549094     -0.277112991     -0.606999993       17.7834187      -2.10433960    
   1.28952503     -0.428642988     -0.606999993       17.7834187      -2.10433960    
   1.28844094     -0.428344995     -0.303512990       17.7834187      -2.10433960    
   1.33076501     -0.276203990     -0.303492010       42.9392014       1.78323615    
   1.33532202     -0.277671993       0.00000000       42.9392014       1.78323615    
   1.35319102     -0.119900003       0.00000000       42.9392014       1.78323615    
   1.35229194     -0.119709998     -0.303514004       42.9392014       1.78323615    
   1.35319102     -0.119900003       0.00000000       40.8414307       1.78703535    
   1.36124396       3.81390005E-02   0.00000000       40.8414307       1.78703535    
   1.35858905       3.79349999E-02 -0.303501010       40.8414307       1.78703535    
   1.35229194     -0.119709998     -0.303514004       40.8414307       1.78703535    
   1.35858905       3.79349999E-02 -0.303501010       37.9999352      -1.78633070    
   1.34464097      0.195331007     -0.303496003       37.9999352      -1.78633070    
   1.34573400      0.195616007     -0.606999993       37.9999352      -1.78633070    
   1.36126804       3.78950015E-02 -0.606999993       37.9999352      -1.78633070    
   1.35858905       3.79349999E-02 -0.303501010       34.6671600      -1.81685245    
   1.36126804       3.78950015E-02 -0.606999993       34.6671600      -1.81685245    
   1.35321999     -0.119608998     -0.606999993       34.6671600      -1.81685245    
   1.35229194     -0.119709998     -0.303514004       34.6671600      -1.81685245    
   1.35858905       3.79349999E-02 -0.303501010       29.2091827      -1.86485612    
   1.36124396       3.81390005E-02   0.00000000       29.2091827      -1.86485612    
   1.34575403      0.195406005       0.00000000       29.2091827      -1.86485612    
   1.34464097      0.195331007     -0.303496003       29.2091827      -1.86485612    
   1.34575403      0.195406005       0.00000000       29.4771938      -1.85123432    
   1.31339800      0.349945009       0.00000000       29.4771938      -1.85123432    
   1.31216300      0.349725991     -0.303487003       29.4771938      -1.85123432    
   1.34464097      0.195331007     -0.303496003       29.4771938      -1.85123432    
   1.31216300      0.349725991     -0.303487003       28.8857117      -1.83129168    
   1.26341999      0.500032008     -0.303494006       28.8857117      -1.83129168    
   1.26736605      0.501691997     -0.606999993       28.8857117      -1.83129168    
   1.31333196      0.350163996     -0.606999993       28.8857117      -1.83129168    
   1.31216300      0.349725991     -0.303487003       39.7362213      -1.76823378    
   1.31333196      0.350163996     -0.606999993       39.7362213      -1.76823378    
   1.34573400      0.195616007     -0.606999993       39.7362213      -1.76823378    
   1.34464097      0.195331007     -0.303496003       39.7362213      -1.76823378    
   1.31216300      0.349725991     -0.303487003       29.2064304      -1.84287107    
   1.31339800      0.349945009       0.00000000       29.2064304      -1.84287107    
   1.26751196      0.501209974       0.00000000       29.2064304      -1.84287107    
   1.26341999      0.500032008     -0.303494006       29.2064304      -1.84287107    
   1.26751196      0.501209974       0.00000000       37.3239594       1.77413559    
   1.19658697      0.643051028       0.00000000       37.3239594       1.77413559    
   1.19583094      0.642783999     -0.303505003       37.3239594       1.77413559    
   1.26341999      0.500032008     -0.303494006       37.3239594       1.77413559    
   1.19583094      0.642783999     -0.303505003       6.77978897       3.05181551    
   1.11495602      0.778467000     -0.303483993       6.77978897       3.05181551    
   1.11731696      0.779847026     -0.606999993       6.77978897       3.05181551    
   1.19653296      0.643149972     -0.606999993       6.77978897       3.05181551    
   1.19583094      0.642783999     -0.303505003       30.4634418      -1.80612504    
   1.19653296      0.643149972     -0.606999993       30.4634418      -1.80612504    
   1.26736605      0.501691997     -0.606999993       30.4634418      -1.80612504    
   1.26341999      0.500032008     -0.303494006       30.4634418      -1.80612504    
   1.19583094      0.642783999     -0.303505003       35.5999527       1.77448761    
   1.19658697      0.643051028       0.00000000       35.5999527       1.77448761    
   1.11705506      0.780165970       0.00000000       35.5999527       1.77448761    
   1.11495602      0.778467000     -0.303483993       35.5999527       1.77448761    
   1.11705506      0.780165970       0.00000000       33.7490921       1.77630639    
   1.01674199      0.902397990       0.00000000       33.7490921       1.77630639    
   1.01591504      0.901737988     -0.303478003       33.7490921       1.77630639    
   1.11495602      0.778467000     -0.303483993       33.7490921       1.77630639    
   1.01591504      0.901737988     -0.303478003       53.5702591       1.68492329    
  0.904204011       1.01322901     -0.303456992       53.5702591       1.68492329    
  0.905143023       1.01448905     -0.606999993       53.5702591       1.68492329    
   1.01659799      0.902572989     -0.606999993       53.5702591       1.68492329    
   1.01591504      0.901737988     -0.303478003       55.5647964       1.68662035    
   1.01659799      0.902572989     -0.606999993       55.5647964       1.68662035    
   1.11731696      0.779847026     -0.606999993       55.5647964       1.68662035    
   1.11495602      0.778467000     -0.303483993       55.5647964       1.68662035    
   1.01591504      0.901737988     -0.303478003       31.8192024       1.77916098    
   1.01674199      0.902397990       0.00000000       31.8192024       1.77916098    
  0.905318975       1.01434398       0.00000000       31.8192024       1.77916098    
  0.904204011       1.01322901     -0.303456992       31.8192024       1.77916098    
  0.905318975       1.01434398       0.00000000       62.4145508       1.67190123    
  0.782918990       1.11479497       0.00000000       62.4145508       1.67190123    
  0.780644000       1.11195600     -0.303485006       62.4145508       1.67190123    
  0.904204011       1.01322901     -0.303456992       62.4145508       1.67190123    
  0.780644000       1.11195600     -0.303485006       49.7828102       1.68196058    
  0.645825028       1.19414902     -0.303514004       49.7828102       1.68196058    
  0.646153986       1.19492805     -0.606999993       49.7828102       1.68196058    
  0.782611012       1.11504900     -0.606999993       49.7828102       1.68196058    
  0.780644000       1.11195600     -0.303485006       51.6333618       1.68329716    
  0.782611012       1.11504900     -0.606999993       51.6333618       1.68329716    
  0.905143023       1.01448905     -0.606999993       51.6333618       1.68329716    
  0.904204011       1.01322901     -0.303456992       51.6333618       1.68329716    
  0.780644000       1.11195600     -0.303485006       52.4222145       1.68630147    
  0.782918990       1.11479497       0.00000000       52.4222145       1.68630147    
  0.646345019       1.19482601       0.00000000       52.4222145       1.68630147    
  0.645825028       1.19414902     -0.303514004       52.4222145       1.68630147    
  0.646345019       1.19482601       0.00000000       19.9714947       1.86640930    
  0.504974008       1.26637006       0.00000000       19.9714947       1.86640930    
  0.503772974       1.26314998     -0.303521991       19.9714947       1.86640930    
  0.645825028       1.19414902     -0.303514004       19.9714947       1.86640930    
  0.503772974       1.26314998     -0.303521991       53.0419731       1.66628528    
  0.353130996       1.31116498     -0.303510994       53.0419731       1.66628528    
  0.353300005       1.31237996     -0.606999993       53.0419731       1.66628528    
  0.505183995       1.26630700     -0.606999993       53.0419731       1.66628528    
  0.503772974       1.26314998     -0.303521991       50.0809479       1.67622304    
  0.505183995       1.26630700     -0.606999993       50.0809479       1.67622304    
  0.646153986       1.19492805     -0.606999993       50.0809479       1.67622304    
  0.645825028       1.19414902     -0.303514004       50.0809479       1.67622304    
  0.503772974       1.26314998     -0.303521991       18.3932095       1.88155293    
  0.504974008       1.26637006       0.00000000       18.3932095       1.88155293    
  0.353493989       1.31232095       0.00000000       18.3932095       1.88155293    
  0.353130996       1.31116498     -0.303510994       18.3932095       1.88155293    
  0.353493989       1.31232095       0.00000000       17.0708141       1.89645112    
  0.199064001       1.34539402       0.00000000       17.0708141       1.89645112    
  0.198755994       1.34360003     -0.303496003       17.0708141       1.89645112    
  0.353130996       1.31116498     -0.303510994       17.0708141       1.89645112    
  0.198755994       1.34360003     -0.303496003       18.0824146       1.83609688    
   4.12769988E-02   1.35817802     -0.303508013       18.0824146       1.83609688    
   4.12410013E-02   1.36093795     -0.606999993       18.0824146       1.83609688    
  0.199025005       1.34539795     -0.606999993       18.0824146       1.83609688    
  0.198755994       1.34360003     -0.303496003       51.6696587       1.66534925    
  0.199025005       1.34539795     -0.606999993       51.6696587       1.66534925    
  0.353300005       1.31237996     -0.606999993       51.6696587       1.66534925    
  0.353130996       1.31116498     -0.303510994       51.6696587       1.66534925    
  0.198755994       1.34360003     -0.303496003       15.6368608       1.91893446    
  0.199064001       1.34539402       0.00000000       15.6368608       1.91893446    
   4.17769998E-02   1.36088502       0.00000000       15.6368608       1.91893446    
   4.12769988E-02   1.35817802     -0.303508013       15.6368608       1.91893446    
   4.17769998E-02   1.36088502       0.00000000       20.6682911       1.82794142    
 -0.116410002       1.35353506       0.00000000       20.6682911       1.82794142    
 -0.116471998       1.35271096     -0.303496987       20.6682911       1.82794142    
   4.12769988E-02   1.35817802     -0.303508013       20.6682911       1.82794142    
 -0.116471998       1.35271096     -0.303496987       30.7166462       1.72022474    
 -0.273027003       1.33229196     -0.303496003       30.7166462       1.72022474    
 -0.273876995       1.33647299     -0.606999993       30.7166462       1.72022474    
 -0.116722003       1.35350394     -0.606999993       30.7166462       1.72022474    
 -0.116471998       1.35271096     -0.303496987       16.2363796       1.86102927    
 -0.116722003       1.35350394     -0.606999993       16.2363796       1.86102927    
   4.12410013E-02   1.36093795     -0.606999993       16.2363796       1.86102927    
   4.12769988E-02   1.35817802     -0.303508013       16.2363796       1.86102927    
 -0.116471998       1.35271096     -0.303496987       20.1718693       1.83232093    
 -0.116410002       1.35353506       0.00000000       20.1718693       1.83232093    
 -0.274069011       1.33641505       0.00000000       20.1718693       1.83232093    
 -0.273027003       1.33229196     -0.303496003       20.1718693       1.83232093    
 -0.274069011       1.33641505       0.00000000       20.1664085       1.83210921    
 -0.425588995       1.29045200       0.00000000       20.1664085       1.83210921    
 -0.425258011       1.28953803     -0.303507000       20.1664085       1.83210921    
 -0.273027003       1.33229196     -0.303496003       20.1664085       1.83210921    
 -0.425258011       1.28953803     -0.303507000       31.0970745       1.71948218    
 -0.572302997       1.23206902     -0.303485990       31.0970745       1.71948218    
 -0.573064029       1.23399496     -0.606999993       31.0970745       1.71948218    
 -0.425651014       1.29043305     -0.606999993       31.0970745       1.71948218    
 -0.425258011       1.28953803     -0.303507000       30.3708935       1.72165668    
 -0.425651014       1.29043305     -0.606999993       30.3708935       1.72165668    
 -0.273876995       1.33647299     -0.606999993       30.3708935       1.72165668    
 -0.273027003       1.33229196     -0.303496003       30.3708935       1.72165668    
 -0.425258011       1.28953803     -0.303507000       19.2285824       1.84689689    
 -0.425588995       1.29045200       0.00000000       19.2285824       1.84689689    
 -0.573195994       1.23392498       0.00000000       19.2285824       1.84689689    
 -0.572302997       1.23206902     -0.303485990       19.2285824       1.84689689    
 -0.573195994       1.23392498       0.00000000       16.4514866       1.89969552    
 -0.712655008       1.15938199       0.00000000       16.4514866       1.89969552    
 -0.711889029       1.15749002     -0.303496003       16.4514866       1.89969552    
 -0.572302997       1.23206902     -0.303485990       16.4514866       1.89969552    
 -0.711889029       1.15749002     -0.303496003       29.5554047       1.73449886    
 -0.840825975       1.06629205     -0.303485990       29.5554047       1.73449886    
 -0.841368973       1.06682706     -0.606999993       29.5554047       1.73449886    
 -0.712980986       1.15920806     -0.606999993       29.5554047       1.73449886    
 -0.711889029       1.15749002     -0.303496003       26.8833866       1.74602902    
 -0.712980986       1.15920806     -0.606999993       26.8833866       1.74602902    
 -0.573064029       1.23399496     -0.606999993       26.8833866       1.74602902    
 -0.572302997       1.23206902     -0.303485990       26.8833866       1.74602902    
 -0.711889029       1.15749002     -0.303496003       21.3530560       1.82774854    
 -0.712655008       1.15938199       0.00000000       21.3530560       1.82774854    
 -0.841165006       1.06699395       0.00000000       21.3530560       1.82774854    
 -0.840825975       1.06629205     -0.303485990       21.3530560       1.82774854    
 -0.841165006       1.06699395       0.00000000       23.5946827       1.80957949    
 -0.963320017      0.966744006       0.00000000       23.5946827       1.80957949    
 -0.960084975      0.962615013     -0.303470999       23.5946827       1.80957949    
 -0.840825975       1.06629205     -0.303485990       23.5946827       1.80957949    
 -0.960084975      0.962615013     -0.303470999       31.1085663       1.73853934    
  -1.06383705      0.843237996     -0.303481996       31.1085663       1.73853934    
  -1.06481802      0.843816996     -0.606999993       31.1085663       1.73853934    
 -0.963873982      0.966289997     -0.606999993       31.1085663       1.73853934    
 -0.960084975      0.962615013     -0.303470999       31.2402229       1.73113751    
 -0.963873982      0.966289997     -0.606999993       31.2402229       1.73113751    
 -0.841368973       1.06682706     -0.606999993       31.2402229       1.73113751    
 -0.840825975       1.06629205     -0.303485990       31.2402229       1.73113751    
 -0.960084975      0.962615013     -0.303470999       31.9698505       1.75227940    
 -0.963320017      0.966744006       0.00000000       31.9698505       1.75227940    
  -1.06464398      0.844029009       0.00000000       31.9698505       1.75227940    
  -1.06383705      0.843237996     -0.303481996       31.9698505       1.75227940    
  -1.06464398      0.844029009       0.00000000       35.3794746       1.74117720    
  -1.15769398      0.715813994       0.00000000       35.3794746       1.74117720    
  -1.15564799      0.714680016     -0.303483993       35.3794746       1.74117720    
  -1.06383705      0.843237996     -0.303481996       35.3794746       1.74117720    
  -1.15564799      0.714680016     -0.303483993       49.5654602       1.68659151    
  -1.23108304      0.575536013     -0.303514004       49.5654602       1.68659151    
  -1.23232996      0.576179981     -0.606999993       49.5654602       1.68659151    
  -1.15756094      0.716063023     -0.606999993       49.5654602       1.68659151    
  -1.15564799      0.714680016     -0.303483993       35.7840767       1.72362912    
  -1.15756094      0.716063023     -0.606999993       35.7840767       1.72362912    
  -1.06481802      0.843816996     -0.606999993       35.7840767       1.72362912    
  -1.06383705      0.843237996     -0.303481996       35.7840767       1.72362912    
  -1.15564799      0.714680016     -0.303483993       38.6086731       1.73379350    
  -1.15769398      0.715813994       0.00000000       38.6086731       1.73379350    
  -1.23224795      0.576331973       0.00000000       38.6086731       1.73379350    
  -1.23108304      0.575536013     -0.303514004       38.6086731       1.73379350    
  -1.23224795      0.576331973       0.00000000       41.4933968       1.72928798    
  -1.28948605      0.428772002       0.00000000       41.4933968       1.72928798    
  -1.28842103      0.428404987     -0.303512990       41.4933968       1.72928798    
  -1.23108304      0.575536013     -0.303514004       41.4933968       1.72928798    
  -1.28842103      0.428404987     -0.303512990       6.54922342      -2.89289236    
  -1.33082402      0.275959998     -0.303492010       6.54922342      -2.89289236    
  -1.33550000      0.277083993     -0.606999993       6.54922342      -2.89289236    