 VARIABLES="X" "Y" "Z" "abs(p) (Pa)" "angle(p) (rad)"
ZONE N=   2720,E =    2069, F=FEPOINT, ET=QUADRILATERAL
 -0.767116010      -1.12776399       0.00000000       7.03847885      -1.57227361    
 -0.769354999      -1.12002099     -0.303523988       7.03847885      -1.57227361    
 -0.896136999      -1.02028203     -0.303463012       7.03847885      -1.57227361    
 -0.894908011      -1.02288902       0.00000000       7.03847885      -1.57227361    
 -0.767116010      -1.12776399       0.00000000       7.42382193       1.57249606    
 -0.630888999      -1.20308697       0.00000000       7.42382193       1.57249606    
 -0.635528028      -1.19958198     -0.303541005       7.42382193       1.57249606    
 -0.769354999      -1.12002099     -0.303523988       7.42382193       1.57249606    
 -0.635528028      -1.19958198     -0.303541005       7.13322592      -1.57229686    
 -0.495362997      -1.26606500     -0.303519011       7.13322592      -1.57229686    
 -0.499298006      -1.26809204     -0.606999993       7.13322592      -1.57229686    
 -0.640147984      -1.19813800     -0.606998026       7.13322592      -1.57229686    
 -0.635528028      -1.19958198     -0.303541005       5.97869158       1.57236719    
 -0.640147984      -1.19813800     -0.606998026       5.97869158       1.57236719    
 -0.777105987      -1.11956596     -0.606999993       5.97869158       1.57236719    
 -0.769354999      -1.12002099     -0.303523988       5.97869158       1.57236719    
 -0.635528028      -1.19958198     -0.303541005       6.31605101      -1.57313943    
 -0.630888999      -1.20308697       0.00000000       6.31605101      -1.57313943    
 -0.494486004      -1.26955199       0.00000000       6.31605101      -1.57313943    
 -0.495362997      -1.26606500     -0.303519011       6.31605101      -1.57313943    
 -0.494486004      -1.26955199       0.00000000       5.76039934       1.57363081    
 -0.346311986      -1.31449997       0.00000000       5.76039934       1.57363081    
 -0.346753001      -1.31307304     -0.303510010       5.76039934       1.57363081    
 -0.495362997      -1.26606500     -0.303519011       5.76039934       1.57363081    
 -0.346753001      -1.31307304     -0.303510010      0.388515681      -1.60251677    
 -0.193608001      -1.34425998     -0.303494990      0.388515681      -1.60251677    
 -0.195028007      -1.34579206     -0.606999993      0.388515681      -1.60251677    
 -0.348751009      -1.31376004     -0.606999993      0.388515681      -1.60251677    
 -0.346753001      -1.31307304     -0.303510010       6.13984871       1.57270980    
 -0.348751009      -1.31376004     -0.606999993       6.13984871       1.57270980    
 -0.499298006      -1.26809204     -0.606999993       6.13984871       1.57270980    
 -0.495362997      -1.26606500     -0.303519011       6.13984871       1.57270980    
 -0.346753001      -1.31307304     -0.303510010      0.347440302      -1.62005103    
 -0.346311986      -1.31449997       0.00000000      0.347440302      -1.62005103    
 -0.193381995      -1.34595394       0.00000000      0.347440302      -1.62005103    
 -0.193608001      -1.34425998     -0.303494990      0.347440302      -1.62005103    
 -0.193381995      -1.34595394       0.00000000       4.03136349      -1.57508516    
  -3.75179984E-02  -1.36130500       0.00000000       4.03136349      -1.57508516    
  -3.73950005E-02  -1.35827899     -0.303512007       4.03136349      -1.57508516    
 -0.193608001      -1.34425998     -0.303494990       4.03136349      -1.57508516    
  -3.73950005E-02  -1.35827899     -0.303512007       3.42825055       1.57446349    
  0.119547002      -1.35239303     -0.303498000       3.42825055       1.57446349    
  0.119135000      -1.35326600     -0.606999993       3.42825055       1.57446349    
  -3.82840000E-02  -1.36122894     -0.606998980       3.42825055       1.57446349    
  -3.73950005E-02  -1.35827899     -0.303512007       3.53557897      -1.57437980    
  -3.82840000E-02  -1.36122894     -0.606998980       3.53557897      -1.57437980    
 -0.195028007      -1.34579206     -0.606999993       3.53557897      -1.57437980    
 -0.193608001      -1.34425998     -0.303494990       3.53557897      -1.57437980    
  -3.73950005E-02  -1.35827899     -0.303512007       3.09801126       1.57632530    
  -3.75179984E-02  -1.36130500       0.00000000       3.09801126       1.57632530    
  0.119788997      -1.35320199       0.00000000       3.09801126       1.57632530    
  0.119547002      -1.35239303     -0.303498000       3.09801126       1.57632530    
  0.119788997      -1.35320199       0.00000000       10.1804667      -1.57241118    
  0.276576012      -1.33565402       0.00000000       10.1804667      -1.57241118    
  0.275435001      -1.33191597     -0.303496003       10.1804667      -1.57241118    
  0.119547002      -1.35239303     -0.303498000       10.1804667      -1.57241118    
  0.275435001      -1.33191597     -0.303496003       8.98524284       1.57203209    
  0.427076995      -1.28898001     -0.303507000       8.98524284       1.57203209    
  0.427242011      -1.28995001     -0.606999993       8.98524284       1.57203209    
  0.275831014      -1.33588004     -0.606999993       8.98524284       1.57203209    
  0.275435001      -1.33191597     -0.303496003       9.85590458      -1.57199872    
  0.275831014      -1.33588004     -0.606999993       9.85590458      -1.57199872    
  0.119135000      -1.35326600     -0.606999993       9.85590458      -1.57199872    
  0.119547002      -1.35239303     -0.303498000       9.85590458      -1.57199872    
  0.275435001      -1.33191597     -0.303496003       9.00383759       1.57250500    
  0.276576012      -1.33565402       0.00000000       9.00383759       1.57250500    
  0.427509993      -1.28986895       0.00000000       9.00383759       1.57250500    
  0.427076995      -1.28898001     -0.303507000       9.00383759       1.57250500    
  0.427509993      -1.28986895       0.00000000       1.48202634      -1.57981539    
  0.574636996      -1.23315501       0.00000000       1.48202634      -1.57981539    
  0.573706985      -1.23136795     -0.303485990       1.48202634      -1.57981539    
  0.427076995      -1.28898001     -0.303507000       1.48202634      -1.57981539    
  0.573706985      -1.23136795     -0.303485990       1.31518209      -1.57722235    
  0.712854981      -1.15688002     -0.303496987       1.31518209      -1.57722235    
  0.713809013      -1.15876603     -0.606999993       1.31518209      -1.57722235    
  0.574283004      -1.23334301     -0.606999993       1.31518209      -1.57722235    
  0.573706985      -1.23136795     -0.303485990       1.55932665      -1.57710195    
  0.574283004      -1.23334301     -0.606999993       1.55932665      -1.57710195    
  0.427242011      -1.28995001     -0.606999993       1.55932665      -1.57710195    
  0.427076995      -1.28898001     -0.303507000       1.55932665      -1.57710195    
  0.573706985      -1.23136795     -0.303485990       1.45167184      -1.57851803    
  0.574636996      -1.23315501       0.00000000       1.45167184      -1.57851803    
  0.713741004      -1.15880203       0.00000000       1.45167184      -1.57851803    
  0.712854981      -1.15688002     -0.303496987       1.45167184      -1.57851803    
  0.713741004      -1.15880203       0.00000000       2.12289333       1.57493675    
  0.841937006      -1.06636095       0.00000000       2.12289333       1.57493675    
  0.841498017      -1.06573403     -0.303485990       2.12289333       1.57493675    
  0.712854981      -1.15688002     -0.303496987       2.12289333       1.57493675    
  0.841498017      -1.06573403     -0.303485990       9.45904160      -1.57131743    
  0.960639000     -0.962104976     -0.303470999       9.45904160      -1.57131743    
  0.964356005     -0.965893984     -0.606999993       9.45904160      -1.57131743    
  0.841796994      -1.06647599     -0.606999993       9.45904160      -1.57131743    
  0.841498017      -1.06573403     -0.303485990       2.34742260       1.57367742    
  0.841796994      -1.06647599     -0.606999993       2.34742260       1.57367742    
  0.713809013      -1.15876603     -0.606999993       2.34742260       1.57367742    
  0.712854981      -1.15688002     -0.303496987       2.34742260       1.57367742    
  0.841498017      -1.06573403     -0.303485990       9.64030170      -1.57145381    
  0.841937006      -1.06636095       0.00000000       9.64030170      -1.57145381    
  0.963932991     -0.966242015       0.00000000       9.64030170      -1.57145381    
  0.960639000     -0.962104976     -0.303470999       9.64030170      -1.57145381    
  0.963932991     -0.966242015       0.00000000       10.4999256       1.57116795    
   1.06506598     -0.843514979       0.00000000       10.4999256       1.57116795    
   1.06428695     -0.842682004     -0.303481996       10.4999256       1.57116795    
  0.960639000     -0.962104976     -0.303470999       10.4999256       1.57116795    
   1.06428695     -0.842682004     -0.303481996       2.98622227      -1.57130122    
   1.15591598     -0.714210987     -0.303485006       2.98622227      -1.57130122    
   1.15788805     -0.715448976     -0.606999993       2.98622227      -1.57130122    
   1.06537795     -0.843134999     -0.606999993       2.98622227      -1.57130122    
   1.06428695     -0.842682004     -0.303481996       10.2460861       1.57111216    
   1.06537795     -0.843134999     -0.606999993       10.2460861       1.57111216    
  0.964356005     -0.965893984     -0.606999993       10.2460861       1.57111216    
  0.960639000     -0.962104976     -0.303470999       10.2460861       1.57111216    
   1.06428695     -0.842682004     -0.303481996       2.80066061      -1.57124233    
   1.06506598     -0.843514979       0.00000000       2.80066061      -1.57124233    
   1.15792501     -0.715381980       0.00000000       2.80066061      -1.57124233    
   1.15591598     -0.714210987     -0.303485006       2.80066061      -1.57124233    
   1.15792501     -0.715381980       0.00000000      0.882998943       1.56955874    
   1.23237598     -0.576093972       0.00000000      0.882998943       1.56955874    
   1.23120904     -0.575251997     -0.303514004      0.882998943       1.56955874    
   1.15591598     -0.714210987     -0.303485006      0.882998943       1.56955874    
   1.23120904     -0.575251997     -0.303514004       2.63829303       1.57022798    
   1.28844094     -0.428344995     -0.303512990       2.63829303       1.57022798    
   1.28952503     -0.428642988     -0.606999993       2.63829303       1.57022798    
   1.23252702     -0.575810015     -0.606999993       2.63829303       1.57022798    
   1.23120904     -0.575251997     -0.303514004      0.779214859       1.57066989    
   1.23252702     -0.575810015     -0.606999993      0.779214859       1.57066989    
   1.15788805     -0.715448976     -0.606999993      0.779214859       1.57066989    
   1.15591598     -0.714210987     -0.303485006      0.779214859       1.57066989    
   1.23120904     -0.575251997     -0.303514004       2.62791395       1.56962383    
   1.23237598     -0.576093972       0.00000000       2.62791395       1.56962383    
   1.28947699     -0.428801000       0.00000000       2.62791395       1.56962383    
   1.28844094     -0.428344995     -0.303512990       2.62791395       1.56962383    
   1.28947699     -0.428801000       0.00000000       7.50473738      -1.57016492    
   1.33532202     -0.277671993       0.00000000       7.50473738      -1.57016492    
   1.33076501     -0.276203990     -0.303492010       7.50473738      -1.57016492    
   1.28844094     -0.428344995     -0.303512990       7.50473738      -1.57016492    
   1.33076501     -0.276203990     -0.303492010       8.17047691       1.57036269    
   1.35229194     -0.119709998     -0.303514004       8.17047691       1.57036269    
   1.35321999     -0.119608998     -0.606999993       8.17047691       1.57036269    
   1.33549094     -0.277112991     -0.606999993       8.17047691       1.57036269    
   1.33076501     -0.276203990     -0.303492010       7.50567770      -1.57043588    
   1.33549094     -0.277112991     -0.606999993       7.50567770      -1.57043588    
   1.28952503     -0.428642988     -0.606999993       7.50567770      -1.57043588    
   1.28844094     -0.428344995     -0.303512990       7.50567770      -1.57043588    
   1.33076501     -0.276203990     -0.303492010       8.39613724       1.57010543    
   1.33532202     -0.277671993       0.00000000       8.39613724       1.57010543    
   1.35319102     -0.119900003       0.00000000       8.39613724       1.57010543    
   1.35229194     -0.119709998     -0.303514004       8.39613724       1.57010543    
   1.35319102     -0.119900003       0.00000000       4.70027208      -1.56941497    
   1.36124396       3.81390005E-02   0.00000000       4.70027208      -1.56941497    
   1.35858905       3.79349999E-02 -0.303501010       4.70027208      -1.56941497    
   1.35229194     -0.119709998     -0.303514004       4.70027208      -1.56941497    
   1.35858905       3.79349999E-02 -0.303501010       2.92941976       1.56933999    
   1.34464097      0.195331007     -0.303496003       2.92941976       1.56933999    
   1.34573400      0.195616007     -0.606999993       2.92941976       1.56933999    
   1.36126804       3.78950015E-02 -0.606999993       2.92941976       1.56933999    
   1.35858905       3.79349999E-02 -0.303501010       4.87545252      -1.56994236    
   1.36126804       3.78950015E-02 -0.606999993       4.87545252      -1.56994236    
   1.35321999     -0.119608998     -0.606999993       4.87545252      -1.56994236    
   1.35229194     -0.119709998     -0.303514004       4.87545252      -1.56994236    
   1.35858905       3.79349999E-02 -0.303501010       3.13223672       1.56865227    
   1.36124396       3.81390005E-02   0.00000000       3.13223672       1.56865227    
   1.34575403      0.195406005       0.00000000       3.13223672       1.56865227    
   1.34464097      0.195331007     -0.303496003       3.13223672       1.56865227    
   1.34575403      0.195406005       0.00000000       1.78167903       1.56719959    
   1.31339800      0.349945009       0.00000000       1.78167903       1.56719959    
   1.31216300      0.349725991     -0.303487003       1.78167903       1.56719959    
   1.34464097      0.195331007     -0.303496003       1.78167903       1.56719959    
   1.31216300      0.349725991     -0.303487003       5.51492167      -1.57013953    
   1.26341999      0.500032008     -0.303494006       5.51492167      -1.57013953    
   1.26736605      0.501691997     -0.606999993       5.51492167      -1.57013953    
   1.31333196      0.350163996     -0.606999993       5.51492167      -1.57013953    
   1.31216300      0.349725991     -0.303487003       1.69772041       1.56840420    
   1.31333196      0.350163996     -0.606999993       1.69772041       1.56840420    
   1.34573400      0.195616007     -0.606999993       1.69772041       1.56840420    
   1.34464097      0.195331007     -0.303496003       1.69772041       1.56840420    
   1.31216300      0.349725991     -0.303487003       5.57207823      -1.56976354    
   1.31339800      0.349945009       0.00000000       5.57207823      -1.56976354    
   1.26751196      0.501209974       0.00000000       5.57207823      -1.56976354    
   1.26341999      0.500032008     -0.303494006       5.57207823      -1.56976354    
   1.26751196      0.501209974       0.00000000       5.84625053       1.57003105    
   1.19658697      0.643051028       0.00000000       5.84625053       1.57003105    
   1.19583094      0.642783999     -0.303505003       5.84625053       1.57003105    
   1.26341999      0.500032008     -0.303494006       5.84625053       1.57003105    
   1.19583094      0.642783999     -0.303505003       7.16917324      -1.57058966    
   1.11495602      0.778467000     -0.303483993       7.16917324      -1.57058966    
   1.11731696      0.779847026     -0.606999993       7.16917324      -1.57058966    
   1.19653296      0.643149972     -0.606999993       7.16917324      -1.57058966    
   1.19583094      0.642783999     -0.303505003       5.92889071       1.57032406    
   1.19653296      0.643149972     -0.606999993       5.92889071       1.57032406    
   1.26736605      0.501691997     -0.606999993       5.92889071       1.57032406    
   1.26341999      0.500032008     -0.303494006       5.92889071       1.57032406    
   1.19583094      0.642783999     -0.303505003       7.27034712      -1.57041717    
   1.19658697      0.643051028       0.00000000       7.27034712      -1.57041717    
   1.11705506      0.780165970       0.00000000       7.27034712      -1.57041717    
   1.11495602      0.778467000     -0.303483993       7.27034712      -1.57041717    
   1.11705506      0.780165970       0.00000000       5.86702061       1.57063138    
   1.01674199      0.902397990       0.00000000       5.86702061       1.57063138    
   1.01591504      0.901737988     -0.303478003       5.86702061       1.57063138    
   1.11495602      0.778467000     -0.303483993       5.86702061       1.57063138    
   1.01591504      0.901737988     -0.303478003      0.875383615       1.57204449    
  0.904204011       1.01322901     -0.303456992      0.875383615       1.57204449    
  0.905143023       1.01448905     -0.606999993      0.875383615       1.57204449    
   1.01659799      0.902572989     -0.606999993      0.875383615       1.57204449    
   1.01591504      0.901737988     -0.303478003       5.72859573       1.57075262    
   1.01659799      0.902572989     -0.606999993       5.72859573       1.57075262    
   1.11731696      0.779847026     -0.606999993       5.72859573       1.57075262    
   1.11495602      0.778467000     -0.303483993       5.72859573       1.57075262    
   1.01591504      0.901737988     -0.303478003      0.953782201       1.57181454    
   1.01674199      0.902397990       0.00000000      0.953782201       1.57181454    
  0.905318975       1.01434398       0.00000000      0.953782201       1.57181454    
  0.904204011       1.01322901     -0.303456992      0.953782201       1.57181454    
  0.905318975       1.01434398       0.00000000       4.07253170      -1.57159126    
  0.782918990       1.11479497       0.00000000       4.07253170      -1.57159126    
  0.780644000       1.11195600     -0.303485006       4.07253170      -1.57159126    
  0.904204011       1.01322901     -0.303456992       4.07253170      -1.57159126    
  0.780644000       1.11195600     -0.303485006       4.50078917       1.57163656    
  0.645825028       1.19414902     -0.303514004       4.50078917       1.57163656    
  0.646153986       1.19492805     -0.606999993       4.50078917       1.57163656    
  0.782611012       1.11504900     -0.606999993       4.50078917       1.57163656    
  0.780644000       1.11195600     -0.303485006       3.98295403      -1.57140601    
  0.782611012       1.11504900     -0.606999993       3.98295403      -1.57140601    
  0.905143023       1.01448905     -0.606999993       3.98295403      -1.57140601    
  0.904204011       1.01322901     -0.303456992       3.98295403      -1.57140601    
  0.780644000       1.11195600     -0.303485006       4.32909441       1.57198167    
  0.782918990       1.11479497       0.00000000       4.32909441       1.57198167    
  0.646345019       1.19482601       0.00000000       4.32909441       1.57198167    
  0.645825028       1.19414902     -0.303514004       4.32909441       1.57198167    
  0.646345019       1.19482601       0.00000000       8.79655170      -1.57155764    
  0.504974008       1.26637006       0.00000000       8.79655170      -1.57155764    
  0.503772974       1.26314998     -0.303521991       8.79655170      -1.57155764    
  0.645825028       1.19414902     -0.303514004       8.79655170      -1.57155764    
  0.503772974       1.26314998     -0.303521991       7.66415405       1.57160568    
  0.353130996       1.31116498     -0.303510994       7.66415405       1.57160568    
  0.353300005       1.31237996     -0.606999993       7.66415405       1.57160568    
  0.505183995       1.26630700     -0.606999993       7.66415405       1.57160568    
  0.503772974       1.26314998     -0.303521991       8.59764576      -1.57138228    
  0.505183995       1.26630700     -0.606999993       8.59764576      -1.57138228    
  0.646153986       1.19492805     -0.606999993       8.59764576      -1.57138228    
  0.645825028       1.19414902     -0.303514004       8.59764576      -1.57138228    
  0.503772974       1.26314998     -0.303521991       7.78135586       1.57187867    
  0.504974008       1.26637006       0.00000000       7.78135586       1.57187867    
  0.353493989       1.31232095       0.00000000       7.78135586       1.57187867    
  0.353130996       1.31116498     -0.303510994       7.78135586       1.57187867    
  0.353493989       1.31232095       0.00000000      0.890986860      -1.58158314    
  0.199064001       1.34539402       0.00000000      0.890986860      -1.58158314    
  0.198755994       1.34360003     -0.303496003      0.890986860      -1.58158314    
  0.353130996       1.31116498     -0.303510994      0.890986860      -1.58158314    
  0.198755994       1.34360003     -0.303496003       2.94608355      -1.57330167    
   4.12769988E-02   1.35817802     -0.303508013       2.94608355      -1.57330167    
   4.12410013E-02   1.36093795     -0.606999993       2.94608355      -1.57330167    
  0.199025005       1.34539795     -0.606999993       2.94608355      -1.57330167    
  0.198755994       1.34360003     -0.303496003      0.872170627      -1.57882071    
  0.199025005       1.34539795     -0.606999993      0.872170627      -1.57882071    
  0.353300005       1.31237996     -0.606999993      0.872170627      -1.57882071    
  0.353130996       1.31116498     -0.303510994      0.872170627      -1.57882071    
  0.198755994       1.34360003     -0.303496003       3.19609928      -1.57410800    
  0.199064001       1.34539402       0.00000000       3.19609928      -1.57410800    
   4.17769998E-02   1.36088502       0.00000000       3.19609928      -1.57410800    
   4.12769988E-02   1.35817802     -0.303508013       3.19609928      -1.57410800    
   4.17769998E-02   1.36088502       0.00000000       2.67846441       1.57495749    
 -0.116410002       1.35353506       0.00000000       2.67846441       1.57495749    
 -0.116471998       1.35271096     -0.303496987       2.67846441       1.57495749    
   4.12769988E-02   1.35817802     -0.303508013       2.67846441       1.57495749    
 -0.116471998       1.35271096     -0.303496987       9.80130386      -1.57158339    
 -0.273027003       1.33229196     -0.303496003       9.80130386      -1.57158339    
 -0.273876995       1.33647299     -0.606999993       9.80130386      -1.57158339    
 -0.116722003       1.35350394     -0.606999993       9.80130386      -1.57158339    
 -0.116471998       1.35271096     -0.303496987       3.12908721       1.57326651    
 -0.116722003       1.35350394     -0.606999993       3.12908721       1.57326651    
   4.12410013E-02   1.36093795     -0.606999993       3.12908721       1.57326651    
   4.12769988E-02   1.35817802     -0.303508013       3.12908721       1.57326651    
 -0.116471998       1.35271096     -0.303496987       10.2073126      -1.57190549    
 -0.116410002       1.35353506       0.00000000       10.2073126      -1.57190549    
 -0.274069011       1.33641505       0.00000000       10.2073126      -1.57190549    
 -0.273027003       1.33229196     -0.303496003       10.2073126      -1.57190549    
 -0.274069011       1.33641505       0.00000000       9.24110985       1.57198858    
 -0.425588995       1.29045200       0.00000000       9.24110985       1.57198858    
 -0.425258011       1.28953803     -0.303507000       9.24110985       1.57198858    
 -0.273027003       1.33229196     -0.303496003       9.24110985       1.57198858    
 -0.425258011       1.28953803     -0.303507000       1.74694729      -1.57463157    
 -0.572302997       1.23206902     -0.303485990       1.74694729      -1.57463157    
 -0.573064029       1.23399496     -0.606999993       1.74694729      -1.57463157    
 -0.425651014       1.29043305     -0.606999993       1.74694729      -1.57463157    
 -0.425258011       1.28953803     -0.303507000       9.13829899       1.57161248    
 -0.425651014       1.29043305     -0.606999993       9.13829899       1.57161248    
 -0.273876995       1.33647299     -0.606999993       9.13829899       1.57161248    
 -0.273027003       1.33229196     -0.303496003       9.13829899       1.57161248    
 -0.425258011       1.28953803     -0.303507000       1.66273701      -1.57665980    
 -0.425588995       1.29045200       0.00000000       1.66273701      -1.57665980    
 -0.573195994       1.23392498       0.00000000       1.66273701      -1.57665980    
 -0.572302997       1.23206902     -0.303485990       1.66273701      -1.57665980    
 -0.573195994       1.23392498       0.00000000       1.15047503      -1.57793772    
 -0.712655008       1.15938199       0.00000000       1.15047503      -1.57793772    
 -0.711889029       1.15749002     -0.303496003       1.15047503      -1.57793772    
 -0.572302997       1.23206902     -0.303485990       1.15047503      -1.57793772    
 -0.711889029       1.15749002     -0.303496003       2.36809945       1.57274640    
 -0.840825975       1.06629205     -0.303485990       2.36809945       1.57274640    
 -0.841368973       1.06682706     -0.606999993       2.36809945       1.57274640    
 -0.712980986       1.15920806     -0.606999993       2.36809945       1.57274640    
 -0.711889029       1.15749002     -0.303496003       1.07717633      -1.57618058    
 -0.712980986       1.15920806     -0.606999993       1.07717633      -1.57618058    
 -0.573064029       1.23399496     -0.606999993       1.07717633      -1.57618058    
 -0.572302997       1.23206902     -0.303485990       1.07717633      -1.57618058    
 -0.711889029       1.15749002     -0.303496003       2.14052391       1.57378149    
 -0.712655008       1.15938199       0.00000000       2.14052391       1.57378149    
 -0.841165006       1.06699395       0.00000000       2.14052391       1.57378149    
 -0.840825975       1.06629205     -0.303485990       2.14052391       1.57378149    
 -0.841165006       1.06699395       0.00000000       9.49890804      -1.57125580    
 -0.963320017      0.966744006       0.00000000       9.49890804      -1.57125580    
 -0.960084975      0.962615013     -0.303470999       9.49890804      -1.57125580    
 -0.840825975       1.06629205     -0.303485990       9.49890804      -1.57125580    
 -0.960084975      0.962615013     -0.303470999       10.2263012       1.57099080    
  -1.06383705      0.843237996     -0.303481996       10.2263012       1.57099080    
  -1.06481802      0.843816996     -0.606999993       10.2263012       1.57099080    
 -0.963873982      0.966289997     -0.606999993       10.2263012       1.57099080    
 -0.960084975      0.962615013     -0.303470999       9.35614777      -1.57114089    
 -0.963873982      0.966289997     -0.606999993       9.35614777      -1.57114089    
 -0.841368973       1.06682706     -0.606999993       9.35614777      -1.57114089    
 -0.840825975       1.06629205     -0.303485990       9.35614777      -1.57114089    
 -0.960084975      0.962615013     -0.303470999       10.4476776       1.57103419    
 -0.963320017      0.966744006       0.00000000       10.4476776       1.57103419    
  -1.06464398      0.844029009       0.00000000       10.4476776       1.57103419    
  -1.06383705      0.843237996     -0.303481996       10.4476776       1.57103419    
  -1.06464398      0.844029009       0.00000000       2.96093035      -1.57091475    
  -1.15769398      0.715813994       0.00000000       2.96093035      -1.57091475    
  -1.15564799      0.714680016     -0.303483993       2.96093035      -1.57091475    
  -1.06383705      0.843237996     -0.303481996       2.96093035      -1.57091475    
  -1.15564799      0.714680016     -0.303483993      0.854305029       1.57013261    
  -1.23108304      0.575536013     -0.303514004      0.854305029       1.57013261    
  -1.23232996      0.576179981     -0.606999993      0.854305029       1.57013261    
  -1.15756094      0.716063023     -0.606999993      0.854305029       1.57013261    
  -1.15564799      0.714680016     -0.303483993       3.15671468      -1.57099390    
  -1.15756094      0.716063023     -0.606999993       3.15671468      -1.57099390    
  -1.06481802      0.843816996     -0.606999993       3.15671468      -1.57099390    
  -1.06383705      0.843237996     -0.303481996       3.15671468      -1.57099390    
  -1.15564799      0.714680016     -0.303483993      0.943047225       1.56909478    
  -1.15769398      0.715813994       0.00000000      0.943047225       1.56909478    
  -1.23224795      0.576331973       0.00000000      0.943047225       1.56909478    
  -1.23108304      0.575536013     -0.303514004      0.943047225       1.56909478    
  -1.23224795      0.576331973       0.00000000       2.62943912       1.56962645    
  -1.28948605      0.428772002       0.00000000       2.62943912       1.56962645    
  -1.28842103      0.428404987     -0.303512990       2.62943912       1.56962645    
  -1.23108304      0.575536013     -0.303514004       2.62943912       1.56962645    
  -1.28842103      0.428404987     -0.303512990       7.45765781      -1.57047927    
  -1.33082402      0.275959998     -0.303492010       7.45765781      -1.57047927    
  -1.33550000      0.277083993     -0.606999993       7.45765781      -1.57047927    