 VARIABLES="X" "Y" "Z" "abs(p) (Pa)" "angle(p) (rad)"
ZONE N=   2720,E =    2069, F=FEPOINT, ET=QUADRILATERAL
 -0.767116010      -1.12776399       0.00000000       30.3430824       1.67315686    
 -0.769354999      -1.12002099     -0.303523988       30.3430824       1.67315686    
 -0.896136999      -1.02028203     -0.303463012       30.3430824       1.67315686    
 -0.894908011      -1.02288902       0.00000000       30.3430824       1.67315686    
 -0.767116010      -1.12776399       0.00000000       30.8621941       1.67321205    
 -0.630888999      -1.20308697       0.00000000       30.8621941       1.67321205    
 -0.635528028      -1.19958198     -0.303541005       30.8621941       1.67321205    
 -0.769354999      -1.12002099     -0.303523988       30.8621941       1.67321205    
 -0.635528028      -1.19958198     -0.303541005       43.6587486       1.64523482    
 -0.495362997      -1.26606500     -0.303519011       43.6587486       1.64523482    
 -0.499298006      -1.26809204     -0.606999993       43.6587486       1.64523482    
 -0.640147984      -1.19813800     -0.606998026       43.6587486       1.64523482    
 -0.635528028      -1.19958198     -0.303541005       43.2974854       1.64459550    
 -0.640147984      -1.19813800     -0.606998026       43.2974854       1.64459550    
 -0.777105987      -1.11956596     -0.606999993       43.2974854       1.64459550    
 -0.769354999      -1.12002099     -0.303523988       43.2974854       1.64459550    
 -0.635528028      -1.19958198     -0.303541005       44.4111710       1.64296889    
 -0.630888999      -1.20308697       0.00000000       44.4111710       1.64296889    
 -0.494486004      -1.26955199       0.00000000       44.4111710       1.64296889    
 -0.495362997      -1.26606500     -0.303519011       44.4111710       1.64296889    
 -0.494486004      -1.26955199       0.00000000       44.4003639       1.64387572    
 -0.346311986      -1.31449997       0.00000000       44.4003639       1.64387572    
 -0.346753001      -1.31307304     -0.303510010       44.4003639       1.64387572    
 -0.495362997      -1.26606500     -0.303519011       44.4003639       1.64387572    
 -0.346753001      -1.31307304     -0.303510010       44.3649940       1.64587891    
 -0.193608001      -1.34425998     -0.303494990       44.3649940       1.64587891    
 -0.195028007      -1.34579206     -0.606999993       44.3649940       1.64587891    
 -0.348751009      -1.31376004     -0.606999993       44.3649940       1.64587891    
 -0.346753001      -1.31307304     -0.303510010       43.9756050       1.64572120    
 -0.348751009      -1.31376004     -0.606999993       43.9756050       1.64572120    
 -0.499298006      -1.26809204     -0.606999993       43.9756050       1.64572120    
 -0.495362997      -1.26606500     -0.303519011       43.9756050       1.64572120    
 -0.346753001      -1.31307304     -0.303510010       44.3356934       1.64471221    
 -0.346311986      -1.31449997       0.00000000       44.3356934       1.64471221    
 -0.193381995      -1.34595394       0.00000000       44.3356934       1.64471221    
 -0.193608001      -1.34425998     -0.303494990       44.3356934       1.64471221    
 -0.193381995      -1.34595394       0.00000000       31.2165489       1.67667031    
  -3.75179984E-02  -1.36130500       0.00000000       31.2165489       1.67667031    
  -3.73950005E-02  -1.35827899     -0.303512007       31.2165489       1.67667031    
 -0.193608001      -1.34425998     -0.303494990       31.2165489       1.67667031    
  -3.73950005E-02  -1.35827899     -0.303512007       44.1799240       1.64719868    
  0.119547002      -1.35239303     -0.303498000       44.1799240       1.64719868    
  0.119135000      -1.35326600     -0.606999993       44.1799240       1.64719868    
  -3.82840000E-02  -1.36122894     -0.606998980       44.1799240       1.64719868    
  -3.73950005E-02  -1.35827899     -0.303512007       42.3411255       1.65013468    
  -3.82840000E-02  -1.36122894     -0.606998980       42.3411255       1.65013468    
 -0.195028007      -1.34579206     -0.606999993       42.3411255       1.65013468    
 -0.193608001      -1.34425998     -0.303494990       42.3411255       1.65013468    
  -3.73950005E-02  -1.35827899     -0.303512007       31.3563843       1.67666996    
  -3.75179984E-02  -1.36130500       0.00000000       31.3563843       1.67666996    
  0.119788997      -1.35320199       0.00000000       31.3563843       1.67666996    
  0.119547002      -1.35239303     -0.303498000       31.3563843       1.67666996    
  0.119788997      -1.35320199       0.00000000       29.3296852       1.68426597    
  0.276576012      -1.33565402       0.00000000       29.3296852       1.68426597    
  0.275435001      -1.33191597     -0.303496003       29.3296852       1.68426597    
  0.119547002      -1.35239303     -0.303498000       29.3296852       1.68426597    
  0.275435001      -1.33191597     -0.303496003       26.5081291       1.69871604    
  0.427076995      -1.28898001     -0.303507000       26.5081291       1.69871604    
  0.427242011      -1.28995001     -0.606999993       26.5081291       1.69871604    
  0.275831014      -1.33588004     -0.606999993       26.5081291       1.69871604    
  0.275435001      -1.33191597     -0.303496003       26.1152344       1.70074594    
  0.275831014      -1.33588004     -0.606999993       26.1152344       1.70074594    
  0.119135000      -1.35326600     -0.606999993       26.1152344       1.70074594    
  0.119547002      -1.35239303     -0.303498000       26.1152344       1.70074594    
  0.275435001      -1.33191597     -0.303496003       29.5822887       1.68320620    
  0.276576012      -1.33565402       0.00000000       29.5822887       1.68320620    
  0.427509993      -1.28986895       0.00000000       29.5822887       1.68320620    
  0.427076995      -1.28898001     -0.303507000       29.5822887       1.68320620    
  0.427509993      -1.28986895       0.00000000       32.0732269       1.67402792    
  0.574636996      -1.23315501       0.00000000       32.0732269       1.67402792    
  0.573706985      -1.23136795     -0.303485990       32.0732269       1.67402792    
  0.427076995      -1.28898001     -0.303507000       32.0732269       1.67402792    
  0.573706985      -1.23136795     -0.303485990       27.9915771       1.69059062    
  0.712854981      -1.15688002     -0.303496987       27.9915771       1.69059062    
  0.713809013      -1.15876603     -0.606999993       27.9915771       1.69059062    
  0.574283004      -1.23334301     -0.606999993       27.9915771       1.69059062    
  0.573706985      -1.23136795     -0.303485990       26.8721695       1.69645369    
  0.574283004      -1.23334301     -0.606999993       26.8721695       1.69645369    
  0.427242011      -1.28995001     -0.606999993       26.8721695       1.69645369    
  0.427076995      -1.28898001     -0.303507000       26.8721695       1.69645369    
  0.573706985      -1.23136795     -0.303485990       33.8544884       1.66795051    
  0.574636996      -1.23315501       0.00000000       33.8544884       1.66795051    
  0.713741004      -1.15880203       0.00000000       33.8544884       1.66795051    
  0.712854981      -1.15688002     -0.303496987       33.8544884       1.66795051    
  0.713741004      -1.15880203       0.00000000       33.8063698       1.66721570    
  0.841937006      -1.06636095       0.00000000       33.8063698       1.66721570    
  0.841498017      -1.06573403     -0.303485990       33.8063698       1.66721570    
  0.712854981      -1.15688002     -0.303496987       33.8063698       1.66721570    
  0.841498017      -1.06573403     -0.303485990       30.4590302       1.67839265    
  0.960639000     -0.962104976     -0.303470999       30.4590302       1.67839265    
  0.964356005     -0.965893984     -0.606999993       30.4590302       1.67839265    
  0.841796994      -1.06647599     -0.606999993       30.4590302       1.67839265    
  0.841498017      -1.06573403     -0.303485990       30.4107742       1.67993665    
  0.841796994      -1.06647599     -0.606999993       30.4107742       1.67993665    
  0.713809013      -1.15876603     -0.606999993       30.4107742       1.67993665    
  0.712854981      -1.15688002     -0.303496987       30.4107742       1.67993665    
  0.841498017      -1.06573403     -0.303485990       28.4104939       1.68444514    
  0.841937006      -1.06636095       0.00000000       28.4104939       1.68444514    
  0.963932991     -0.966242015       0.00000000       28.4104939       1.68444514    
  0.960639000     -0.962104976     -0.303470999       28.4104939       1.68444514    
  0.963932991     -0.966242015       0.00000000       27.1347675       1.68820500    
   1.06506598     -0.843514979       0.00000000       27.1347675       1.68820500    
   1.06428695     -0.842682004     -0.303481996       27.1347675       1.68820500    
  0.960639000     -0.962104976     -0.303470999       27.1347675       1.68820500    
   1.06428695     -0.842682004     -0.303481996       11.0203714       1.86222196    
   1.15591598     -0.714210987     -0.303485006       11.0203714       1.86222196    
   1.15788805     -0.715448976     -0.606999993       11.0203714       1.86222196    
   1.06537795     -0.843134999     -0.606999993       11.0203714       1.86222196    
   1.06428695     -0.842682004     -0.303481996       30.1495781       1.67785108    
   1.06537795     -0.843134999     -0.606999993       30.1495781       1.67785108    
  0.964356005     -0.965893984     -0.606999993       30.1495781       1.67785108    
  0.960639000     -0.962104976     -0.303470999       30.1495781       1.67785108    
   1.06428695     -0.842682004     -0.303481996       26.5938816       1.68854654    
   1.06506598     -0.843514979       0.00000000       26.5938816       1.68854654    
   1.15792501     -0.715381980       0.00000000       26.5938816       1.68854654    
   1.15591598     -0.714210987     -0.303485006       26.5938816       1.68854654    
   1.15792501     -0.715381980       0.00000000       26.0238037       1.68891609    
   1.23237598     -0.576093972       0.00000000       26.0238037       1.68891609    
   1.23120904     -0.575251997     -0.303514004       26.0238037       1.68891609    
   1.15591598     -0.714210987     -0.303485006       26.0238037       1.68891609    
   1.23120904     -0.575251997     -0.303514004       9.99522781       1.87860453    
   1.28844094     -0.428344995     -0.303512990       9.99522781       1.87860453    
   1.28952503     -0.428642988     -0.606999993       9.99522781       1.87860453    
   1.23252702     -0.575810015     -0.606999993       9.99522781       1.87860453    
   1.23120904     -0.575251997     -0.303514004       10.6495705       1.86626613    
   1.23252702     -0.575810015     -0.606999993       10.6495705       1.86626613    
   1.15788805     -0.715448976     -0.606999993       10.6495705       1.86626613    
   1.15591598     -0.714210987     -0.303485006       10.6495705       1.86626613    
   1.23120904     -0.575251997     -0.303514004       6.28612232       2.06992197    
   1.23237598     -0.576093972       0.00000000       6.28612232       2.06992197    
   1.28947699     -0.428801000       0.00000000       6.28612232       2.06992197    
   1.28844094     -0.428344995     -0.303512990       6.28612232       2.06992197    
   1.28947699     -0.428801000       0.00000000       11.0177317       1.84047639    
   1.33532202     -0.277671993       0.00000000       11.0177317       1.84047639    
   1.33076501     -0.276203990     -0.303492010       11.0177317       1.84047639    
   1.28844094     -0.428344995     -0.303512990       11.0177317       1.84047639    
   1.33076501     -0.276203990     -0.303492010       19.9924927      -1.71488464    
   1.35229194     -0.119709998     -0.303514004       19.9924927      -1.71488464    
   1.35321999     -0.119608998     -0.606999993       19.9924927      -1.71488464    
   1.33549094     -0.277112991     -0.606999993       19.9924927      -1.71488464    
   1.33076501     -0.276203990     -0.303492010       7.72003460       1.96289635    
   1.33549094     -0.277112991     -0.606999993       7.72003460       1.96289635    
   1.28952503     -0.428642988     -0.606999993       7.72003460       1.96289635    
   1.28844094     -0.428344995     -0.303512990       7.72003460       1.96289635    
   1.33076501     -0.276203990     -0.303492010       29.4580421       1.66795182    
   1.33532202     -0.277671993       0.00000000       29.4580421       1.66795182    
   1.35319102     -0.119900003       0.00000000       29.4580421       1.66795182    
   1.35229194     -0.119709998     -0.303514004       29.4580421       1.66795182    
   1.35319102     -0.119900003       0.00000000       28.4027462       1.66882479    
   1.36124396       3.81390005E-02   0.00000000       28.4027462       1.66882479    
   1.35858905       3.79349999E-02 -0.303501010       28.4027462       1.66882479    
   1.35229194     -0.119709998     -0.303514004       28.4027462       1.66882479    
   1.35858905       3.79349999E-02 -0.303501010       3.66279411      -2.39620328    
   1.34464097      0.195331007     -0.303496003       3.66279411      -2.39620328    
   1.34573400      0.195616007     -0.606999993       3.66279411      -2.39620328    
   1.36126804       3.78950015E-02 -0.606999993       3.66279411      -2.39620328    
   1.35858905       3.79349999E-02 -0.303501010       2.89090014      -2.86128545    
   1.36126804       3.78950015E-02 -0.606999993       2.89090014      -2.86128545    
   1.35321999     -0.119608998     -0.606999993       2.89090014      -2.86128545    
   1.35229194     -0.119709998     -0.303514004       2.89090014      -2.86128545    
   1.35858905       3.79349999E-02 -0.303501010       2.77340627       2.91731381    
   1.36124396       3.81390005E-02   0.00000000       2.77340627       2.91731381    
   1.34575403      0.195406005       0.00000000       2.77340627       2.91731381    
   1.34464097      0.195331007     -0.303496003       2.77340627       2.91731381    
   1.34575403      0.195406005       0.00000000       2.63665938       3.04682708    
   1.31339800      0.349945009       0.00000000       2.63665938       3.04682708    
   1.31216300      0.349725991     -0.303487003       2.63665938       3.04682708    
   1.34464097      0.195331007     -0.303496003       2.63665938       3.04682708    
   1.31216300      0.349725991     -0.303487003       2.59809279       2.87982321    
   1.26341999      0.500032008     -0.303494006       2.59809279       2.87982321    
   1.26736605      0.501691997     -0.606999993       2.59809279       2.87982321    
   1.31333196      0.350163996     -0.606999993       2.59809279       2.87982321    
   1.31216300      0.349725991     -0.303487003       4.36875439      -2.20894837    
   1.31333196      0.350163996     -0.606999993       4.36875439      -2.20894837    
   1.34573400      0.195616007     -0.606999993       4.36875439      -2.20894837    
   1.34464097      0.195331007     -0.303496003       4.36875439      -2.20894837    
   1.31216300      0.349725991     -0.303487003       2.54753160       3.10181952    
   1.31339800      0.349945009       0.00000000       2.54753160       3.10181952    
   1.26751196      0.501209974       0.00000000       2.54753160       3.10181952    
   1.26341999      0.500032008     -0.303494006       2.54753160       3.10181952    
   1.26751196      0.501209974       0.00000000       26.1767139       1.66520357    
   1.19658697      0.643051028       0.00000000       26.1767139       1.66520357    
   1.19583094      0.642783999     -0.303505003       26.1767139       1.66520357    
   1.26341999      0.500032008     -0.303494006       26.1767139       1.66520357    
   1.19583094      0.642783999     -0.303505003       11.8947620       1.76857960    
   1.11495602      0.778467000     -0.303483993       11.8947620       1.76857960    
   1.11731696      0.779847026     -0.606999993       11.8947620       1.76857960    
   1.19653296      0.643149972     -0.606999993       11.8947620       1.76857960    
   1.19583094      0.642783999     -0.303505003       2.44085336      -3.02237701    
   1.19653296      0.643149972     -0.606999993       2.44085336      -3.02237701    
   1.26736605      0.501691997     -0.606999993       2.44085336      -3.02237701    
   1.26341999      0.500032008     -0.303494006       2.44085336      -3.02237701    
   1.19583094      0.642783999     -0.303505003       25.3040657       1.66539061    
   1.19658697      0.643051028       0.00000000       25.3040657       1.66539061    
   1.11705506      0.780165970       0.00000000       25.3040657       1.66539061    
   1.11495602      0.778467000     -0.303483993       25.3040657       1.66539061    
   1.11705506      0.780165970       0.00000000       24.3897667       1.66601515    
   1.01674199      0.902397990       0.00000000       24.3897667       1.66601515    
   1.01591504      0.901737988     -0.303478003       24.3897667       1.66601515    
   1.11495602      0.778467000     -0.303483993       24.3897667       1.66601515    
   1.01591504      0.901737988     -0.303478003       32.5187683       1.63786447    
  0.904204011       1.01322901     -0.303456992       32.5187683       1.63786447    
  0.905143023       1.01448905     -0.606999993       32.5187683       1.63786447    
   1.01659799      0.902572989     -0.606999993       32.5187683       1.63786447    
   1.01591504      0.901737988     -0.303478003       33.5602989       1.63804793    
   1.01659799      0.902572989     -0.606999993       33.5602989       1.63804793    
   1.11731696      0.779847026     -0.606999993       33.5602989       1.63804793    
   1.11495602      0.778467000     -0.303483993       33.5602989       1.63804793    
   1.01591504      0.901737988     -0.303478003       23.4512882       1.66692233    
   1.01674199      0.902397990       0.00000000       23.4512882       1.66692233    
  0.905318975       1.01434398       0.00000000       23.4512882       1.66692233    
  0.904204011       1.01322901     -0.303456992       23.4512882       1.66692233    
  0.905318975       1.01434398       0.00000000       35.7608604       1.63200128    
  0.782918990       1.11479497       0.00000000       35.7608604       1.63200128    
  0.780644000       1.11195600     -0.303485006       35.7608604       1.63200128    
  0.904204011       1.01322901     -0.303456992       35.7608604       1.63200128    
  0.780644000       1.11195600     -0.303485006       30.5678825       1.63779628    
  0.645825028       1.19414902     -0.303514004       30.5678825       1.63779628    
  0.646153986       1.19492805     -0.606999993       30.5678825       1.63779628    
  0.782611012       1.11504900     -0.606999993       30.5678825       1.63779628    
  0.780644000       1.11195600     -0.303485006       31.5137424       1.63775659    
  0.782611012       1.11504900     -0.606999993       31.5137424       1.63775659    
  0.905143023       1.01448905     -0.606999993       31.5137424       1.63775659    
  0.904204011       1.01322901     -0.303456992       31.5137424       1.63775659    
  0.780644000       1.11195600     -0.303485006       31.5621395       1.63837492    
  0.782918990       1.11479497       0.00000000       31.5621395       1.63837492    
  0.646345019       1.19482601       0.00000000       31.5621395       1.63837492    
  0.645825028       1.19414902     -0.303514004       31.5621395       1.63837492    
  0.646345019       1.19482601       0.00000000       18.1422386       1.68579721    
  0.504974008       1.26637006       0.00000000       18.1422386       1.68579721    
  0.503772974       1.26314998     -0.303521991       18.1422386       1.68579721    
  0.645825028       1.19414902     -0.303514004       18.1422386       1.68579721    
  0.503772974       1.26314998     -0.303521991       31.5596962       1.63243282    
  0.353130996       1.31116498     -0.303510994       31.5596962       1.63243282    
  0.353300005       1.31237996     -0.606999993       31.5596962       1.63243282    
  0.505183995       1.26630700     -0.606999993       31.5596962       1.63243282    
  0.503772974       1.26314998     -0.303521991       30.5085220       1.63607800    
  0.505183995       1.26630700     -0.606999993       30.5085220       1.63607800    
  0.646153986       1.19492805     -0.606999993       30.5085220       1.63607800    
  0.645825028       1.19414902     -0.303514004       30.5085220       1.63607800    
  0.503772974       1.26314998     -0.303521991       17.3954391       1.68839693    
  0.504974008       1.26637006       0.00000000       17.3954391       1.68839693    
  0.353493989       1.31232095       0.00000000       17.3954391       1.68839693    
  0.353130996       1.31116498     -0.303510994       17.3954391       1.68839693    
  0.353493989       1.31232095       0.00000000       16.7775974       1.69075060    
  0.199064001       1.34539402       0.00000000       16.7775974       1.69075060    
  0.198755994       1.34360003     -0.303496003       16.7775974       1.69075060    
  0.353130996       1.31116498     -0.303510994       16.7775974       1.69075060    
  0.198755994       1.34360003     -0.303496003       17.0812588       1.68102825    
   4.12769988E-02   1.35817802     -0.303508013       17.0812588       1.68102825    
   4.12410013E-02   1.36093795     -0.606999993       17.0812588       1.68102825    
  0.199025005       1.34539795     -0.606999993       17.0812588       1.68102825    
  0.198755994       1.34360003     -0.303496003       30.8803329       1.63259256    
  0.199025005       1.34539795     -0.606999993       30.8803329       1.63259256    
  0.353300005       1.31237996     -0.606999993       30.8803329       1.63259256    
  0.353130996       1.31116498     -0.303510994       30.8803329       1.63259256    
  0.198755994       1.34360003     -0.303496003       16.1305370       1.69402528    
  0.199064001       1.34539402       0.00000000       16.1305370       1.69402528    
   4.17769998E-02   1.36088502       0.00000000       16.1305370       1.69402528    
   4.12769988E-02   1.35817802     -0.303508013       16.1305370       1.69402528    
   4.17769998E-02   1.36088502       0.00000000       18.2122631       1.67900944    
 -0.116410002       1.35353506       0.00000000       18.2122631       1.67900944    
 -0.116471998       1.35271096     -0.303496987       18.2122631       1.67900944    
   4.12769988E-02   1.35817802     -0.303508013       18.2122631       1.67900944    
 -0.116471998       1.35271096     -0.303496987       22.1649818       1.65429318    
 -0.273027003       1.33229196     -0.303496003       22.1649818       1.65429318    
 -0.273876995       1.33647299     -0.606999993       22.1649818       1.65429318    
 -0.116722003       1.35350394     -0.606999993       22.1649818       1.65429318    
 -0.116471998       1.35271096     -0.303496987       16.2520561       1.68561614    
 -0.116722003       1.35350394     -0.606999993       16.2520561       1.68561614    
   4.12410013E-02   1.36093795     -0.606999993       16.2520561       1.68561614    
   4.12769988E-02   1.35817802     -0.303508013       16.2520561       1.68561614    
 -0.116471998       1.35271096     -0.303496987       17.9883308       1.67997289    
 -0.116410002       1.35353506       0.00000000       17.9883308       1.67997289    
 -0.274069011       1.33641505       0.00000000       17.9883308       1.67997289    
 -0.273027003       1.33229196     -0.303496003       17.9883308       1.67997289    
 -0.274069011       1.33641505       0.00000000       17.9933472       1.68007231    
 -0.425588995       1.29045200       0.00000000       17.9933472       1.68007231    
 -0.425258011       1.28953803     -0.303507000       17.9933472       1.68007231    
 -0.273027003       1.33229196     -0.303496003       17.9933472       1.68007231    
 -0.425258011       1.28953803     -0.303507000       22.3502731       1.65433252    
 -0.572302997       1.23206902     -0.303485990       22.3502731       1.65433252    
 -0.573064029       1.23399496     -0.606999993       22.3502731       1.65433252    
 -0.425651014       1.29043305     -0.606999993       22.3502731       1.65433252    
 -0.425258011       1.28953803     -0.303507000       22.0228405       1.65493453    
 -0.425651014       1.29043305     -0.606999993       22.0228405       1.65493453    
 -0.273876995       1.33647299     -0.606999993       22.0228405       1.65493453    
 -0.273027003       1.33229196     -0.303496003       22.0228405       1.65493453    
 -0.425258011       1.28953803     -0.303507000       17.6275463       1.68305051    
 -0.425588995       1.29045200       0.00000000       17.6275463       1.68305051    
 -0.573195994       1.23392498       0.00000000       17.6275463       1.68305051    
 -0.572302997       1.23206902     -0.303485990       17.6275463       1.68305051    
 -0.573195994       1.23392498       0.00000000       16.4900074       1.69210792    
 -0.712655008       1.15938199       0.00000000       16.4900074       1.69210792    
 -0.711889029       1.15749002     -0.303496003       16.4900074       1.69210792    
 -0.572302997       1.23206902     -0.303485990       16.4900074       1.69210792    
 -0.711889029       1.15749002     -0.303496003       21.8677425       1.65873611    
 -0.840825975       1.06629205     -0.303485990       21.8677425       1.65873611    
 -0.841368973       1.06682706     -0.606999993       21.8677425       1.65873611    
 -0.712980986       1.15920806     -0.606999993       21.8677425       1.65873611    
 -0.711889029       1.15749002     -0.303496003       20.6865501       1.66217303    
 -0.712980986       1.15920806     -0.606999993       20.6865501       1.66217303    
 -0.573064029       1.23399496     -0.606999993       20.6865501       1.66217303    
 -0.572302997       1.23206902     -0.303485990       20.6865501       1.66217303    
 -0.711889029       1.15749002     -0.303496003       18.5948887       1.67993581    
 -0.712655008       1.15938199       0.00000000       18.5948887       1.67993581    
 -0.841165006       1.06699395       0.00000000       18.5948887       1.67993581    
 -0.840825975       1.06629205     -0.303485990       18.5948887       1.67993581    
 -0.841165006       1.06699395       0.00000000       19.5774593       1.67636275    
 -0.963320017      0.966744006       0.00000000       19.5774593       1.67636275    
 -0.960084975      0.962615013     -0.303470999       19.5774593       1.67636275    
 -0.840825975       1.06629205     -0.303485990       19.5774593       1.67636275    
 -0.960084975      0.962615013     -0.303470999       22.7620869       1.65935612    
  -1.06383705      0.843237996     -0.303481996       22.7620869       1.65935612    
  -1.06481802      0.843816996     -0.606999993       22.7620869       1.65935612    
 -0.963873982      0.966289997     -0.606999993       22.7620869       1.65935612    
 -0.960084975      0.962615013     -0.303470999       22.6733818       1.65747797    
 -0.963873982      0.966289997     -0.606999993       22.6733818       1.65747797    
 -0.841368973       1.06682706     -0.606999993       22.6733818       1.65747797    
 -0.840825975       1.06629205     -0.303485990       22.6733818       1.65747797    
 -0.960084975      0.962615013     -0.303470999       23.0842457       1.66219831    
 -0.963320017      0.966744006       0.00000000       23.0842457       1.66219831    
  -1.06464398      0.844029009       0.00000000       23.0842457       1.66219831    
  -1.06383705      0.843237996     -0.303481996       23.0842457       1.66219831    
  -1.06464398      0.844029009       0.00000000       24.5593109       1.65888464    
  -1.15769398      0.715813994       0.00000000       24.5593109       1.65888464    
  -1.15564799      0.714680016     -0.303483993       24.5593109       1.65888464    
  -1.06383705      0.843237996     -0.303481996       24.5593109       1.65888464    
  -1.15564799      0.714680016     -0.303483993       30.6412888       1.64069450    
  -1.23108304      0.575536013     -0.303514004       30.6412888       1.64069450    
  -1.23232996      0.576179981     -0.606999993       30.6412888       1.64069450    
  -1.15756094      0.716063023     -0.606999993       30.6412888       1.64069450    
  -1.15564799      0.714680016     -0.303483993       24.8418598       1.65437019    
  -1.15756094      0.716063023     -0.606999993       24.8418598       1.65437019    
  -1.06481802      0.843816996     -0.606999993       24.8418598       1.65437019    
  -1.06383705      0.843237996     -0.303481996       24.8418598       1.65437019    
  -1.15564799      0.714680016     -0.303483993       25.9408741       1.65648019    
  -1.15769398      0.715813994       0.00000000       25.9408741       1.65648019    
  -1.23224795      0.576331973       0.00000000       25.9408741       1.65648019    
  -1.23108304      0.575536013     -0.303514004       25.9408741       1.65648019    
  -1.23224795      0.576331973       0.00000000       27.2173061       1.65485394    
  -1.28948605      0.428772002       0.00000000       27.2173061       1.65485394    
  -1.28842103      0.428404987     -0.303512990       27.2173061       1.65485394    
  -1.23108304      0.575536013     -0.303514004       27.2173061       1.65485394    
  -1.28842103      0.428404987     -0.303512990       10.7238693       1.78628588    
  -1.33082402      0.275959998     -0.303492010       10.7238693       1.78628588    
  -1.33550000      0.277083993     -0.606999993       10.7238693       1.78628588    