 VARIABLES="X" "Y" "Z" "abs(p) (Pa)" "angle(p) (rad)"
ZONE N=   2720,E =    2069, F=FEPOINT, ET=QUADRILATERAL
 -0.767116010      -1.12776399       0.00000000       5785.17139       1.65074742    
 -0.769354999      -1.12002099     -0.303523988       5785.17139       1.65074742    
 -0.896136999      -1.02028203     -0.303463012       5785.17139       1.65074742    
 -0.894908011      -1.02288902       0.00000000       5785.17139       1.65074742    
 -0.767116010      -1.12776399       0.00000000       6283.68604       1.65067816    
 -0.630888999      -1.20308697       0.00000000       6283.68604       1.65067816    
 -0.635528028      -1.19958198     -0.303541005       6283.68604       1.65067816    
 -0.769354999      -1.12002099     -0.303523988       6283.68604       1.65067816    
 -0.635528028      -1.19958198     -0.303541005       7004.21680      -1.55169094    
 -0.495362997      -1.26606500     -0.303519011       7004.21680      -1.55169094    
 -0.499298006      -1.26809204     -0.606999993       7004.21680      -1.55169094    
 -0.640147984      -1.19813800     -0.606998026       7004.21680      -1.55169094    
 -0.635528028      -1.19958198     -0.303541005       6600.03564      -1.55156922    
 -0.640147984      -1.19813800     -0.606998026       6600.03564      -1.55156922    
 -0.777105987      -1.11956596     -0.606999993       6600.03564      -1.55156922    
 -0.769354999      -1.12002099     -0.303523988       6600.03564      -1.55156922    
 -0.635528028      -1.19958198     -0.303541005       6557.76758       1.65114415    
 -0.630888999      -1.20308697       0.00000000       6557.76758       1.65114415    
 -0.494486004      -1.26955199       0.00000000       6557.76758       1.65114415    
 -0.495362997      -1.26606500     -0.303519011       6557.76758       1.65114415    
 -0.494486004      -1.26955199       0.00000000       6900.68115       1.65095723    
 -0.346311986      -1.31449997       0.00000000       6900.68115       1.65095723    
 -0.346753001      -1.31307304     -0.303510010       6900.68115       1.65095723    
 -0.495362997      -1.26606500     -0.303519011       6900.68115       1.65095723    
 -0.346753001      -1.31307304     -0.303510010       7588.55566      -1.55162001    
 -0.193608001      -1.34425998     -0.303494990       7588.55566      -1.55162001    
 -0.195028007      -1.34579206     -0.606999993       7588.55566      -1.55162001    
 -0.348751009      -1.31376004     -0.606999993       7588.55566      -1.55162001    
 -0.346753001      -1.31307304     -0.303510010       7324.34229      -1.55175328    
 -0.348751009      -1.31376004     -0.606999993       7324.34229      -1.55175328    
 -0.499298006      -1.26809204     -0.606999993       7324.34229      -1.55175328    
 -0.495362997      -1.26606500     -0.303519011       7324.34229      -1.55175328    
 -0.346753001      -1.31307304     -0.303510010       6924.82666       1.65196896    
 -0.346311986      -1.31449997       0.00000000       6924.82666       1.65196896    
 -0.193381995      -1.34595394       0.00000000       6924.82666       1.65196896    
 -0.193608001      -1.34425998     -0.303494990       6924.82666       1.65196896    
 -0.193381995      -1.34595394       0.00000000       7100.39551       1.65181005    
  -3.75179984E-02  -1.36130500       0.00000000       7100.39551       1.65181005    
  -3.73950005E-02  -1.35827899     -0.303512007       7100.39551       1.65181005    
 -0.193608001      -1.34425998     -0.303494990       7100.39551       1.65181005    
  -3.73950005E-02  -1.35827899     -0.303512007       7826.37842      -1.55130482    
  0.119547002      -1.35239303     -0.303498000       7826.37842      -1.55130482    
  0.119135000      -1.35326600     -0.606999993       7826.37842      -1.55130482    
  -3.82840000E-02  -1.36122894     -0.606998980       7826.37842      -1.55130482    
  -3.73950005E-02  -1.35827899     -0.303512007       7749.74854      -1.55152357    
  -3.82840000E-02  -1.36122894     -0.606998980       7749.74854      -1.55152357    
 -0.195028007      -1.34579206     -0.606999993       7749.74854      -1.55152357    
 -0.193608001      -1.34425998     -0.303494990       7749.74854      -1.55152357    
  -3.73950005E-02  -1.35827899     -0.303512007       6943.27148       1.65243697    
  -3.75179984E-02  -1.36130500       0.00000000       6943.27148       1.65243697    
  0.119788997      -1.35320199       0.00000000       6943.27148       1.65243697    
  0.119547002      -1.35239303     -0.303498000       6943.27148       1.65243697    
  0.119788997      -1.35320199       0.00000000       6917.85498       1.65193844    
  0.276576012      -1.33565402       0.00000000       6917.85498       1.65193844    
  0.275435001      -1.33191597     -0.303496003       6917.85498       1.65193844    
  0.119547002      -1.35239303     -0.303498000       6917.85498       1.65193844    
  0.275435001      -1.33191597     -0.303496003       7669.26904      -1.55081272    
  0.427076995      -1.28898001     -0.303507000       7669.26904      -1.55081272    
  0.427242011      -1.28995001     -0.606999993       7669.26904      -1.55081272    
  0.275831014      -1.33588004     -0.606999993       7669.26904      -1.55081272    
  0.275435001      -1.33191597     -0.303496003       7809.43799      -1.55104482    
  0.275831014      -1.33588004     -0.606999993       7809.43799      -1.55104482    
  0.119135000      -1.35326600     -0.606999993       7809.43799      -1.55104482    
  0.119547002      -1.35239303     -0.303498000       7809.43799      -1.55104482    
  0.275435001      -1.33191597     -0.303496003       6669.99072       1.65208113    
  0.276576012      -1.33565402       0.00000000       6669.99072       1.65208113    
  0.427509993      -1.28986895       0.00000000       6669.99072       1.65208113    
  0.427076995      -1.28898001     -0.303507000       6669.99072       1.65208113    
  0.427509993      -1.28986895       0.00000000       5949.79980       1.65445387    
  0.574636996      -1.23315501       0.00000000       5949.79980       1.65445387    
  0.573706985      -1.23136795     -0.303485990       5949.79980       1.65445387    
  0.427076995      -1.28898001     -0.303507000       5949.79980       1.65445387    
  0.573706985      -1.23136795     -0.303485990       7084.35840      -1.55025637    
  0.712854981      -1.15688002     -0.303496987       7084.35840      -1.55025637    
  0.713809013      -1.15876603     -0.606999993       7084.35840      -1.55025637    
  0.574283004      -1.23334301     -0.606999993       7084.35840      -1.55025637    
  0.573706985      -1.23136795     -0.303485990       7437.61182      -1.55046940    
  0.574283004      -1.23334301     -0.606999993       7437.61182      -1.55046940    
  0.427242011      -1.28995001     -0.606999993       7437.61182      -1.55046940    
  0.427076995      -1.28898001     -0.303507000       7437.61182      -1.55046940    
  0.573706985      -1.23136795     -0.303485990       5434.61914       1.65559781    
  0.574636996      -1.23315501       0.00000000       5434.61914       1.65559781    
  0.713741004      -1.15880203       0.00000000       5434.61914       1.65559781    
  0.712854981      -1.15688002     -0.303496987       5434.61914       1.65559781    
  0.713741004      -1.15880203       0.00000000       4902.41211       1.65665007    
  0.841937006      -1.06636095       0.00000000       4902.41211       1.65665007    
  0.841498017      -1.06573403     -0.303485990       4902.41211       1.65665007    
  0.712854981      -1.15688002     -0.303496987       4902.41211       1.65665007    
  0.841498017      -1.06573403     -0.303485990       6052.95361      -1.54986835    
  0.960639000     -0.962104976     -0.303470999       6052.95361      -1.54986835    
  0.964356005     -0.965893984     -0.606999993       6052.95361      -1.54986835    
  0.841796994      -1.06647599     -0.606999993       6052.95361      -1.54986835    
  0.841498017      -1.06573403     -0.303485990       6633.66699      -1.54998744    
  0.841796994      -1.06647599     -0.606999993       6633.66699      -1.54998744    
  0.713809013      -1.15876603     -0.606999993       6633.66699      -1.54998744    
  0.712854981      -1.15688002     -0.303496987       6633.66699      -1.54998744    
  0.841498017      -1.06573403     -0.303485990       4754.65527       1.65413773    
  0.841937006      -1.06636095       0.00000000       4754.65527       1.65413773    
  0.963932991     -0.966242015       0.00000000       4754.65527       1.65413773    
  0.960639000     -0.962104976     -0.303470999       4754.65527       1.65413773    
  0.963932991     -0.966242015       0.00000000       4372.20801       1.65294802    
   1.06506598     -0.843514979       0.00000000       4372.20801       1.65294802    
   1.06428695     -0.842682004     -0.303481996       4372.20801       1.65294802    
  0.960639000     -0.962104976     -0.303470999       4372.20801       1.65294802    
   1.06428695     -0.842682004     -0.303481996       4650.04834      -1.54951417    
   1.15591598     -0.714210987     -0.303485006       4650.04834      -1.54951417    
   1.15788805     -0.715448976     -0.606999993       4650.04834      -1.54951417    
   1.06537795     -0.843134999     -0.606999993       4650.04834      -1.54951417    
   1.06428695     -0.842682004     -0.303481996       5395.83643      -1.54966617    
   1.06537795     -0.843134999     -0.606999993       5395.83643      -1.54966617    
  0.964356005     -0.965893984     -0.606999993       5395.83643      -1.54966617    
  0.960639000     -0.962104976     -0.303470999       5395.83643      -1.54966617    
   1.06428695     -0.842682004     -0.303481996       3658.54785       1.65345287    
   1.06506598     -0.843514979       0.00000000       3658.54785       1.65345287    
   1.15792501     -0.715381980       0.00000000       3658.54785       1.65345287    
   1.15591598     -0.714210987     -0.303485006       3658.54785       1.65345287    
   1.15792501     -0.715381980       0.00000000       3130.32202       1.65189314    
   1.23237598     -0.576093972       0.00000000       3130.32202       1.65189314    
   1.23120904     -0.575251997     -0.303514004       3130.32202       1.65189314    
   1.15591598     -0.714210987     -0.303485006       3130.32202       1.65189314    
   1.23120904     -0.575251997     -0.303514004       3004.73389      -1.54824376    
   1.28844094     -0.428344995     -0.303512990       3004.73389      -1.54824376    
   1.28952503     -0.428642988     -0.606999993       3004.73389      -1.54824376    
   1.23252702     -0.575810015     -0.606999993       3004.73389      -1.54824376    
   1.23120904     -0.575251997     -0.303514004       3840.28369      -1.54915082    
   1.23252702     -0.575810015     -0.606999993       3840.28369      -1.54915082    
   1.15788805     -0.715448976     -0.606999993       3840.28369      -1.54915082    
   1.15591598     -0.714210987     -0.303485006       3840.28369      -1.54915082    
   1.23120904     -0.575251997     -0.303514004       2404.05273       1.65193248    
   1.23237598     -0.576093972       0.00000000       2404.05273       1.65193248    
   1.28947699     -0.428801000       0.00000000       2404.05273       1.65193248    
   1.28844094     -0.428344995     -0.303512990       2404.05273       1.65193248    
   1.28947699     -0.428801000       0.00000000       1700.39062       1.65077472    
   1.33532202     -0.277671993       0.00000000       1700.39062       1.65077472    
   1.33076501     -0.276203990     -0.303492010       1700.39062       1.65077472    
   1.28844094     -0.428344995     -0.303512990       1700.39062       1.65077472    
   1.33076501     -0.276203990     -0.303492010       1206.41003      -1.54282057    
   1.35229194     -0.119709998     -0.303514004       1206.41003      -1.54282057    
   1.35321999     -0.119608998     -0.606999993       1206.41003      -1.54282057    
   1.33549094     -0.277112991     -0.606999993       1206.41003      -1.54282057    
   1.33076501     -0.276203990     -0.303492010       2134.17627      -1.54641271    
   1.33549094     -0.277112991     -0.606999993       2134.17627      -1.54641271    
   1.28952503     -0.428642988     -0.606999993       2134.17627      -1.54641271    
   1.28844094     -0.428344995     -0.303512990       2134.17627      -1.54641271    
   1.33076501     -0.276203990     -0.303492010       940.411255       1.64702165    
   1.33532202     -0.277671993       0.00000000       940.411255       1.64702165    
   1.35319102     -0.119900003       0.00000000       940.411255       1.64702165    
   1.35229194     -0.119709998     -0.303514004       940.411255       1.64702165    
   1.35319102     -0.119900003       0.00000000       84.1860809       1.59546578    
   1.36124396       3.81390005E-02   0.00000000       84.1860809       1.59546578    
   1.35858905       3.79349999E-02 -0.303501010       84.1860809       1.59546578    
   1.35229194     -0.119709998     -0.303514004       84.1860809       1.59546578    
   1.35858905       3.79349999E-02 -0.303501010       620.689575       1.56756151    
   1.34464097      0.195331007     -0.303496003       620.689575       1.56756151    
   1.34573400      0.195616007     -0.606999993       620.689575       1.56756151    
   1.36126804       3.78950015E-02 -0.606999993       620.689575       1.56756151    
   1.35858905       3.79349999E-02 -0.303501010       298.178772      -1.50843847    
   1.36126804       3.78950015E-02 -0.606999993       298.178772      -1.50843847    
   1.35321999     -0.119608998     -0.606999993       298.178772      -1.50843847    
   1.35229194     -0.119709998     -0.303514004       298.178772      -1.50843847    
   1.35858905       3.79349999E-02 -0.303501010       693.042908      -1.48021686    
   1.36124396       3.81390005E-02   0.00000000       693.042908      -1.48021686    
   1.34575403      0.195406005       0.00000000       693.042908      -1.48021686    
   1.34464097      0.195331007     -0.303496003       693.042908      -1.48021686    
   1.34575403      0.195406005       0.00000000       1501.39172      -1.48445451    
   1.31339800      0.349945009       0.00000000       1501.39172      -1.48445451    
   1.31216300      0.349725991     -0.303487003       1501.39172      -1.48445451    
   1.34464097      0.195331007     -0.303496003       1501.39172      -1.48445451    
   1.31216300      0.349725991     -0.303487003       2441.84790       1.58417261    
   1.26341999      0.500032008     -0.303494006       2441.84790       1.58417261    
   1.26736605      0.501691997     -0.606999993       2441.84790       1.58417261    
   1.31333196      0.350163996     -0.606999993       2441.84790       1.58417261    
   1.31216300      0.349725991     -0.303487003       1529.02222       1.58020878    
   1.31333196      0.350163996     -0.606999993       1529.02222       1.58020878    
   1.34573400      0.195616007     -0.606999993       1529.02222       1.58020878    
   1.34464097      0.195331007     -0.303496003       1529.02222       1.58020878    
   1.31216300      0.349725991     -0.303487003       2373.30200      -1.48705471    
   1.31339800      0.349945009       0.00000000       2373.30200      -1.48705471    
   1.26751196      0.501209974       0.00000000       2373.30200      -1.48705471    
   1.26341999      0.500032008     -0.303494006       2373.30200      -1.48705471    
   1.26751196      0.501209974       0.00000000       3079.13159      -1.48663807    
   1.19658697      0.643051028       0.00000000       3079.13159      -1.48663807    
   1.19583094      0.642783999     -0.303505003       3079.13159      -1.48663807    
   1.26341999      0.500032008     -0.303494006       3079.13159      -1.48663807    
   1.19583094      0.642783999     -0.303505003       4142.16553       1.58617997    
   1.11495602      0.778467000     -0.303483993       4142.16553       1.58617997    
   1.11731696      0.779847026     -0.606999993       4142.16553       1.58617997    
   1.19653296      0.643149972     -0.606999993       4142.16553       1.58617997    
   1.19583094      0.642783999     -0.303505003       3313.38477       1.58563805    
   1.19653296      0.643149972     -0.606999993       3313.38477       1.58563805    
   1.26736605      0.501691997     -0.606999993       3313.38477       1.58563805    
   1.26341999      0.500032008     -0.303494006       3313.38477       1.58563805    
   1.19583094      0.642783999     -0.303505003       3724.68262      -1.48628628    
   1.19658697      0.643051028       0.00000000       3724.68262      -1.48628628    
   1.11705506      0.780165970       0.00000000       3724.68262      -1.48628628    
   1.11495602      0.778467000     -0.303483993       3724.68262      -1.48628628    
   1.11705506      0.780165970       0.00000000       4264.70947      -1.48578024    
   1.01674199      0.902397990       0.00000000       4264.70947      -1.48578024    
   1.01591504      0.901737988     -0.303478003       4264.70947      -1.48578024    
   1.11495602      0.778467000     -0.303483993       4264.70947      -1.48578024    
   1.01591504      0.901737988     -0.303478003       5624.74463       1.58721268    
  0.904204011       1.01322901     -0.303456992       5624.74463       1.58721268    
  0.905143023       1.01448905     -0.606999993       5624.74463       1.58721268    
   1.01659799      0.902572989     -0.606999993       5624.74463       1.58721268    
   1.01591504      0.901737988     -0.303478003       4901.42920       1.58667994    
   1.01659799      0.902572989     -0.606999993       4901.42920       1.58667994    
   1.11731696      0.779847026     -0.606999993       4901.42920       1.58667994    
   1.11495602      0.778467000     -0.303483993       4901.42920       1.58667994    
   1.01591504      0.901737988     -0.303478003       4647.00195      -1.48449802    
   1.01674199      0.902397990       0.00000000       4647.00195      -1.48449802    
  0.905318975       1.01434398       0.00000000       4647.00195      -1.48449802    
  0.904204011       1.01322901     -0.303456992       4647.00195      -1.48449802    
  0.905318975       1.01434398       0.00000000       5278.38086      -1.48536193    
  0.782918990       1.11479497       0.00000000       5278.38086      -1.48536193    
  0.780644000       1.11195600     -0.303485006       5278.38086      -1.48536193    
  0.904204011       1.01322901     -0.303456992       5278.38086      -1.48536193    
  0.780644000       1.11195600     -0.303485006       6794.35303       1.58763587    
  0.645825028       1.19414902     -0.303514004       6794.35303       1.58763587    
  0.646153986       1.19492805     -0.606999993       6794.35303       1.58763587    
  0.782611012       1.11504900     -0.606999993       6794.35303       1.58763587    
  0.780644000       1.11195600     -0.303485006       6256.09961       1.58746278    
  0.782611012       1.11504900     -0.606999993       6256.09961       1.58746278    
  0.905143023       1.01448905     -0.606999993       6256.09961       1.58746278    
  0.904204011       1.01322901     -0.303456992       6256.09961       1.58746278    
  0.780644000       1.11195600     -0.303485006       5668.56885      -1.48526323    
  0.782918990       1.11479497       0.00000000       5668.56885      -1.48526323    
  0.646345019       1.19482601       0.00000000       5668.56885      -1.48526323    
  0.645825028       1.19414902     -0.303514004       5668.56885      -1.48526323    
  0.646345019       1.19482601       0.00000000       6199.50586      -1.48643756    
  0.504974008       1.26637006       0.00000000       6199.50586      -1.48643756    
  0.503772974       1.26314998     -0.303521991       6199.50586      -1.48643756    
  0.645825028       1.19414902     -0.303514004       6199.50586      -1.48643756    
  0.503772974       1.26314998     -0.303521991       7516.53125       1.58750796    
  0.353130996       1.31116498     -0.303510994       7516.53125       1.58750796    
  0.353300005       1.31237996     -0.606999993       7516.53125       1.58750796    
  0.505183995       1.26630700     -0.606999993       7516.53125       1.58750796    
  0.503772974       1.26314998     -0.303521991       7202.96729       1.58756757    
  0.505183995       1.26630700     -0.606999993       7202.96729       1.58756757    
  0.646153986       1.19492805     -0.606999993       7202.96729       1.58756757    
  0.645825028       1.19414902     -0.303514004       7202.96729       1.58756757    
  0.503772974       1.26314998     -0.303521991       6592.08057      -1.48709369    
  0.504974008       1.26637006       0.00000000       6592.08057      -1.48709369    
  0.353493989       1.31232095       0.00000000       6592.08057      -1.48709369    
  0.353130996       1.31116498     -0.303510994       6592.08057      -1.48709369    
  0.353493989       1.31232095       0.00000000       6715.33545      -1.48662925    
  0.199064001       1.34539402       0.00000000       6715.33545      -1.48662925    
  0.198755994       1.34360003     -0.303496003       6715.33545      -1.48662925    
  0.353130996       1.31116498     -0.303510994       6715.33545      -1.48662925    
  0.198755994       1.34360003     -0.303496003       7822.07666       1.58736074    
   4.12769988E-02   1.35817802     -0.303508013       7822.07666       1.58736074    
   4.12410013E-02   1.36093795     -0.606999993       7822.07666       1.58736074    
  0.199025005       1.34539795     -0.606999993       7822.07666       1.58736074    
  0.198755994       1.34360003     -0.303496003       7732.59570       1.58743751    
  0.199025005       1.34539795     -0.606999993       7732.59570       1.58743751    
  0.353300005       1.31237996     -0.606999993       7732.59570       1.58743751    
  0.353130996       1.31116498     -0.303510994       7732.59570       1.58743751    
  0.198755994       1.34360003     -0.303496003       7071.43506      -1.48781884    
  0.199064001       1.34539402       0.00000000       7071.43506      -1.48781884    
   4.17769998E-02   1.36088502       0.00000000       7071.43506      -1.48781884    
   4.12769988E-02   1.35817802     -0.303508013       7071.43506      -1.48781884    
   4.17769998E-02   1.36088502       0.00000000       7115.82422      -1.48769498    
 -0.116410002       1.35353506       0.00000000       7115.82422      -1.48769498    
 -0.116471998       1.35271096     -0.303496987       7115.82422      -1.48769498    
   4.12769988E-02   1.35817802     -0.303508013       7115.82422      -1.48769498    
 -0.116471998       1.35271096     -0.303496987       7759.97949       1.58731258    
 -0.273027003       1.33229196     -0.303496003       7759.97949       1.58731258    
 -0.273876995       1.33647299     -0.606999993       7759.97949       1.58731258    
 -0.116722003       1.35350394     -0.606999993       7759.97949       1.58731258    
 -0.116471998       1.35271096     -0.303496987       7840.59131       1.58729446    
 -0.116722003       1.35350394     -0.606999993       7840.59131       1.58729446    
   4.12410013E-02   1.36093795     -0.606999993       7840.59131       1.58729446    
   4.12769988E-02   1.35817802     -0.303508013       7840.59131       1.58729446    
 -0.116471998       1.35271096     -0.303496987       7323.07471      -1.48877788    
 -0.116410002       1.35353506       0.00000000       7323.07471      -1.48877788    
 -0.274069011       1.33641505       0.00000000       7323.07471      -1.48877788    
 -0.273027003       1.33229196     -0.303496003       7323.07471      -1.48877788    
 -0.274069011       1.33641505       0.00000000       7133.16309      -1.48861337    
 -0.425588995       1.29045200       0.00000000       7133.16309      -1.48861337    
 -0.425258011       1.28953803     -0.303507000       7133.16309      -1.48861337    
 -0.273027003       1.33229196     -0.303496003       7133.16309      -1.48861337    
 -0.425258011       1.28953803     -0.303507000       7388.28027       1.58774757    
 -0.572302997       1.23206902     -0.303485990       7388.28027       1.58774757    
 -0.573064029       1.23399496     -0.606999993       7388.28027       1.58774757    
 -0.425651014       1.29043305     -0.606999993       7388.28027       1.58774757    
 -0.425258011       1.28953803     -0.303507000       7599.95557       1.58738387    
 -0.425651014       1.29043305     -0.606999993       7599.95557       1.58738387    
 -0.273876995       1.33647299     -0.606999993       7599.95557       1.58738387    
 -0.273027003       1.33229196     -0.303496003       7599.95557       1.58738387    
 -0.425258011       1.28953803     -0.303507000       6339.59814      -1.48589683    
 -0.425588995       1.29045200       0.00000000       6339.59814      -1.48589683    
 -0.573195994       1.23392498       0.00000000       6339.59814      -1.48589683    
 -0.572302997       1.23206902     -0.303485990       6339.59814      -1.48589683    
 -0.573195994       1.23392498       0.00000000       5727.12451      -1.48421860    
 -0.712655008       1.15938199       0.00000000       5727.12451      -1.48421860    
 -0.711889029       1.15749002     -0.303496003       5727.12451      -1.48421860    
 -0.572302997       1.23206902     -0.303485990       5727.12451      -1.48421860    
 -0.711889029       1.15749002     -0.303496003       6656.86768       1.58838916    
 -0.840825975       1.06629205     -0.303485990       6656.86768       1.58838916    
 -0.841368973       1.06682706     -0.606999993       6656.86768       1.58838916    
 -0.712980986       1.15920806     -0.606999993       6656.86768       1.58838916    
 -0.711889029       1.15749002     -0.303496003       7062.21582       1.58800936    
 -0.712980986       1.15920806     -0.606999993       7062.21582       1.58800936    
 -0.573064029       1.23399496     -0.606999993       7062.21582       1.58800936    
 -0.572302997       1.23206902     -0.303485990       7062.21582       1.58800936    
 -0.711889029       1.15749002     -0.303496003       4997.60986      -1.48174739    
 -0.712655008       1.15938199       0.00000000       4997.60986      -1.48174739    
 -0.841165006       1.06699395       0.00000000       4997.60986      -1.48174739    
 -0.840825975       1.06629205     -0.303485990       4997.60986      -1.48174739    
 -0.841165006       1.06699395       0.00000000       4633.83301      -1.48247302    
 -0.963320017      0.966744006       0.00000000       4633.83301      -1.48247302    
 -0.960084975      0.962615013     -0.303470999       4633.83301      -1.48247302    
 -0.840825975       1.06629205     -0.303485990       4633.83301      -1.48247302    
 -0.960084975      0.962615013     -0.303470999       5480.28760       1.58856082    
  -1.06383705      0.843237996     -0.303481996       5480.28760       1.58856082    
  -1.06481802      0.843816996     -0.606999993       5480.28760       1.58856082    
 -0.963873982      0.966289997     -0.606999993       5480.28760       1.58856082    
 -0.960084975      0.962615013     -0.303470999       6133.60400       1.58861411    
 -0.963873982      0.966289997     -0.606999993       6133.60400       1.58861411    
 -0.841368973       1.06682706     -0.606999993       6133.60400       1.58861411    
 -0.840825975       1.06629205     -0.303485990       6133.60400       1.58861411    
 -0.960084975      0.962615013     -0.303470999       4204.97363      -1.48295093    
 -0.963320017      0.966744006       0.00000000       4204.97363      -1.48295093    
  -1.06464398      0.844029009       0.00000000       4204.97363      -1.48295093    
  -1.06383705      0.843237996     -0.303481996       4204.97363      -1.48295093    
  -1.06464398      0.844029009       0.00000000       3582.05444      -1.48212206    
  -1.15769398      0.715813994       0.00000000       3582.05444      -1.48212206    
  -1.15564799      0.714680016     -0.303483993       3582.05444      -1.48212206    
  -1.06383705      0.843237996     -0.303481996       3582.05444      -1.48212206    
  -1.15564799      0.714680016     -0.303483993       3882.30518       1.58769989    
  -1.23108304      0.575536013     -0.303514004       3882.30518       1.58769989    
  -1.23232996      0.576179981     -0.606999993       3882.30518       1.58769989    
  -1.15756094      0.716063023     -0.606999993       3882.30518       1.58769989    
  -1.15564799      0.714680016     -0.303483993       4719.92383       1.58835316    
  -1.15756094      0.716063023     -0.606999993       4719.92383       1.58835316    
  -1.06481802      0.843816996     -0.606999993       4719.92383       1.58835316    
  -1.06383705      0.843237996     -0.303481996       4719.92383       1.58835316    
  -1.15564799      0.714680016     -0.303483993       3112.29443      -1.48326075    
  -1.15769398      0.715813994       0.00000000       3112.29443      -1.48326075    
  -1.23224795      0.576331973       0.00000000       3112.29443      -1.48326075    
  -1.23108304      0.575536013     -0.303514004       3112.29443      -1.48326075    
  -1.23224795      0.576331973       0.00000000       2412.27222      -1.48207200    
  -1.28948605      0.428772002       0.00000000       2412.27222      -1.48207200    
  -1.28842103      0.428404987     -0.303512990       2412.27222      -1.48207200    
  -1.23108304      0.575536013     -0.303514004       2412.27222      -1.48207200    
  -1.28842103      0.428404987     -0.303512990       2164.81836       1.58694005    
  -1.33082402      0.275959998     -0.303492010       2164.81836       1.58694005    
  -1.33550000      0.277083993     -0.606999993       2164.81836       1.58694005    