 VARIABLES="X" "Y" "Z" "abs(p) (Pa)" "angle(p) (rad)"
ZONE N=   2720,E =    2069, F=FEPOINT, ET=QUADRILATERAL
 -0.767116010      -1.12776399       0.00000000       2319.00098      -1.58985186    
 -0.769354999      -1.12002099     -0.303523988       2319.00098      -1.58985186    
 -0.896136999      -1.02028203     -0.303463012       2319.00098      -1.58985186    
 -0.894908011      -1.02288902       0.00000000       2319.00098      -1.58985186    
 -0.767116010      -1.12776399       0.00000000       1951.57263      -1.59000909    
 -0.630888999      -1.20308697       0.00000000       1951.57263      -1.59000909    
 -0.635528028      -1.19958198     -0.303541005       1951.57263      -1.59000909    
 -0.769354999      -1.12002099     -0.303523988       1951.57263      -1.59000909    
 -0.635528028      -1.19958198     -0.303541005       1162.64734      -1.59162998    
 -0.495362997      -1.26606500     -0.303519011       1162.64734      -1.59162998    
 -0.499298006      -1.26809204     -0.606999993       1162.64734      -1.59162998    
 -0.640147984      -1.19813800     -0.606998026       1162.64734      -1.59162998    
 -0.635528028      -1.19958198     -0.303541005       1438.57886      -1.59178078    
 -0.640147984      -1.19813800     -0.606998026       1438.57886      -1.59178078    
 -0.777105987      -1.11956596     -0.606999993       1438.57886      -1.59178078    
 -0.769354999      -1.12002099     -0.303523988       1438.57886      -1.59178078    
 -0.635528028      -1.19958198     -0.303541005       1574.11694      -1.58959305    
 -0.630888999      -1.20308697       0.00000000       1574.11694      -1.58959305    
 -0.494486004      -1.26955199       0.00000000       1574.11694      -1.58959305    
 -0.495362997      -1.26606500     -0.303519011       1574.11694      -1.58959305    
 -0.494486004      -1.26955199       0.00000000       1172.40796      -1.58981097    
 -0.346311986      -1.31449997       0.00000000       1172.40796      -1.58981097    
 -0.346753001      -1.31307304     -0.303510010       1172.40796      -1.58981097    
 -0.495362997      -1.26606500     -0.303519011       1172.40796      -1.58981097    
 -0.346753001      -1.31307304     -0.303510010       559.332581      -1.59163225    
 -0.193608001      -1.34425998     -0.303494990       559.332581      -1.59163225    
 -0.195028007      -1.34579206     -0.606999993       559.332581      -1.59163225    
 -0.348751009      -1.31376004     -0.606999993       559.332581      -1.59163225    
 -0.346753001      -1.31307304     -0.303510010       863.318848      -1.59183109    
 -0.348751009      -1.31376004     -0.606999993       863.318848      -1.59183109    
 -0.499298006      -1.26809204     -0.606999993       863.318848      -1.59183109    
 -0.495362997      -1.26606500     -0.303519011       863.318848      -1.59183109    
 -0.346753001      -1.31307304     -0.303510010       759.099609      -1.58972144    
 -0.346311986      -1.31449997       0.00000000       759.099609      -1.58972144    
 -0.193381995      -1.34595394       0.00000000       759.099609      -1.58972144    
 -0.193608001      -1.34425998     -0.303494990       759.099609      -1.58972144    
 -0.193381995      -1.34595394       0.00000000       333.325806      -1.59127378    
  -3.75179984E-02  -1.36130500       0.00000000       333.325806      -1.59127378    
  -3.73950005E-02  -1.35827899     -0.303512007       333.325806      -1.59127378    
 -0.193608001      -1.34425998     -0.303494990       333.325806      -1.59127378    
  -3.73950005E-02  -1.35827899     -0.303512007       73.7425766       1.54909980    
  0.119547002      -1.35239303     -0.303498000       73.7425766       1.54909980    
  0.119135000      -1.35326600     -0.606999993       73.7425766       1.54909980    
  -3.82840000E-02  -1.36122894     -0.606998980       73.7425766       1.54909980    
  -3.73950005E-02  -1.35827899     -0.303512007       246.534775      -1.59097004    
  -3.82840000E-02  -1.36122894     -0.606998980       246.534775      -1.59097004    
 -0.195028007      -1.34579206     -0.606999993       246.534775      -1.59097004    
 -0.193608001      -1.34425998     -0.303494990       246.534775      -1.59097004    
  -3.73950005E-02  -1.35827899     -0.303512007       98.0432892       1.55872095    
  -3.75179984E-02  -1.36130500       0.00000000       98.0432892       1.55872095    
  0.119788997      -1.35320199       0.00000000       98.0432892       1.55872095    
  0.119547002      -1.35239303     -0.303498000       98.0432892       1.55872095    
  0.119788997      -1.35320199       0.00000000       523.340942       1.55260694    
  0.276576012      -1.33565402       0.00000000       523.340942       1.55260694    
  0.275435001      -1.33191597     -0.303496003       523.340942       1.55260694    
  0.119547002      -1.35239303     -0.303498000       523.340942       1.55260694    
  0.275435001      -1.33191597     -0.303496003       704.516052       1.55035198    
  0.427076995      -1.28898001     -0.303507000       704.516052       1.55035198    
  0.427242011      -1.28995001     -0.606999993       704.516052       1.55035198    
  0.275831014      -1.33588004     -0.606999993       704.516052       1.55035198    
  0.275435001      -1.33191597     -0.303496003       385.790283       1.54995155    
  0.275831014      -1.33588004     -0.606999993       385.790283       1.54995155    
  0.119135000      -1.35326600     -0.606999993       385.790283       1.54995155    
  0.119547002      -1.35239303     -0.303498000       385.790283       1.54995155    
  0.275435001      -1.33191597     -0.303496003       950.873718       1.55266440    
  0.276576012      -1.33565402       0.00000000       950.873718       1.55266440    
  0.427509993      -1.28986895       0.00000000       950.873718       1.55266440    
  0.427076995      -1.28898001     -0.303507000       950.873718       1.55266440    
  0.427509993      -1.28986895       0.00000000       1357.47754       1.55256128    
  0.574636996      -1.23315501       0.00000000       1357.47754       1.55256128    
  0.573706985      -1.23136795     -0.303485990       1357.47754       1.55256128    
  0.427076995      -1.28898001     -0.303507000       1357.47754       1.55256128    
  0.573706985      -1.23136795     -0.303485990       1292.58215       1.55000079    
  0.712854981      -1.15688002     -0.303496987       1292.58215       1.55000079    
  0.713809013      -1.15876603     -0.606999993       1292.58215       1.55000079    
  0.574283004      -1.23334301     -0.606999993       1292.58215       1.55000079    
  0.573706985      -1.23136795     -0.303485990       1003.35437       1.55006707    
  0.574283004      -1.23334301     -0.606999993       1003.35437       1.55006707    
  0.427242011      -1.28995001     -0.606999993       1003.35437       1.55006707    
  0.427076995      -1.28898001     -0.303507000       1003.35437       1.55006707    
  0.573706985      -1.23136795     -0.303485990       1753.13208       1.55251598    
  0.574636996      -1.23315501       0.00000000       1753.13208       1.55251598    
  0.713741004      -1.15880203       0.00000000       1753.13208       1.55251598    
  0.712854981      -1.15688002     -0.303496987       1753.13208       1.55251598    
  0.713741004      -1.15880203       0.00000000       2123.59521       1.55247843    
  0.841937006      -1.06636095       0.00000000       2123.59521       1.55247843    
  0.841498017      -1.06573403     -0.303485990       2123.59521       1.55247843    
  0.712854981      -1.15688002     -0.303496987       2123.59521       1.55247843    
  0.841498017      -1.06573403     -0.303485990       1811.20312       1.54984748    
  0.960639000     -0.962104976     -0.303470999       1811.20312       1.54984748    
  0.964356005     -0.965893984     -0.606999993       1811.20312       1.54984748    
  0.841796994      -1.06647599     -0.606999993       1811.20312       1.54984748    
  0.841498017      -1.06573403     -0.303485990       1566.01086       1.55005586    
  0.841796994      -1.06647599     -0.606999993       1566.01086       1.55005586    
  0.713809013      -1.15876603     -0.606999993       1566.01086       1.55005586    
  0.712854981      -1.15688002     -0.303496987       1566.01086       1.55005586    
  0.841498017      -1.06573403     -0.303485990       2462.84302       1.55208921    
  0.841937006      -1.06636095       0.00000000       2462.84302       1.55208921    
  0.963932991     -0.966242015       0.00000000       2462.84302       1.55208921    
  0.960639000     -0.962104976     -0.303470999       2462.84302       1.55208921    
  0.963932991     -0.966242015       0.00000000       2772.71582       1.55209792    
   1.06506598     -0.843514979       0.00000000       2772.71582       1.55209792    
   1.06428695     -0.842682004     -0.303481996       2772.71582       1.55209792    
  0.960639000     -0.962104976     -0.303470999       2772.71582       1.55209792    
   1.06428695     -0.842682004     -0.303481996       2240.79956       1.54975879    
   1.15591598     -0.714210987     -0.303485006       2240.79956       1.54975879    
   1.15788805     -0.715448976     -0.606999993       2240.79956       1.54975879    
   1.06537795     -0.843134999     -0.606999993       2240.79956       1.54975879    
   1.06428695     -0.842682004     -0.303481996       2042.48779       1.54992735    
   1.06537795     -0.843134999     -0.606999993       2042.48779       1.54992735    
  0.964356005     -0.965893984     -0.606999993       2042.48779       1.54992735    
  0.960639000     -0.962104976     -0.303470999       2042.48779       1.54992735    
   1.06428695     -0.842682004     -0.303481996       3028.47729       1.55206406    
   1.06506598     -0.843514979       0.00000000       3028.47729       1.55206406    
   1.15792501     -0.715381980       0.00000000       3028.47729       1.55206406    
   1.15591598     -0.714210987     -0.303485006       3028.47729       1.55206406    
   1.15792501     -0.715381980       0.00000000       3262.86890       1.55192518    
   1.23237598     -0.576093972       0.00000000       3262.86890       1.55192518    
   1.23120904     -0.575251997     -0.303514004       3262.86890       1.55192518    
   1.15591598     -0.714210987     -0.303485006       3262.86890       1.55192518    
   1.23120904     -0.575251997     -0.303514004       2550.11353       1.54975438    
   1.28844094     -0.428344995     -0.303512990       2550.11353       1.54975438    
   1.28952503     -0.428642988     -0.606999993       2550.11353       1.54975438    
   1.23252702     -0.575810015     -0.606999993       2550.11353       1.54975438    
   1.23120904     -0.575251997     -0.303514004       2411.38354       1.54972959    
   1.23252702     -0.575810015     -0.606999993       2411.38354       1.54972959    
   1.15788805     -0.715448976     -0.606999993       2411.38354       1.54972959    
   1.15591598     -0.714210987     -0.303485006       2411.38354       1.54972959    
   1.23120904     -0.575251997     -0.303514004       3458.72266       1.55182564    
   1.23237598     -0.576093972       0.00000000       3458.72266       1.55182564    
   1.28947699     -0.428801000       0.00000000       3458.72266       1.55182564    
   1.28844094     -0.428344995     -0.303512990       3458.72266       1.55182564    
   1.28947699     -0.428801000       0.00000000       3614.13843       1.55188227    
   1.33532202     -0.277671993       0.00000000       3614.13843       1.55188227    
   1.33076501     -0.276203990     -0.303492010       3614.13843       1.55188227    
   1.28844094     -0.428344995     -0.303512990       3614.13843       1.55188227    
   1.33076501     -0.276203990     -0.303492010       2720.57227       1.54958296    
   1.35229194     -0.119709998     -0.303514004       2720.57227       1.54958296    
   1.35321999     -0.119608998     -0.606999993       2720.57227       1.54958296    
   1.33549094     -0.277112991     -0.606999993       2720.57227       1.54958296    
   1.33076501     -0.276203990     -0.303492010       2652.44849       1.54972255    
   1.33549094     -0.277112991     -0.606999993       2652.44849       1.54972255    
   1.28952503     -0.428642988     -0.606999993       2652.44849       1.54972255    
   1.28844094     -0.428344995     -0.303512990       2652.44849       1.54972255    
   1.33076501     -0.276203990     -0.303492010       3709.08936       1.55202234    
   1.33532202     -0.277671993       0.00000000       3709.08936       1.55202234    
   1.35319102     -0.119900003       0.00000000       3709.08936       1.55202234    
   1.35229194     -0.119709998     -0.303514004       3709.08936       1.55202234    
   1.35319102     -0.119900003       0.00000000       3748.04077       1.55201852    
   1.36124396       3.81390005E-02   0.00000000       3748.04077       1.55201852    
   1.35858905       3.79349999E-02 -0.303501010       3748.04077       1.55201852    
   1.35229194     -0.119709998     -0.303514004       3748.04077       1.55201852    
   1.35858905       3.79349999E-02 -0.303501010       2742.68774       1.54965556    
   1.34464097      0.195331007     -0.303496003       2742.68774       1.54965556    
   1.34573400      0.195616007     -0.606999993       2742.68774       1.54965556    
   1.36126804       3.78950015E-02 -0.606999993       2742.68774       1.54965556    
   1.35858905       3.79349999E-02 -0.303501010       2750.66382       1.54968953    
   1.36126804       3.78950015E-02 -0.606999993       2750.66382       1.54968953    
   1.35321999     -0.119608998     -0.606999993       2750.66382       1.54968953    
   1.35229194     -0.119709998     -0.303514004       2750.66382       1.54968953    
   1.35858905       3.79349999E-02 -0.303501010       3739.08105       1.55183756    
   1.36124396       3.81390005E-02   0.00000000       3739.08105       1.55183756    
   1.34575403      0.195406005       0.00000000       3739.08105       1.55183756    
   1.34464097      0.195331007     -0.303496003       3739.08105       1.55183756    
   1.34575403      0.195406005       0.00000000       3676.81689       1.55181217    
   1.31339800      0.349945009       0.00000000       3676.81689       1.55181217    
   1.31216300      0.349725991     -0.303487003       3676.81689       1.55181217    
   1.34464097      0.195331007     -0.303496003       3676.81689       1.55181217    
   1.31216300      0.349725991     -0.303487003       2612.40698       1.54970479    
   1.26341999      0.500032008     -0.303494006       2612.40698       1.54970479    
   1.26736605      0.501691997     -0.606999993       2612.40698       1.54970479    
   1.31333196      0.350163996     -0.606999993       2612.40698       1.54970479    
   1.31216300      0.349725991     -0.303487003       2696.86621       1.54966009    
   1.31333196      0.350163996     -0.606999993       2696.86621       1.54966009    
   1.34573400      0.195616007     -0.606999993       2696.86621       1.54966009    
   1.34464097      0.195331007     -0.303496003       2696.86621       1.54966009    
   1.31216300      0.349725991     -0.303487003       3565.57349       1.55168164    
   1.31339800      0.349945009       0.00000000       3565.57349       1.55168164    
   1.26751196      0.501209974       0.00000000       3565.57349       1.55168164    
   1.26341999      0.500032008     -0.303494006       3565.57349       1.55168164    
   1.26751196      0.501209974       0.00000000       3408.74561       1.55185878    
   1.19658697      0.643051028       0.00000000       3408.74561       1.55185878    
   1.19583094      0.642783999     -0.303505003       3408.74561       1.55185878    
   1.26341999      0.500032008     -0.303494006       3408.74561       1.55185878    
   1.19583094      0.642783999     -0.303505003       2342.26172       1.54956460    
   1.11495602      0.778467000     -0.303483993       2342.26172       1.54956460    
   1.11731696      0.779847026     -0.606999993       2342.26172       1.54956460    
   1.19653296      0.643149972     -0.606999993       2342.26172       1.54956460    
   1.19583094      0.642783999     -0.303505003       2492.23438       1.54969931    
   1.19653296      0.643149972     -0.606999993       2492.23438       1.54969931    
   1.26736605      0.501691997     -0.606999993       2492.23438       1.54969931    
   1.26341999      0.500032008     -0.303494006       2492.23438       1.54969931    
   1.19583094      0.642783999     -0.303505003       3196.17871       1.55204153    
   1.19658697      0.643051028       0.00000000       3196.17871       1.55204153    
   1.11705506      0.780165970       0.00000000       3196.17871       1.55204153    
   1.11495602      0.778467000     -0.303483993       3196.17871       1.55204153    
   1.11705506      0.780165970       0.00000000       2932.24976       1.55208564    
   1.01674199      0.902397990       0.00000000       2932.24976       1.55208564    
   1.01591504      0.901737988     -0.303478003       2932.24976       1.55208564    
   1.11495602      0.778467000     -0.303483993       2932.24976       1.55208564    
   1.01591504      0.901737988     -0.303478003       1939.67883       1.54977024    
  0.904204011       1.01322901     -0.303456992       1939.67883       1.54977024    
  0.905143023       1.01448905     -0.606999993       1939.67883       1.54977024    
   1.01659799      0.902572989     -0.606999993       1939.67883       1.54977024    
   1.01591504      0.901737988     -0.303478003       2153.29736       1.54968715    
   1.01659799      0.902572989     -0.606999993       2153.29736       1.54968715    
   1.11731696      0.779847026     -0.606999993       2153.29736       1.54968715    
   1.11495602      0.778467000     -0.303483993       2153.29736       1.54968715    
   1.01591504      0.901737988     -0.303478003       2631.03979       1.55222571    
   1.01674199      0.902397990       0.00000000       2631.03979       1.55222571    
  0.905318975       1.01434398       0.00000000       2631.03979       1.55222571    
  0.904204011       1.01322901     -0.303456992       2631.03979       1.55222571    
  0.905318975       1.01434398       0.00000000       2311.16602       1.55205202    
  0.782918990       1.11479497       0.00000000       2311.16602       1.55205202    
  0.780644000       1.11195600     -0.303485006       2311.16602       1.55205202    
  0.904204011       1.01322901     -0.303456992       2311.16602       1.55205202    
  0.780644000       1.11195600     -0.303485006       1434.95789       1.54975498    
  0.645825028       1.19414902     -0.303514004       1434.95789       1.54975498    
  0.646153986       1.19492805     -0.606999993       1434.95789       1.54975498    
  0.782611012       1.11504900     -0.606999993       1434.95789       1.54975498    
  0.780644000       1.11195600     -0.303485006       1700.34778       1.54980695    
  0.782611012       1.11504900     -0.606999993       1700.34778       1.54980695    
  0.905143023       1.01448905     -0.606999993       1700.34778       1.54980695    
  0.904204011       1.01322901     -0.303456992       1700.34778       1.54980695    
  0.780644000       1.11195600     -0.303485006       1952.69421       1.55200243    
  0.782918990       1.11479497       0.00000000       1952.69421       1.55200243    
  0.646345019       1.19482601       0.00000000       1952.69421       1.55200243    
  0.645825028       1.19414902     -0.303514004       1952.69421       1.55200243    
  0.646345019       1.19482601       0.00000000       1572.49329       1.55242145    
  0.504974008       1.26637006       0.00000000       1572.49329       1.55242145    
  0.503772974       1.26314998     -0.303521991       1572.49329       1.55242145    
  0.645825028       1.19414902     -0.303514004       1572.49329       1.55242145    
  0.503772974       1.26314998     -0.303521991       853.923035       1.54961276    
  0.353130996       1.31116498     -0.303510994       853.923035       1.54961276    
  0.353300005       1.31237996     -0.606999993       853.923035       1.54961276    
  0.505183995       1.26630700     -0.606999993       853.923035       1.54961276    
  0.503772974       1.26314998     -0.303521991       1157.60071       1.54990125    
  0.505183995       1.26630700     -0.606999993       1157.60071       1.54990125    
  0.646153986       1.19492805     -0.606999993       1157.60071       1.54990125    
  0.645825028       1.19414902     -0.303514004       1157.60071       1.54990125    
  0.503772974       1.26314998     -0.303521991       1161.88916       1.55231082    
  0.504974008       1.26637006       0.00000000       1161.88916       1.55231082    
  0.353493989       1.31232095       0.00000000       1161.88916       1.55231082    
  0.353130996       1.31116498     -0.303510994       1161.88916       1.55231082    
  0.353493989       1.31232095       0.00000000       742.376709       1.55273306    
  0.199064001       1.34539402       0.00000000       742.376709       1.55273306    
  0.198755994       1.34360003     -0.303496003       742.376709       1.55273306    
  0.353130996       1.31116498     -0.303510994       742.376709       1.55273306    
  0.198755994       1.34360003     -0.303496003       233.261932       1.55212915    
   4.12769988E-02   1.35817802     -0.303508013       233.261932       1.55212915    
   4.12410013E-02   1.36093795     -0.606999993       233.261932       1.55212915    
  0.199025005       1.34539795     -0.606999993       233.261932       1.55212915    
  0.198755994       1.34360003     -0.303496003       547.922119       1.54976666    
  0.199025005       1.34539795     -0.606999993       547.922119       1.54976666    
  0.353300005       1.31237996     -0.606999993       547.922119       1.54976666    
  0.353130996       1.31116498     -0.303510994       547.922119       1.54976666    
  0.198755994       1.34360003     -0.303496003       313.023529       1.55389094    
  0.199064001       1.34539402       0.00000000       313.023529       1.55389094    
   4.17769998E-02   1.36088502       0.00000000       313.023529       1.55389094    
   4.12769988E-02   1.35817802     -0.303508013       313.023529       1.55389094    
   4.17769998E-02   1.36088502       0.00000000       121.060661      -1.59411108    
 -0.116410002       1.35353506       0.00000000       121.060661      -1.59411108    
 -0.116471998       1.35271096     -0.303496987       121.060661      -1.59411108    
   4.12769988E-02   1.35817802     -0.303508013       121.060661      -1.59411108    
 -0.116471998       1.35271096     -0.303496987       400.804504      -1.59401298    
 -0.273027003       1.33229196     -0.303496003       400.804504      -1.59401298    
 -0.273876995       1.33647299     -0.606999993       400.804504      -1.59401298    
 -0.116722003       1.35350394     -0.606999993       400.804504      -1.59401298    
 -0.116471998       1.35271096     -0.303496987       88.2806778      -1.59688962    
 -0.116722003       1.35350394     -0.606999993       88.2806778      -1.59688962    
   4.12410013E-02   1.36093795     -0.606999993       88.2806778      -1.59688962    
   4.12769988E-02   1.35817802     -0.303508013       88.2806778      -1.59688962    
 -0.116471998       1.35271096     -0.303496987       551.593628      -1.59110010    
 -0.116410002       1.35353506       0.00000000       551.593628      -1.59110010    
 -0.274069011       1.33641505       0.00000000       551.593628      -1.59110010    
 -0.273027003       1.33229196     -0.303496003       551.593628      -1.59110010    
 -0.274069011       1.33641505       0.00000000       982.251526      -1.59013224    
 -0.425588995       1.29045200       0.00000000       982.251526      -1.59013224    
 -0.425258011       1.28953803     -0.303507000       982.251526      -1.59013224    
 -0.273027003       1.33229196     -0.303496003       982.251526      -1.59013224    
 -0.425258011       1.28953803     -0.303507000       1019.95197      -1.59245634    
 -0.572302997       1.23206902     -0.303485990       1019.95197      -1.59245634    
 -0.573064029       1.23399496     -0.606999993       1019.95197      -1.59245634    
 -0.425651014       1.29043305     -0.606999993       1019.95197      -1.59245634    
 -0.425258011       1.28953803     -0.303507000       720.224365      -1.59258842    
 -0.425651014       1.29043305     -0.606999993       720.224365      -1.59258842    
 -0.273876995       1.33647299     -0.606999993       720.224365      -1.59258842    
 -0.273027003       1.33229196     -0.303496003       720.224365      -1.59258842    
 -0.425258011       1.28953803     -0.303507000       1389.89758      -1.58990145    
 -0.425588995       1.29045200       0.00000000       1389.89758      -1.58990145    
 -0.573195994       1.23392498       0.00000000       1389.89758      -1.58990145    
 -0.572302997       1.23206902     -0.303485990       1389.89758      -1.58990145    
 -0.573195994       1.23392498       0.00000000       1785.62671      -1.58970416    
 -0.712655008       1.15938199       0.00000000       1785.62671      -1.58970416    
 -0.711889029       1.15749002     -0.303496003       1785.62671      -1.58970416    
 -0.572302997       1.23206902     -0.303485990       1785.62671      -1.58970416    
 -0.711889029       1.15749002     -0.303496003       1583.79028      -1.59206748    
 -0.840825975       1.06629205     -0.303485990       1583.79028      -1.59206748    
 -0.841368973       1.06682706     -0.606999993       1583.79028      -1.59206748    
 -0.712980986       1.15920806     -0.606999993       1583.79028      -1.59206748    
 -0.711889029       1.15749002     -0.303496003       1309.86572      -1.59222090    
 -0.712980986       1.15920806     -0.606999993       1309.86572      -1.59222090    
 -0.573064029       1.23399496     -0.606999993       1309.86572      -1.59222090    
 -0.572302997       1.23206902     -0.303485990       1309.86572      -1.59222090    
 -0.711889029       1.15749002     -0.303496003       2150.56079      -1.58954561    
 -0.712655008       1.15938199       0.00000000       2150.56079      -1.58954561    
 -0.841165006       1.06699395       0.00000000       2150.56079      -1.58954561    
 -0.840825975       1.06629205     -0.303485990       2150.56079      -1.58954561    
 -0.841165006       1.06699395       0.00000000       2486.96631      -1.58968043    
 -0.963320017      0.966744006       0.00000000       2486.96631      -1.58968043    
 -0.960084975      0.962615013     -0.303470999       2486.96631      -1.58968043    
 -0.840825975       1.06629205     -0.303485990       2486.96631      -1.58968043    
 -0.960084975      0.962615013     -0.303470999       2064.90210      -1.59198725    
  -1.06383705      0.843237996     -0.303481996       2064.90210      -1.59198725    
  -1.06481802      0.843816996     -0.606999993       2064.90210      -1.59198725    
 -0.963873982      0.966289997     -0.606999993       2064.90210      -1.59198725    
 -0.960084975      0.962615013     -0.303470999       1831.86157      -1.59212613    
 -0.963873982      0.966289997     -0.606999993       1831.86157      -1.59212613    
 -0.841368973       1.06682706     -0.606999993       1831.86157      -1.59212613    
 -0.840825975       1.06629205     -0.303485990       1831.86157      -1.59212613    
 -0.960084975      0.962615013     -0.303470999       2802.10132      -1.58966839    
 -0.963320017      0.966744006       0.00000000       2802.10132      -1.58966839    
  -1.06464398      0.844029009       0.00000000       2802.10132      -1.58966839    
  -1.06383705      0.843237996     -0.303481996       2802.10132      -1.58966839    
  -1.06464398      0.844029009       0.00000000       3074.47803      -1.58973289    
  -1.15769398      0.715813994       0.00000000       3074.47803      -1.58973289    
  -1.15564799      0.714680016     -0.303483993       3074.47803      -1.58973289    
  -1.06383705      0.843237996     -0.303481996       3074.47803      -1.58973289    
  -1.15564799      0.714680016     -0.303483993       2437.10229      -1.59209037    
  -1.23108304      0.575536013     -0.303514004       2437.10229      -1.59209037    
  -1.23232996      0.576179981     -0.606999993       2437.10229      -1.59209037    
  -1.15756094      0.716063023     -0.606999993       2437.10229      -1.59209037    
  -1.15564799      0.714680016     -0.303483993       2263.96533      -1.59204125    
  -1.15756094      0.716063023     -0.606999993       2263.96533      -1.59204125    
  -1.06481802      0.843816996     -0.606999993       2263.96533      -1.59204125    
  -1.06383705      0.843237996     -0.303481996       2263.96533      -1.59204125    
  -1.15564799      0.714680016     -0.303483993       3324.21631      -1.58988261    
  -1.15769398      0.715813994       0.00000000       3324.21631      -1.58988261    
  -1.23224795      0.576331973       0.00000000       3324.21631      -1.58988261    
  -1.23108304      0.575536013     -0.303514004       3324.21631      -1.58988261    
  -1.23224795      0.576331973       0.00000000       3515.49585      -1.58994997    
  -1.28948605      0.428772002       0.00000000       3515.49585      -1.58994997    
  -1.28842103      0.428404987     -0.303512990       3515.49585      -1.58994997    
  -1.23108304      0.575536013     -0.303514004       3515.49585      -1.58994997    
  -1.28842103      0.428404987     -0.303512990       2674.23975      -1.59202790    
  -1.33082402      0.275959998     -0.303492010       2674.23975      -1.59202790    
  -1.33550000      0.277083993     -0.606999993       2674.23975      -1.59202790    