 VARIABLES="X" "Y" "Z" "abs(p) (Pa)" "angle(p) (rad)"
ZONE N=   2720,E =    2069, F=FEPOINT, ET=QUADRILATERAL
 -0.767116010      -1.12776399       0.00000000       2467.35938      -1.43696821    
 -0.769354999      -1.12002099     -0.303523988       2467.35938      -1.43696821    
 -0.896136999      -1.02028203     -0.303463012       2467.35938      -1.43696821    
 -0.894908011      -1.02288902       0.00000000       2467.35938      -1.43696821    
 -0.767116010      -1.12776399       0.00000000       2671.81299      -1.43686545    
 -0.630888999      -1.20308697       0.00000000       2671.81299      -1.43686545    
 -0.635528028      -1.19958198     -0.303541005       2671.81299      -1.43686545    
 -0.769354999      -1.12002099     -0.303523988       2671.81299      -1.43686545    
 -0.635528028      -1.19958198     -0.303541005       3182.79980      -1.43747985    
 -0.495362997      -1.26606500     -0.303519011       3182.79980      -1.43747985    
 -0.499298006      -1.26809204     -0.606999993       3182.79980      -1.43747985    
 -0.640147984      -1.19813800     -0.606998026       3182.79980      -1.43747985    
 -0.635528028      -1.19958198     -0.303541005       2991.04321      -1.43759573    
 -0.640147984      -1.19813800     -0.606998026       2991.04321      -1.43759573    
 -0.777105987      -1.11956596     -0.606999993       2991.04321      -1.43759573    
 -0.769354999      -1.12002099     -0.303523988       2991.04321      -1.43759573    
 -0.635528028      -1.19958198     -0.303541005       2838.76831      -1.43694055    
 -0.630888999      -1.20308697       0.00000000       2838.76831      -1.43694055    
 -0.494486004      -1.26955199       0.00000000       2838.76831      -1.43694055    
 -0.495362997      -1.26606500     -0.303519011       2838.76831      -1.43694055    
 -0.494486004      -1.26955199       0.00000000       2966.81274      -1.43688071    
 -0.346311986      -1.31449997       0.00000000       2966.81274      -1.43688071    
 -0.346753001      -1.31307304     -0.303510010       2966.81274      -1.43688071    
 -0.495362997      -1.26606500     -0.303519011       2966.81274      -1.43688071    
 -0.346753001      -1.31307304     -0.303510010       3428.24243      -1.43736911    
 -0.193608001      -1.34425998     -0.303494990       3428.24243      -1.43736911    
 -0.195028007      -1.34579206     -0.606999993       3428.24243      -1.43736911    
 -0.348751009      -1.31376004     -0.606999993       3428.24243      -1.43736911    
 -0.346753001      -1.31307304     -0.303510010       3328.43872      -1.43744481    
 -0.348751009      -1.31376004     -0.606999993       3328.43872      -1.43744481    
 -0.499298006      -1.26809204     -0.606999993       3328.43872      -1.43744481    
 -0.495362997      -1.26606500     -0.303519011       3328.43872      -1.43744481    
 -0.346753001      -1.31307304     -0.303510010       3055.86768      -1.43682969    
 -0.346311986      -1.31449997       0.00000000       3055.86768      -1.43682969    
 -0.193381995      -1.34595394       0.00000000       3055.86768      -1.43682969    
 -0.193608001      -1.34425998     -0.303494990       3055.86768      -1.43682969    
 -0.193381995      -1.34595394       0.00000000       3108.17920      -1.43665481    
  -3.75179984E-02  -1.36130500       0.00000000       3108.17920      -1.43665481    
  -3.73950005E-02  -1.35827899     -0.303512007       3108.17920      -1.43665481    
 -0.193608001      -1.34425998     -0.303494990       3108.17920      -1.43665481    
  -3.73950005E-02  -1.35827899     -0.303512007       3497.69849      -1.43739235    
  0.119547002      -1.35239303     -0.303498000       3497.69849      -1.43739235    
  0.119135000      -1.35326600     -0.606999993       3497.69849      -1.43739235    
  -3.82840000E-02  -1.36122894     -0.606998980       3497.69849      -1.43739235    
  -3.73950005E-02  -1.35827899     -0.303512007       3489.10254      -1.43735790    
  -3.82840000E-02  -1.36122894     -0.606998980       3489.10254      -1.43735790    
 -0.195028007      -1.34579206     -0.606999993       3489.10254      -1.43735790    
 -0.193608001      -1.34425998     -0.303494990       3489.10254      -1.43735790    
  -3.73950005E-02  -1.35827899     -0.303512007       3116.39331      -1.43663085    
  -3.75179984E-02  -1.36130500       0.00000000       3116.39331      -1.43663085    
  0.119788997      -1.35320199       0.00000000       3116.39331      -1.43663085    
  0.119547002      -1.35239303     -0.303498000       3116.39331      -1.43663085    
  0.119788997      -1.35320199       0.00000000       3087.01880      -1.43661082    
  0.276576012      -1.33565402       0.00000000       3087.01880      -1.43661082    
  0.275435001      -1.33191597     -0.303496003       3087.01880      -1.43661082    
  0.119547002      -1.35239303     -0.303498000       3087.01880      -1.43661082    
  0.275435001      -1.33191597     -0.303496003       3396.19312      -1.43701863    
  0.427076995      -1.28898001     -0.303507000       3396.19312      -1.43701863    
  0.427242011      -1.28995001     -0.606999993       3396.19312      -1.43701863    
  0.275831014      -1.33588004     -0.606999993       3396.19312      -1.43701863    
  0.275435001      -1.33191597     -0.303496003       3476.15967      -1.43704367    
  0.275831014      -1.33588004     -0.606999993       3476.15967      -1.43704367    
  0.119135000      -1.35326600     -0.606999993       3476.15967      -1.43704367    
  0.119547002      -1.35239303     -0.303498000       3476.15967      -1.43704367    
  0.275435001      -1.33191597     -0.303496003       3016.88647      -1.43660271    
  0.276576012      -1.33565402       0.00000000       3016.88647      -1.43660271    
  0.427509993      -1.28986895       0.00000000       3016.88647      -1.43660271    
  0.427076995      -1.28898001     -0.303507000       3016.88647      -1.43660271    
  0.427509993      -1.28986895       0.00000000       2897.68018      -1.43663609    
  0.574636996      -1.23315501       0.00000000       2897.68018      -1.43663609    
  0.573706985      -1.23136795     -0.303485990       2897.68018      -1.43663609    
  0.427076995      -1.28898001     -0.303507000       2897.68018      -1.43663609    
  0.573706985      -1.23136795     -0.303485990       3094.03125      -1.43707657    
  0.712854981      -1.15688002     -0.303496987       3094.03125      -1.43707657    
  0.713809013      -1.15876603     -0.606999993       3094.03125      -1.43707657    
  0.574283004      -1.23334301     -0.606999993       3094.03125      -1.43707657    
  0.573706985      -1.23136795     -0.303485990       3263.06738      -1.43699586    
  0.574283004      -1.23334301     -0.606999993       3263.06738      -1.43699586    
  0.427242011      -1.28995001     -0.606999993       3263.06738      -1.43699586    
  0.427076995      -1.28898001     -0.303507000       3263.06738      -1.43699586    
  0.573706985      -1.23136795     -0.303485990       2743.25391      -1.43674827    
  0.574636996      -1.23315501       0.00000000       2743.25391      -1.43674827    
  0.713741004      -1.15880203       0.00000000       2743.25391      -1.43674827    
  0.712854981      -1.15688002     -0.303496987       2743.25391      -1.43674827    
  0.713741004      -1.15880203       0.00000000       2552.69946      -1.43679500    
  0.841937006      -1.06636095       0.00000000       2552.69946      -1.43679500    
  0.841498017      -1.06573403     -0.303485990       2552.69946      -1.43679500    
  0.712854981      -1.15688002     -0.303496987       2552.69946      -1.43679500    
  0.841498017      -1.06573403     -0.303485990       2629.63135      -1.43721914    
  0.960639000     -0.962104976     -0.303470999       2629.63135      -1.43721914    
  0.964356005     -0.965893984     -0.606999993       2629.63135      -1.43721914    
  0.841796994      -1.06647599     -0.606999993       2629.63135      -1.43721914    
  0.841498017      -1.06573403     -0.303485990       2879.95435      -1.43709147    
  0.841796994      -1.06647599     -0.606999993       2879.95435      -1.43709147    
  0.713809013      -1.15876603     -0.606999993       2879.95435      -1.43709147    
  0.712854981      -1.15688002     -0.303496987       2879.95435      -1.43709147    
  0.841498017      -1.06573403     -0.303485990       2339.58691      -1.43648803    
  0.841937006      -1.06636095       0.00000000       2339.58691      -1.43648803    
  0.963932991     -0.966242015       0.00000000       2339.58691      -1.43648803    
  0.960639000     -0.962104976     -0.303470999       2339.58691      -1.43648803    
  0.963932991     -0.966242015       0.00000000       2091.02734      -1.43648160    
   1.06506598     -0.843514979       0.00000000       2091.02734      -1.43648160    
   1.06428695     -0.842682004     -0.303481996       2091.02734      -1.43648160    
  0.960639000     -0.962104976     -0.303470999       2091.02734      -1.43648160    
   1.06428695     -0.842682004     -0.303481996       2021.83337      -1.43602395    
   1.15591598     -0.714210987     -0.303485006       2021.83337      -1.43602395    
   1.15788805     -0.715448976     -0.606999993       2021.83337      -1.43602395    
   1.06537795     -0.843134999     -0.606999993       2021.83337      -1.43602395    
   1.06428695     -0.842682004     -0.303481996       2347.43994      -1.43722284    
   1.06537795     -0.843134999     -0.606999993       2347.43994      -1.43722284    
  0.964356005     -0.965893984     -0.606999993       2347.43994      -1.43722284    
  0.960639000     -0.962104976     -0.303470999       2347.43994      -1.43722284    
   1.06428695     -0.842682004     -0.303481996       1801.13391      -1.43663907    
   1.06506598     -0.843514979       0.00000000       1801.13391      -1.43663907    
   1.15792501     -0.715381980       0.00000000       1801.13391      -1.43663907    
   1.15591598     -0.714210987     -0.303485006       1801.13391      -1.43663907    
   1.15792501     -0.715381980       0.00000000       1496.50500      -1.43681455    
   1.23237598     -0.576093972       0.00000000       1496.50500      -1.43681455    
   1.23120904     -0.575251997     -0.303514004       1496.50500      -1.43681455    
   1.15591598     -0.714210987     -0.303485006       1496.50500      -1.43681455    
   1.23120904     -0.575251997     -0.303514004       1308.48718      -1.43582797    
   1.28844094     -0.428344995     -0.303512990       1308.48718      -1.43582797    
   1.28952503     -0.428642988     -0.606999993       1308.48718      -1.43582797    
   1.23252702     -0.575810015     -0.606999993       1308.48718      -1.43582797    
   1.23120904     -0.575251997     -0.303514004       1678.14075      -1.43596029    
   1.23252702     -0.575810015     -0.606999993       1678.14075      -1.43596029    
   1.15788805     -0.715448976     -0.606999993       1678.14075      -1.43596029    
   1.15591598     -0.714210987     -0.303485006       1678.14075      -1.43596029    
   1.23120904     -0.575251997     -0.303514004       1170.17749      -1.43458474    
   1.23237598     -0.576093972       0.00000000       1170.17749      -1.43458474    
   1.28947699     -0.428801000       0.00000000       1170.17749      -1.43458474    
   1.28844094     -0.428344995     -0.303512990       1170.17749      -1.43458474    
   1.28947699     -0.428801000       0.00000000       811.466553      -1.43524301    
   1.33532202     -0.277671993       0.00000000       811.466553      -1.43524301    
   1.33076501     -0.276203990     -0.303492010       811.466553      -1.43524301    
   1.28844094     -0.428344995     -0.303512990       811.466553      -1.43524301    
   1.33076501     -0.276203990     -0.303492010       520.601624      -1.43234968    
   1.35229194     -0.119709998     -0.303514004       520.601624      -1.43234968    
   1.35321999     -0.119608998     -0.606999993       520.601624      -1.43234968    
   1.33549094     -0.277112991     -0.606999993       520.601624      -1.43234968    
   1.33076501     -0.276203990     -0.303492010       920.091919      -1.43552208    
   1.33549094     -0.277112991     -0.606999993       920.091919      -1.43552208    
   1.28952503     -0.428642988     -0.606999993       920.091919      -1.43552208    
   1.28844094     -0.428344995     -0.303512990       920.091919      -1.43552208    
   1.33076501     -0.276203990     -0.303492010       460.201141      -1.44076824    
   1.33532202     -0.277671993       0.00000000       460.201141      -1.44076824    
   1.35319102     -0.119900003       0.00000000       460.201141      -1.44076824    
   1.35229194     -0.119709998     -0.303514004       460.201141      -1.44076824    
   1.35319102     -0.119900003       0.00000000       91.7062378      -1.46091902    
   1.36124396       3.81390005E-02   0.00000000       91.7062378      -1.46091902    
   1.35858905       3.79349999E-02 -0.303501010       91.7062378      -1.46091902    
   1.35229194     -0.119709998     -0.303514004       91.7062378      -1.46091902    
   1.35858905       3.79349999E-02 -0.303501010       297.200897       1.70663249    
   1.34464097      0.195331007     -0.303496003       297.200897       1.70663249    
   1.34573400      0.195616007     -0.606999993       297.200897       1.70663249    
   1.36126804       3.78950015E-02 -0.606999993       297.200897       1.70663249    
   1.35858905       3.79349999E-02 -0.303501010       107.680229      -1.44432735    
   1.36126804       3.78950015E-02 -0.606999993       107.680229      -1.44432735    
   1.35321999     -0.119608998     -0.606999993       107.680229      -1.44432735    
   1.35229194     -0.119709998     -0.303514004       107.680229      -1.44432735    
   1.35858905       3.79349999E-02 -0.303501010       274.733521       1.70989788    
   1.36124396       3.81390005E-02   0.00000000       274.733521       1.70989788    
   1.34575403      0.195406005       0.00000000       274.733521       1.70989788    
   1.34464097      0.195331007     -0.303496003       274.733521       1.70989788    
   1.34575403      0.195406005       0.00000000       635.472229       1.70746624    
   1.31339800      0.349945009       0.00000000       635.472229       1.70746624    
   1.31216300      0.349725991     -0.303487003       635.472229       1.70746624    
   1.34464097      0.195331007     -0.303496003       635.472229       1.70746624    
   1.31216300      0.349725991     -0.303487003       1110.44434       1.70615554    
   1.26341999      0.500032008     -0.303494006       1110.44434       1.70615554    
   1.26736605      0.501691997     -0.606999993       1110.44434       1.70615554    
   1.31333196      0.350163996     -0.606999993       1110.44434       1.70615554    
   1.31216300      0.349725991     -0.303487003       701.407043       1.70560348    
   1.31333196      0.350163996     -0.606999993       701.407043       1.70560348    
   1.34573400      0.195616007     -0.606999993       701.407043       1.70560348    
   1.34464097      0.195331007     -0.303496003       701.407043       1.70560348    
   1.31216300      0.349725991     -0.303487003       990.618896       1.70685661    
   1.31339800      0.349945009       0.00000000       990.618896       1.70685661    
   1.26751196      0.501209974       0.00000000       990.618896       1.70685661    
   1.26341999      0.500032008     -0.303494006       990.618896       1.70685661    
   1.26751196      0.501209974       0.00000000       1318.21863       1.70729196    
   1.19658697      0.643051028       0.00000000       1318.21863       1.70729196    
   1.19583094      0.642783999     -0.303505003       1318.21863       1.70729196    
   1.26341999      0.500032008     -0.303494006       1318.21863       1.70729196    
   1.19583094      0.642783999     -0.303505003       1850.68872       1.70582676    
   1.11495602      0.778467000     -0.303483993       1850.68872       1.70582676    
   1.11731696      0.779847026     -0.606999993       1850.68872       1.70582676    
   1.19653296      0.643149972     -0.606999993       1850.68872       1.70582676    
   1.19583094      0.642783999     -0.303505003       1485.78577       1.70571005    
   1.19653296      0.643149972     -0.606999993       1485.78577       1.70571005    
   1.26736605      0.501691997     -0.606999993       1485.78577       1.70571005    
   1.26341999      0.500032008     -0.303494006       1485.78577       1.70571005    
   1.19583094      0.642783999     -0.303505003       1642.37354       1.70694602    
   1.19658697      0.643051028       0.00000000       1642.37354       1.70694602    
   1.11705506      0.780165970       0.00000000       1642.37354       1.70694602    
   1.11495602      0.778467000     -0.303483993       1642.37354       1.70694602    
   1.11705506      0.780165970       0.00000000       1935.67700       1.70667386    
   1.01674199      0.902397990       0.00000000       1935.67700       1.70667386    
   1.01591504      0.901737988     -0.303478003       1935.67700       1.70667386    
   1.11495602      0.778467000     -0.303483993       1935.67700       1.70667386    
   1.01591504      0.901737988     -0.303478003       2484.53247       1.70587015    
  0.904204011       1.01322901     -0.303456992       2484.53247       1.70587015    
  0.905143023       1.01448905     -0.606999993       2484.53247       1.70587015    
   1.01659799      0.902572989     -0.606999993       2484.53247       1.70587015    
   1.01591504      0.901737988     -0.303478003       2180.35864       1.70600212    
   1.01659799      0.902572989     -0.606999993       2180.35864       1.70600212    
   1.11731696      0.779847026     -0.606999993       2180.35864       1.70600212    
   1.11495602      0.778467000     -0.303483993       2180.35864       1.70600212    
   1.01591504      0.901737988     -0.303478003       2206.59692       1.70651710    
   1.01674199      0.902397990       0.00000000       2206.59692       1.70651710    
  0.905318975       1.01434398       0.00000000       2206.59692       1.70651710    
  0.904204011       1.01322901     -0.303456992       2206.59692       1.70651710    
  0.905318975       1.01434398       0.00000000       2451.80566       1.70657218    
  0.782918990       1.11479497       0.00000000       2451.80566       1.70657218    
  0.780644000       1.11195600     -0.303485006       2451.80566       1.70657218    
  0.904204011       1.01322901     -0.303456992       2451.80566       1.70657218    
  0.780644000       1.11195600     -0.303485006       2991.63550       1.70558047    
  0.645825028       1.19414902     -0.303514004       2991.63550       1.70558047    
  0.646153986       1.19492805     -0.606999993       2991.63550       1.70558047    
  0.782611012       1.11504900     -0.606999993       2991.63550       1.70558047    
  0.780644000       1.11195600     -0.303485006       2760.16602       1.70570874    
  0.782611012       1.11504900     -0.606999993       2760.16602       1.70570874    
  0.905143023       1.01448905     -0.606999993       2760.16602       1.70570874    
  0.904204011       1.01322901     -0.303456992       2760.16602       1.70570874    
  0.780644000       1.11195600     -0.303485006       2662.31006       1.70640743    
  0.782918990       1.11479497       0.00000000       2662.31006       1.70640743    
  0.646345019       1.19482601       0.00000000       2662.31006       1.70640743    
  0.645825028       1.19414902     -0.303514004       2662.31006       1.70640743    
  0.646345019       1.19482601       0.00000000       2838.62646       1.70619476    
  0.504974008       1.26637006       0.00000000       2838.62646       1.70619476    
  0.503772974       1.26314998     -0.303521991       2838.62646       1.70619476    
  0.645825028       1.19414902     -0.303514004       2838.62646       1.70619476    
  0.503772974       1.26314998     -0.303521991       3340.24048       1.70552695    
  0.353130996       1.31116498     -0.303510994       3340.24048       1.70552695    
  0.353300005       1.31237996     -0.606999993       3340.24048       1.70552695    
  0.505183995       1.26630700     -0.606999993       3340.24048       1.70552695    
  0.503772974       1.26314998     -0.303521991       3189.64502       1.70555758    
  0.505183995       1.26630700     -0.606999993       3189.64502       1.70555758    
  0.646153986       1.19492805     -0.606999993       3189.64502       1.70555758    
  0.645825028       1.19414902     -0.303514004       3189.64502       1.70555758    
  0.503772974       1.26314998     -0.303521991       2971.87866       1.70612752    
  0.504974008       1.26637006       0.00000000       2971.87866       1.70612752    
  0.353493989       1.31232095       0.00000000       2971.87866       1.70612752    
  0.353130996       1.31116498     -0.303510994       2971.87866       1.70612752    
  0.353493989       1.31232095       0.00000000       3064.84082       1.70609128    
  0.199064001       1.34539402       0.00000000       3064.84082       1.70609128    
  0.198755994       1.34360003     -0.303496003       3064.84082       1.70609128    
  0.353130996       1.31116498     -0.303510994       3064.84082       1.70609128    
  0.198755994       1.34360003     -0.303496003       3504.58032       1.70535052    
   4.12769988E-02   1.35817802     -0.303508013       3504.58032       1.70535052    
   4.12410013E-02   1.36093795     -0.606999993       3504.58032       1.70535052    
  0.199025005       1.34539795     -0.606999993       3504.58032       1.70535052    
  0.198755994       1.34360003     -0.303496003       3442.98511       1.70551455    
  0.199025005       1.34539795     -0.606999993       3442.98511       1.70551455    
  0.353300005       1.31237996     -0.606999993       3442.98511       1.70551455    
  0.353130996       1.31116498     -0.303510994       3442.98511       1.70551455    
  0.198755994       1.34360003     -0.303496003       3118.96802       1.70608687    
  0.199064001       1.34539402       0.00000000       3118.96802       1.70608687    
   4.17769998E-02   1.36088502       0.00000000       3118.96802       1.70608687    
   4.12769988E-02   1.35817802     -0.303508013       3118.96802       1.70608687    
   4.17769998E-02   1.36088502       0.00000000       3130.38330       1.70622158    
 -0.116410002       1.35353506       0.00000000       3130.38330       1.70622158    
 -0.116471998       1.35271096     -0.303496987       3130.38330       1.70622158    
   4.12769988E-02   1.35817802     -0.303508013       3130.38330       1.70622158    
 -0.116471998       1.35271096     -0.303496987       3491.59448       1.70584154    
 -0.273027003       1.33229196     -0.303496003       3491.59448       1.70584154    
 -0.273876995       1.33647299     -0.606999993       3491.59448       1.70584154    
 -0.116722003       1.35350394     -0.606999993       3491.59448       1.70584154    
 -0.116471998       1.35271096     -0.303496987       3514.49390       1.70535886    
 -0.116722003       1.35350394     -0.606999993       3514.49390       1.70535886    
   4.12410013E-02   1.36093795     -0.606999993       3514.49390       1.70535886    
   4.12769988E-02   1.35817802     -0.303508013       3514.49390       1.70535886    
 -0.116471998       1.35271096     -0.303496987       3102.31714       1.70625365    
 -0.116410002       1.35353506       0.00000000       3102.31714       1.70625365    
 -0.274069011       1.33641505       0.00000000       3102.31714       1.70625365    
 -0.273027003       1.33229196     -0.303496003       3102.31714       1.70625365    
 -0.274069011       1.33641505       0.00000000       3031.42236       1.70630002    
 -0.425588995       1.29045200       0.00000000       3031.42236       1.70630002    
 -0.425258011       1.28953803     -0.303507000       3031.42236       1.70630002    
 -0.273027003       1.33229196     -0.303496003       3031.42236       1.70630002    
 -0.425258011       1.28953803     -0.303507000       3275.29858       1.70604396    
 -0.572302997       1.23206902     -0.303485990       3275.29858       1.70604396    
 -0.573064029       1.23399496     -0.606999993       3275.29858       1.70604396    
 -0.425651014       1.29043305     -0.606999993       3275.29858       1.70604396    
 -0.425258011       1.28953803     -0.303507000       3410.67139       1.70592034    
 -0.425651014       1.29043305     -0.606999993       3410.67139       1.70592034    
 -0.273876995       1.33647299     -0.606999993       3410.67139       1.70592034    
 -0.273027003       1.33229196     -0.303496003       3410.67139       1.70592034    
 -0.425258011       1.28953803     -0.303507000       2909.86353       1.70629644    
 -0.425588995       1.29045200       0.00000000       2909.86353       1.70629644    
 -0.573195994       1.23392498       0.00000000       2909.86353       1.70629644    
 -0.572302997       1.23206902     -0.303485990       2909.86353       1.70629644    
 -0.573195994       1.23392498       0.00000000       2752.93433       1.70629776    
 -0.712655008       1.15938199       0.00000000       2752.93433       1.70629776    
 -0.711889029       1.15749002     -0.303496003       2752.93433       1.70629776    
 -0.572302997       1.23206902     -0.303485990       2752.93433       1.70629776    
 -0.711889029       1.15749002     -0.303496003       2887.81445       1.70636475    
 -0.840825975       1.06629205     -0.303485990       2887.81445       1.70636475    
 -0.841368973       1.06682706     -0.606999993       2887.81445       1.70636475    
 -0.712980986       1.15920806     -0.606999993       2887.81445       1.70636475    
 -0.711889029       1.15749002     -0.303496003       3104.26099       1.70615780    
 -0.712980986       1.15920806     -0.606999993       3104.26099       1.70615780    
 -0.573064029       1.23399496     -0.606999993       3104.26099       1.70615780    
 -0.572302997       1.23206902     -0.303485990       3104.26099       1.70615780    
 -0.711889029       1.15749002     -0.303496003       2554.96729       1.70645797    
 -0.712655008       1.15938199       0.00000000       2554.96729       1.70645797    
 -0.841165006       1.06699395       0.00000000       2554.96729       1.70645797    
 -0.840825975       1.06629205     -0.303485990       2554.96729       1.70645797    
 -0.841165006       1.06699395       0.00000000       2327.88745       1.70663285    
 -0.963320017      0.966744006       0.00000000       2327.88745       1.70663285    
 -0.960084975      0.962615013     -0.303470999       2327.88745       1.70663285    
 -0.840825975       1.06629205     -0.303485990       2327.88745       1.70663285    
 -0.960084975      0.962615013     -0.303470999       2350.95630       1.70673275    
  -1.06383705      0.843237996     -0.303481996       2350.95630       1.70673275    
  -1.06481802      0.843816996     -0.606999993       2350.95630       1.70673275    
 -0.963873982      0.966289997     -0.606999993       2350.95630       1.70673275    
 -0.960084975      0.962615013     -0.303470999       2634.89160       1.70645392    
 -0.963873982      0.966289997     -0.606999993       2634.89160       1.70645392    
 -0.841368973       1.06682706     -0.606999993       2634.89160       1.70645392    
 -0.840825975       1.06629205     -0.303485990       2634.89160       1.70645392    
 -0.960084975      0.962615013     -0.303470999       2077.97632       1.70690179    
 -0.963320017      0.966744006       0.00000000       2077.97632       1.70690179    
  -1.06464398      0.844029009       0.00000000       2077.97632       1.70690179    
  -1.06383705      0.843237996     -0.303481996       2077.97632       1.70690179    
  -1.06464398      0.844029009       0.00000000       1789.07666       1.70717037    
  -1.15769398      0.715813994       0.00000000       1789.07666       1.70717037    
  -1.15564799      0.714680016     -0.303483993       1789.07666       1.70717037    
  -1.06383705      0.843237996     -0.303481996       1789.07666       1.70717037    
  -1.15564799      0.714680016     -0.303483993       1677.17456       1.70782804    
  -1.23108304      0.575536013     -0.303514004       1677.17456       1.70782804    
  -1.23232996      0.576179981     -0.606999993       1677.17456       1.70782804    
  -1.15756094      0.716063023     -0.606999993       1677.17456       1.70782804    
  -1.15564799      0.714680016     -0.303483993       2024.64758       1.70713484    
  -1.15756094      0.716063023     -0.606999993       2024.64758       1.70713484    
  -1.06481802      0.843816996     -0.606999993       2024.64758       1.70713484    
  -1.06383705      0.843237996     -0.303481996       2024.64758       1.70713484    
  -1.15564799      0.714680016     -0.303483993       1485.16968       1.70759809    
  -1.15769398      0.715813994       0.00000000       1485.16968       1.70759809    
  -1.23224795      0.576331973       0.00000000       1485.16968       1.70759809    
  -1.23108304      0.575536013     -0.303514004       1485.16968       1.70759809    
  -1.23224795      0.576331973       0.00000000       1158.15662       1.70829642    
  -1.28948605      0.428772002       0.00000000       1158.15662       1.70829642    
  -1.28842103      0.428404987     -0.303512990       1158.15662       1.70829642    
  -1.23108304      0.575536013     -0.303514004       1158.15662       1.70829642    
  -1.28842103      0.428404987     -0.303512990       924.631714       1.70937753    
  -1.33082402      0.275959998     -0.303492010       924.631714       1.70937753    
  -1.33550000      0.277083993     -0.606999993       924.631714       1.70937753    