 VARIABLES="X" "Y" "Z" "abs(p) (Pa)" "angle(p) (rad)"
ZONE N=   2720,E =    2069, F=FEPOINT, ET=QUADRILATERAL
 -0.767116010      -1.12776399       0.00000000       8.97053146      -1.58223414    
 -0.769354999      -1.12002099     -0.303523988       8.97053146      -1.58223414    
 -0.896136999      -1.02028203     -0.303463012       8.97053146      -1.58223414    
 -0.894908011      -1.02288902       0.00000000       8.97053146      -1.58223414    
 -0.767116010      -1.12776399       0.00000000       9.72594833       1.59486485    
 -0.630888999      -1.20308697       0.00000000       9.72594833       1.59486485    
 -0.635528028      -1.19958198     -0.303541005       9.72594833       1.59486485    
 -0.769354999      -1.12002099     -0.303523988       9.72594833       1.59486485    
 -0.635528028      -1.19958198     -0.303541005       9.20530319      -1.57143116    
 -0.495362997      -1.26606500     -0.303519011       9.20530319      -1.57143116    
 -0.499298006      -1.26809204     -0.606999993       9.20530319      -1.57143116    
 -0.640147984      -1.19813800     -0.606998026       9.20530319      -1.57143116    
 -0.635528028      -1.19958198     -0.303541005       7.66965294       1.57087994    
 -0.640147984      -1.19813800     -0.606998026       7.66965294       1.57087994    
 -0.777105987      -1.11956596     -0.606999993       7.66965294       1.57087994    
 -0.769354999      -1.12002099     -0.303523988       7.66965294       1.57087994    
 -0.635528028      -1.19958198     -0.303541005       8.01739216      -1.60631192    
 -0.630888999      -1.20308697       0.00000000       8.01739216      -1.60631192    
 -0.494486004      -1.26955199       0.00000000       8.01739216      -1.60631192    
 -0.495362997      -1.26606500     -0.303519011       8.01739216      -1.60631192    
 -0.494486004      -1.26955199       0.00000000       7.45551777       1.60492730    
 -0.346311986      -1.31449997       0.00000000       7.45551777       1.60492730    
 -0.346753001      -1.31307304     -0.303510010       7.45551777       1.60492730    
 -0.495362997      -1.26606500     -0.303519011       7.45551777       1.60492730    
 -0.346753001      -1.31307304     -0.303510010      0.529291749      -1.61589170    
 -0.193608001      -1.34425998     -0.303494990      0.529291749      -1.61589170    
 -0.195028007      -1.34579206     -0.606999993      0.529291749      -1.61589170    
 -0.348751009      -1.31376004     -0.606999993      0.529291749      -1.61589170    
 -0.346753001      -1.31307304     -0.303510010       7.87788916       1.57267356    
 -0.348751009      -1.31376004     -0.606999993       7.87788916       1.57267356    
 -0.499298006      -1.26809204     -0.606999993       7.87788916       1.57267356    
 -0.495362997      -1.26606500     -0.303519011       7.87788916       1.57267356    
 -0.346753001      -1.31307304     -0.303510010      0.579577684      -1.84338832    
 -0.346311986      -1.31449997       0.00000000      0.579577684      -1.84338832    
 -0.193381995      -1.34595394       0.00000000      0.579577684      -1.84338832    
 -0.193608001      -1.34425998     -0.303494990      0.579577684      -1.84338832    
 -0.193381995      -1.34595394       0.00000000       5.42937756      -1.58094919    
  -3.75179984E-02  -1.36130500       0.00000000       5.42937756      -1.58094919    
  -3.73950005E-02  -1.35827899     -0.303512007       5.42937756      -1.58094919    
 -0.193608001      -1.34425998     -0.303494990       5.42937756      -1.58094919    
  -3.73950005E-02  -1.35827899     -0.303512007       4.37274742       1.57890356    
  0.119547002      -1.35239303     -0.303498000       4.37274742       1.57890356    
  0.119135000      -1.35326600     -0.606999993       4.37274742       1.57890356    
  -3.82840000E-02  -1.36122894     -0.606998980       4.37274742       1.57890356    
  -3.73950005E-02  -1.35827899     -0.303512007       4.58590841      -1.57776475    
  -3.82840000E-02  -1.36122894     -0.606998980       4.58590841      -1.57776475    
 -0.195028007      -1.34579206     -0.606999993       4.58590841      -1.57776475    
 -0.193608001      -1.34425998     -0.303494990       4.58590841      -1.57776475    
  -3.73950005E-02  -1.35827899     -0.303512007       3.73800421       1.57235563    
  -3.75179984E-02  -1.36130500       0.00000000       3.73800421       1.57235563    
  0.119788997      -1.35320199       0.00000000       3.73800421       1.57235563    
  0.119547002      -1.35239303     -0.303498000       3.73800421       1.57235563    
  0.119788997      -1.35320199       0.00000000       13.2585726      -1.57314706    
  0.276576012      -1.33565402       0.00000000       13.2585726      -1.57314706    
  0.275435001      -1.33191597     -0.303496003       13.2585726      -1.57314706    
  0.119547002      -1.35239303     -0.303498000       13.2585726      -1.57314706    
  0.275435001      -1.33191597     -0.303496003       11.5255861       1.57247233    
  0.427076995      -1.28898001     -0.303507000       11.5255861       1.57247233    
  0.427242011      -1.28995001     -0.606999993       11.5255861       1.57247233    
  0.275831014      -1.33588004     -0.606999993       11.5255861       1.57247233    
  0.275435001      -1.33191597     -0.303496003       12.7248344      -1.57323480    
  0.275831014      -1.33588004     -0.606999993       12.7248344      -1.57323480    
  0.119135000      -1.35326600     -0.606999993       12.7248344      -1.57323480    
  0.119547002      -1.35239303     -0.303498000       12.7248344      -1.57323480    
  0.275435001      -1.33191597     -0.303496003       11.6333466       1.58072281    
  0.276576012      -1.33565402       0.00000000       11.6333466       1.58072281    
  0.427509993      -1.28986895       0.00000000       11.6333466       1.58072281    
  0.427076995      -1.28898001     -0.303507000       11.6333466       1.58072281    
  0.427509993      -1.28986895       0.00000000       1.80402040      -1.69379973    
  0.574636996      -1.23315501       0.00000000       1.80402040      -1.69379973    
  0.573706985      -1.23136795     -0.303485990       1.80402040      -1.69379973    
  0.427076995      -1.28898001     -0.303507000       1.80402040      -1.69379973    
  0.573706985      -1.23136795     -0.303485990       1.72397316      -1.56716502    
  0.712854981      -1.15688002     -0.303496987       1.72397316      -1.56716502    
  0.713809013      -1.15876603     -0.606999993       1.72397316      -1.56716502    
  0.574283004      -1.23334301     -0.606999993       1.72397316      -1.56716502    
  0.573706985      -1.23136795     -0.303485990       2.04266882      -1.57370579    
  0.574283004      -1.23334301     -0.606999993       2.04266882      -1.57370579    
  0.427242011      -1.28995001     -0.606999993       2.04266882      -1.57370579    
  0.427076995      -1.28898001     -0.303507000       2.04266882      -1.57370579    
  0.573706985      -1.23136795     -0.303485990       1.80478525      -1.73029351    
  0.574636996      -1.23315501       0.00000000       1.80478525      -1.73029351    
  0.713741004      -1.15880203       0.00000000       1.80478525      -1.73029351    
  0.712854981      -1.15688002     -0.303496987       1.80478525      -1.73029351    
  0.713741004      -1.15880203       0.00000000       2.74378490       1.66933322    
  0.841937006      -1.06636095       0.00000000       2.74378490       1.66933322    
  0.841498017      -1.06573403     -0.303485990       2.74378490       1.66933322    
  0.712854981      -1.15688002     -0.303496987       2.74378490       1.66933322    
  0.841498017      -1.06573403     -0.303485990       12.1858330      -1.56933939    
  0.960639000     -0.962104976     -0.303470999       12.1858330      -1.56933939    
  0.964356005     -0.965893984     -0.606999993       12.1858330      -1.56933939    
  0.841796994      -1.06647599     -0.606999993       12.1858330      -1.56933939    
  0.841498017      -1.06573403     -0.303485990       2.99775672       1.56580925    
  0.841796994      -1.06647599     -0.606999993       2.99775672       1.56580925    
  0.713809013      -1.15876603     -0.606999993       2.99775672       1.56580925    
  0.712854981      -1.15688002     -0.303496987       2.99775672       1.56580925    
  0.841498017      -1.06573403     -0.303485990       12.4826365      -1.58456385    
  0.841937006      -1.06636095       0.00000000       12.4826365      -1.58456385    
  0.963932991     -0.966242015       0.00000000       12.4826365      -1.58456385    
  0.960639000     -0.962104976     -0.303470999       12.4826365      -1.58456385    
  0.963932991     -0.966242015       0.00000000       13.4662619       1.57149601    
   1.06506598     -0.843514979       0.00000000       13.4662619       1.57149601    
   1.06428695     -0.842682004     -0.303481996       13.4662619       1.57149601    
  0.960639000     -0.962104976     -0.303470999       13.4662619       1.57149601    
   1.06428695     -0.842682004     -0.303481996       3.83286285      -1.56610060    
   1.15591598     -0.714210987     -0.303485006       3.83286285      -1.56610060    
   1.15788805     -0.715448976     -0.606999993       3.83286285      -1.56610060    
   1.06537795     -0.843134999     -0.606999993       3.83286285      -1.56610060    
   1.06428695     -0.842682004     -0.303481996       13.1892338       1.56958091    
   1.06537795     -0.843134999     -0.606999993       13.1892338       1.56958091    
  0.964356005     -0.965893984     -0.606999993       13.1892338       1.56958091    
  0.960639000     -0.962104976     -0.303470999       13.1892338       1.56958091    
   1.06428695     -0.842682004     -0.303481996       3.71111870      -1.52349770    
   1.06506598     -0.843514979       0.00000000       3.71111870      -1.52349770    
   1.15792501     -0.715381980       0.00000000       3.71111870      -1.52349770    
   1.15591598     -0.714210987     -0.303485006       3.71111870      -1.52349770    
   1.15792501     -0.715381980       0.00000000       1.07687712       1.28754008    
   1.23237598     -0.576093972       0.00000000       1.07687712       1.28754008    
   1.23120904     -0.575251997     -0.303514004       1.07687712       1.28754008    
   1.15591598     -0.714210987     -0.303485006       1.07687712       1.28754008    
   1.23120904     -0.575251997     -0.303514004       3.40876055       1.56204641    
   1.28844094     -0.428344995     -0.303512990       3.40876055       1.56204641    
   1.28952503     -0.428642988     -0.606999993       3.40876055       1.56204641    
   1.23252702     -0.575810015     -0.606999993       3.40876055       1.56204641    
   1.23120904     -0.575251997     -0.303514004       1.01598179       1.54884982    
   1.23252702     -0.575810015     -0.606999993       1.01598179       1.54884982    
   1.15788805     -0.715448976     -0.606999993       1.01598179       1.54884982    
   1.15591598     -0.714210987     -0.303485006       1.01598179       1.54884982    
   1.23120904     -0.575251997     -0.303514004       3.36759496       1.47244036    
   1.23237598     -0.576093972       0.00000000       3.36759496       1.47244036    
   1.28947699     -0.428801000       0.00000000       3.36759496       1.47244036    
   1.28844094     -0.428344995     -0.303512990       3.36759496       1.47244036    
   1.28947699     -0.428801000       0.00000000       9.58252239      -1.54140913    
   1.33532202     -0.277671993       0.00000000       9.58252239      -1.54140913    
   1.33076501     -0.276203990     -0.303492010       9.58252239      -1.54140913    
   1.28844094     -0.428344995     -0.303512990       9.58252239      -1.54140913    
   1.33076501     -0.276203990     -0.303492010       10.5286102       1.56562138    
   1.35229194     -0.119709998     -0.303514004       10.5286102       1.56562138    
   1.35321999     -0.119608998     -0.606999993       10.5286102       1.56562138    
   1.33549094     -0.277112991     -0.606999993       10.5286102       1.56562138    
   1.33076501     -0.276203990     -0.303492010       9.64687443      -1.56652784    
   1.33549094     -0.277112991     -0.606999993       9.64687443      -1.56652784    
   1.28952503     -0.428642988     -0.606999993       9.64687443      -1.56652784    
   1.28844094     -0.428344995     -0.303512990       9.64687443      -1.56652784    
   1.33076501     -0.276203990     -0.303492010       11.0224810       1.55325329    
   1.33532202     -0.277671993       0.00000000       11.0224810       1.55325329    
   1.35319102     -0.119900003       0.00000000       11.0224810       1.55325329    
   1.35229194     -0.119709998     -0.303514004       11.0224810       1.55325329    
   1.35319102     -0.119900003       0.00000000       5.85926723      -1.55159163    
   1.36124396       3.81390005E-02   0.00000000       5.85926723      -1.55159163    
   1.35858905       3.79349999E-02 -0.303501010       5.85926723      -1.55159163    
   1.35229194     -0.119709998     -0.303514004       5.85926723      -1.55159163    
   1.35858905       3.79349999E-02 -0.303501010       3.78230953       1.55383575    
   1.34464097      0.195331007     -0.303496003       3.78230953       1.55383575    
   1.34573400      0.195616007     -0.606999993       3.78230953       1.55383575    
   1.36126804       3.78950015E-02 -0.606999993       3.78230953       1.55383575    
   1.35858905       3.79349999E-02 -0.303501010       6.26313496      -1.56085181    
   1.36126804       3.78950015E-02 -0.606999993       6.26313496      -1.56085181    
   1.35321999     -0.119608998     -0.606999993       6.26313496      -1.56085181    
   1.35229194     -0.119709998     -0.303514004       6.26313496      -1.56085181    
   1.35858905       3.79349999E-02 -0.303501010       4.15812159       1.54724479    
   1.36124396       3.81390005E-02   0.00000000       4.15812159       1.54724479    
   1.34575403      0.195406005       0.00000000       4.15812159       1.54724479    
   1.34464097      0.195331007     -0.303496003       4.15812159       1.54724479    
   1.34575403      0.195406005       0.00000000       2.28365946       1.50203931    
   1.31339800      0.349945009       0.00000000       2.28365946       1.50203931    
   1.31216300      0.349725991     -0.303487003       2.28365946       1.50203931    
   1.34464097      0.195331007     -0.303496003       2.28365946       1.50203931    
   1.31216300      0.349725991     -0.303487003       7.09450150      -1.56384492    
   1.26341999      0.500032008     -0.303494006       7.09450150      -1.56384492    
   1.26736605      0.501691997     -0.606999993       7.09450150      -1.56384492    
   1.31333196      0.350163996     -0.606999993       7.09450150      -1.56384492    
   1.31216300      0.349725991     -0.303487003       2.19462872       1.54382563    
   1.31333196      0.350163996     -0.606999993       2.19462872       1.54382563    
   1.34573400      0.195616007     -0.606999993       2.19462872       1.54382563    
   1.34464097      0.195331007     -0.303496003       2.19462872       1.54382563    
   1.31216300      0.349725991     -0.303487003       7.35547113      -1.53521681    
   1.31339800      0.349945009       0.00000000       7.35547113      -1.53521681    
   1.26751196      0.501209974       0.00000000       7.35547113      -1.53521681    
   1.26341999      0.500032008     -0.303494006       7.35547113      -1.53521681    
   1.26751196      0.501209974       0.00000000       7.29547501       1.52384591    
   1.19658697      0.643051028       0.00000000       7.29547501       1.52384591    
   1.19583094      0.642783999     -0.303505003       7.29547501       1.52384591    
   1.26341999      0.500032008     -0.303494006       7.29547501       1.52384591    
   1.19583094      0.642783999     -0.303505003       9.23231220      -1.56803584    
   1.11495602      0.778467000     -0.303483993       9.23231220      -1.56803584    
   1.11731696      0.779847026     -0.606999993       9.23231220      -1.56803584    
   1.19653296      0.643149972     -0.606999993       9.23231220      -1.56803584    
   1.19583094      0.642783999     -0.303505003       7.63018990       1.56605077    
   1.19653296      0.643149972     -0.606999993       7.63018990       1.56605077    
   1.26736605      0.501691997     -0.606999993       7.63018990       1.56605077    
   1.26341999      0.500032008     -0.303494006       7.63018990       1.56605077    
   1.19583094      0.642783999     -0.303505003       9.59249401      -1.53398371    
   1.19658697      0.643051028       0.00000000       9.59249401      -1.53398371    
   1.11705506      0.780165970       0.00000000       9.59249401      -1.53398371    
   1.11495602      0.778467000     -0.303483993       9.59249401      -1.53398371    
   1.11705506      0.780165970       0.00000000       7.48032522       1.53529227    
   1.01674199      0.902397990       0.00000000       7.48032522       1.53529227    
   1.01591504      0.901737988     -0.303478003       7.48032522       1.53529227    
   1.11495602      0.778467000     -0.303483993       7.48032522       1.53529227    
   1.01591504      0.901737988     -0.303478003       1.11158454       1.55725837    
  0.904204011       1.01322901     -0.303456992       1.11158454       1.55725837    
  0.905143023       1.01448905     -0.606999993       1.11158454       1.55725837    
   1.01659799      0.902572989     -0.606999993       1.11158454       1.55725837    
   1.01591504      0.901737988     -0.303478003       7.36223793       1.56817818    
   1.01659799      0.902572989     -0.606999993       7.36223793       1.56817818    
   1.11731696      0.779847026     -0.606999993       7.36223793       1.56817818    
   1.11495602      0.778467000     -0.303483993       7.36223793       1.56817818    
   1.01591504      0.901737988     -0.303478003       1.28007495       1.50395787    
   1.01674199      0.902397990       0.00000000       1.28007495       1.50395787    
  0.905318975       1.01434398       0.00000000       1.28007495       1.50395787    
  0.904204011       1.01322901     -0.303456992       1.28007495       1.50395787    
  0.905318975       1.01434398       0.00000000       5.13026953      -1.59362006    
  0.782918990       1.11479497       0.00000000       5.13026953      -1.59362006    
  0.780644000       1.11195600     -0.303485006       5.13026953      -1.59362006    
  0.904204011       1.01322901     -0.303456992       5.13026953      -1.59362006    
  0.780644000       1.11195600     -0.303485006       5.77262402       1.56836832    
  0.645825028       1.19414902     -0.303514004       5.77262402       1.56836832    
  0.646153986       1.19492805     -0.606999993       5.77262402       1.56836832    
  0.782611012       1.11504900     -0.606999993       5.77262402       1.56836832    
  0.780644000       1.11195600     -0.303485006       5.14512300      -1.56807888    
  0.782611012       1.11504900     -0.606999993       5.14512300      -1.56807888    
  0.905143023       1.01448905     -0.606999993       5.14512300      -1.56807888    
  0.904204011       1.01322901     -0.303456992       5.14512300      -1.56807888    
  0.780644000       1.11195600     -0.303485006       5.73448896       1.61824811    
  0.782918990       1.11479497       0.00000000       5.73448896       1.61824811    
  0.646345019       1.19482601       0.00000000       5.73448896       1.61824811    
  0.645825028       1.19414902     -0.303514004       5.73448896       1.61824811    
  0.646345019       1.19482601       0.00000000       11.2005119      -1.60238838    
  0.504974008       1.26637006       0.00000000       11.2005119      -1.60238838    
  0.503772974       1.26314998     -0.303521991       11.2005119      -1.60238838    
  0.645825028       1.19414902     -0.303514004       11.2005119      -1.60238838    
  0.503772974       1.26314998     -0.303521991       9.84982491       1.57106543    
  0.353130996       1.31116498     -0.303510994       9.84982491       1.57106543    
  0.353300005       1.31237996     -0.606999993       9.84982491       1.57106543    
  0.505183995       1.26630700     -0.606999993       9.84982491       1.57106543    
  0.503772974       1.26314998     -0.303521991       11.0829916      -1.57012343    
  0.505183995       1.26630700     -0.606999993       11.0829916      -1.57012343    
  0.646153986       1.19492805     -0.606999993       11.0829916      -1.57012343    
  0.645825028       1.19414902     -0.303514004       11.0829916      -1.57012343    
  0.503772974       1.26314998     -0.303521991       10.1202374       1.60346317    
  0.504974008       1.26637006       0.00000000       10.1202374       1.60346317    
  0.353493989       1.31232095       0.00000000       10.1202374       1.60346317    
  0.353130996       1.31116498     -0.303510994       10.1202374       1.60346317    
  0.353493989       1.31232095       0.00000000       1.19919586      -1.75380325    
  0.199064001       1.34539402       0.00000000       1.19919586      -1.75380325    
  0.198755994       1.34360003     -0.303496003       1.19919586      -1.75380325    
  0.353130996       1.31116498     -0.303510994       1.19919586      -1.75380325    
  0.198755994       1.34360003     -0.303496003       3.81394386      -1.57655382    
   4.12769988E-02   1.35817802     -0.303508013       3.81394386      -1.57655382    
   4.12410013E-02   1.36093795     -0.606999993       3.81394386      -1.57655382    
  0.199025005       1.34539795     -0.606999993       3.81394386      -1.57655382    
  0.198755994       1.34360003     -0.303496003       1.13888490      -1.58208513    
  0.199025005       1.34539795     -0.606999993       1.13888490      -1.58208513    
  0.353300005       1.31237996     -0.606999993       1.13888490      -1.58208513    
  0.353130996       1.31116498     -0.303510994       1.13888490      -1.58208513    
  0.198755994       1.34360003     -0.303496003       4.28008366      -1.59274840    
  0.199064001       1.34539402       0.00000000       4.28008366      -1.59274840    
   4.17769998E-02   1.36088502       0.00000000       4.28008366      -1.59274840    
   4.12769988E-02   1.35817802     -0.303508013       4.28008366      -1.59274840    
   4.17769998E-02   1.36088502       0.00000000       3.24538660       1.57443011    
 -0.116410002       1.35353506       0.00000000       3.24538660       1.57443011    
 -0.116471998       1.35271096     -0.303496987       3.24538660       1.57443011    
   4.12769988E-02   1.35817802     -0.303508013       3.24538660       1.57443011    
 -0.116471998       1.35271096     -0.303496987       12.6435518      -1.57258213    
 -0.273027003       1.33229196     -0.303496003       12.6435518      -1.57258213    
 -0.273876995       1.33647299     -0.606999993       12.6435518      -1.57258213    
 -0.116722003       1.35350394     -0.606999993       12.6435518      -1.57258213    
 -0.116471998       1.35271096     -0.303496987       3.99991059       1.57733226    
 -0.116722003       1.35350394     -0.606999993       3.99991059       1.57733226    
   4.12410013E-02   1.36093795     -0.606999993       3.99991059       1.57733226    
   4.12769988E-02   1.35817802     -0.303508013       3.99991059       1.57733226    
 -0.116471998       1.35271096     -0.303496987       13.2702341      -1.57081962    
 -0.116410002       1.35353506       0.00000000       13.2702341      -1.57081962    
 -0.274069011       1.33641505       0.00000000       13.2702341      -1.57081962    
 -0.273027003       1.33229196     -0.303496003       13.2702341      -1.57081962    
 -0.274069011       1.33641505       0.00000000       11.9526367       1.57553065    
 -0.425588995       1.29045200       0.00000000       11.9526367       1.57553065    
 -0.425258011       1.28953803     -0.303507000       11.9526367       1.57553065    
 -0.273027003       1.33229196     -0.303496003       11.9526367       1.57553065    
 -0.425258011       1.28953803     -0.303507000       2.27448559      -1.57084668    
 -0.572302997       1.23206902     -0.303485990       2.27448559      -1.57084668    
 -0.573064029       1.23399496     -0.606999993       2.27448559      -1.57084668    
 -0.425651014       1.29043305     -0.606999993       2.27448559      -1.57084668    
 -0.425258011       1.28953803     -0.303507000       11.7333126       1.57185316    
 -0.425651014       1.29043305     -0.606999993       11.7333126       1.57185316    
 -0.273876995       1.33647299     -0.606999993       11.7333126       1.57185316    
 -0.273027003       1.33229196     -0.303496003       11.7333126       1.57185316    
 -0.425258011       1.28953803     -0.303507000       2.03161573      -1.64148092    
 -0.425588995       1.29045200       0.00000000       2.03161573      -1.64148092    
 -0.573195994       1.23392498       0.00000000       2.03161573      -1.64148092    
 -0.572302997       1.23206902     -0.303485990       2.03161573      -1.64148092    
 -0.573195994       1.23392498       0.00000000       1.42990410      -1.70920539    
 -0.712655008       1.15938199       0.00000000       1.42990410      -1.70920539    
 -0.711889029       1.15749002     -0.303496003       1.42990410      -1.70920539    
 -0.572302997       1.23206902     -0.303485990       1.42990410      -1.70920539    
 -0.711889029       1.15749002     -0.303496003       3.03151274       1.56392384    
 -0.840825975       1.06629205     -0.303485990       3.03151274       1.56392384    
 -0.841368973       1.06682706     -0.606999993       3.03151274       1.56392384    
 -0.712980986       1.15920806     -0.606999993       3.03151274       1.56392384    
 -0.711889029       1.15749002     -0.303496003       1.40932286      -1.56233561    
 -0.712980986       1.15920806     -0.606999993       1.40932286      -1.56233561    
 -0.573064029       1.23399496     -0.606999993       1.40932286      -1.56233561    
 -0.572302997       1.23206902     -0.303485990       1.40932286      -1.56233561    
 -0.711889029       1.15749002     -0.303496003       2.72032428       1.63518310    
 -0.712655008       1.15938199       0.00000000       2.72032428       1.63518310    
 -0.841165006       1.06699395       0.00000000       2.72032428       1.63518310    
 -0.840825975       1.06629205     -0.303485990       2.72032428       1.63518310    
 -0.841165006       1.06699395       0.00000000       12.3546133      -1.57701361    
 -0.963320017      0.966744006       0.00000000       12.3546133      -1.57701361    
 -0.960084975      0.962615013     -0.303470999       12.3546133      -1.57701361    
 -0.840825975       1.06629205     -0.303485990       12.3546133      -1.57701361    
 -0.960084975      0.962615013     -0.303470999       13.1709976       1.56918335    
  -1.06383705      0.843237996     -0.303481996       13.1709976       1.56918335    
  -1.06481802      0.843816996     -0.606999993       13.1709976       1.56918335    
 -0.963873982      0.966289997     -0.606999993       13.1709976       1.56918335    
 -0.960084975      0.962615013     -0.303470999       12.0470018      -1.56879830    
 -0.963873982      0.966289997     -0.606999993       12.0470018      -1.56879830    
 -0.841368973       1.06682706     -0.606999993       12.0470018      -1.56879830    
 -0.840825975       1.06629205     -0.303485990       12.0470018      -1.56879830    
 -0.960084975      0.962615013     -0.303470999       13.3397360       1.56550241    
 -0.963320017      0.966744006       0.00000000       13.3397360       1.56550241    
  -1.06464398      0.844029009       0.00000000       13.3397360       1.56550241    
  -1.06383705      0.843237996     -0.303481996       13.3397360       1.56550241    
  -1.06464398      0.844029009       0.00000000       3.96437097      -1.51204777    
  -1.15769398      0.715813994       0.00000000       3.96437097      -1.51204777    
  -1.15564799      0.714680016     -0.303483993       3.96437097      -1.51204777    
  -1.06383705      0.843237996     -0.303481996       3.96437097      -1.51204777    
  -1.15564799      0.714680016     -0.303483993       1.12359262       1.54957116    
  -1.23108304      0.575536013     -0.303514004       1.12359262       1.54957116    
  -1.23232996      0.576179981     -0.606999993       1.12359262       1.54957116    
  -1.15756094      0.716063023     -0.606999993       1.12359262       1.54957116    
  -1.15564799      0.714680016     -0.303483993       4.04371548      -1.56550694    
  -1.15756094      0.716063023     -0.606999993       4.04371548      -1.56550694    
  -1.06481802      0.843816996     -0.606999993       4.04371548      -1.56550694    
  -1.06383705      0.843237996     -0.303481996       4.04371548      -1.56550694    
  -1.15564799      0.714680016     -0.303483993       1.14474332       1.27504301    
  -1.15769398      0.715813994       0.00000000       1.14474332       1.27504301    
  -1.23224795      0.576331973       0.00000000       1.14474332       1.27504301    
  -1.23108304      0.575536013     -0.303514004       1.14474332       1.27504301    
  -1.23224795      0.576331973       0.00000000       3.38579297       1.47240758    
  -1.28948605      0.428772002       0.00000000       3.38579297       1.47240758    
  -1.28842103      0.428404987     -0.303512990       3.38579297       1.47240758    
  -1.23108304      0.575536013     -0.303514004       3.38579297       1.47240758    
  -1.28842103      0.428404987     -0.303512990       9.56883717      -1.56688035    
  -1.33082402      0.275959998     -0.303492010       9.56883717      -1.56688035    
  -1.33550000      0.277083993     -0.606999993       9.56883717      -1.56688035    