 VARIABLES="X" "Y" "Z" "abs(p) (Pa)" "angle(p) (rad)"
ZONE N=   2720,E =    2069, F=FEPOINT, ET=QUADRILATERAL
 -0.767116010      -1.12776399       0.00000000       5276.32471      -1.49744856    
 -0.769354999      -1.12002099     -0.303523988       5276.32471      -1.49744856    
 -0.896136999      -1.02028203     -0.303463012       5276.32471      -1.49744856    
 -0.894908011      -1.02288902       0.00000000       5276.32471      -1.49744856    
 -0.767116010      -1.12776399       0.00000000       5720.37207      -1.49748838    
 -0.630888999      -1.20308697       0.00000000       5720.37207      -1.49748838    
 -0.635528028      -1.19958198     -0.303541005       5720.37207      -1.49748838    
 -0.769354999      -1.12002099     -0.303523988       5720.37207      -1.49748838    
 -0.635528028      -1.19958198     -0.303541005       4064.23047      -1.53892136    
 -0.495362997      -1.26606500     -0.303519011       4064.23047      -1.53892136    
 -0.499298006      -1.26809204     -0.606999993       4064.23047      -1.53892136    
 -0.640147984      -1.19813800     -0.606998026       4064.23047      -1.53892136    
 -0.635528028      -1.19958198     -0.303541005       3824.38794      -1.53905606    
 -0.640147984      -1.19813800     -0.606998026       3824.38794      -1.53905606    
 -0.777105987      -1.11956596     -0.606999993       3824.38794      -1.53905606    
 -0.769354999      -1.12002099     -0.303523988       3824.38794      -1.53905606    
 -0.635528028      -1.19958198     -0.303541005       6073.52393      -1.49769056    
 -0.630888999      -1.20308697       0.00000000       6073.52393      -1.49769056    
 -0.494486004      -1.26955199       0.00000000       6073.52393      -1.49769056    
 -0.495362997      -1.26606500     -0.303519011       6073.52393      -1.49769056    
 -0.494486004      -1.26955199       0.00000000       6358.26953      -1.49756575    
 -0.346311986      -1.31449997       0.00000000       6358.26953      -1.49756575    
 -0.346753001      -1.31307304     -0.303510010       6358.26953      -1.49756575    
 -0.495362997      -1.26606500     -0.303519011       6358.26953      -1.49756575    
 -0.346753001      -1.31307304     -0.303510010       4391.08398      -1.53902614    
 -0.193608001      -1.34425998     -0.303494990       4391.08398      -1.53902614    
 -0.195028007      -1.34579206     -0.606999993       4391.08398      -1.53902614    
 -0.348751009      -1.31376004     -0.606999993       4391.08398      -1.53902614    
 -0.346753001      -1.31307304     -0.303510010       4257.03857      -1.53893948    
 -0.348751009      -1.31376004     -0.606999993       4257.03857      -1.53893948    
 -0.499298006      -1.26809204     -0.606999993       4257.03857      -1.53893948    
 -0.495362997      -1.26606500     -0.303519011       4257.03857      -1.53893948    
 -0.346753001      -1.31307304     -0.303510010       6607.29102      -1.49790573    
 -0.346311986      -1.31449997       0.00000000       6607.29102      -1.49790573    
 -0.193381995      -1.34595394       0.00000000       6607.29102      -1.49790573    
 -0.193608001      -1.34425998     -0.303494990       6607.29102      -1.49790573    
 -0.193381995      -1.34595394       0.00000000       6738.67578      -1.49764180    
  -3.75179984E-02  -1.36130500       0.00000000       6738.67578      -1.49764180    
  -3.73950005E-02  -1.35827899     -0.303512007       6738.67578      -1.49764180    
 -0.193608001      -1.34425998     -0.303494990       6738.67578      -1.49764180    
  -3.73950005E-02  -1.35827899     -0.303512007       4462.09375      -1.53946006    
  0.119547002      -1.35239303     -0.303498000       4462.09375      -1.53946006    
  0.119135000      -1.35326600     -0.606999993       4462.09375      -1.53946006    
  -3.82840000E-02  -1.36122894     -0.606998980       4462.09375      -1.53946006    
  -3.73950005E-02  -1.35827899     -0.303512007       4460.71436      -1.53914535    
  -3.82840000E-02  -1.36122894     -0.606998980       4460.71436      -1.53914535    
 -0.195028007      -1.34579206     -0.606999993       4460.71436      -1.53914535    
 -0.193608001      -1.34425998     -0.303494990       4460.71436      -1.53914535    
  -3.73950005E-02  -1.35827899     -0.303512007       6696.24512      -1.49809861    
  -3.75179984E-02  -1.36130500       0.00000000       6696.24512      -1.49809861    
  0.119788997      -1.35320199       0.00000000       6696.24512      -1.49809861    
  0.119547002      -1.35239303     -0.303498000       6696.24512      -1.49809861    
  0.119788997      -1.35320199       0.00000000       6538.99951      -1.49817824    
  0.276576012      -1.33565402       0.00000000       6538.99951      -1.49817824    
  0.275435001      -1.33191597     -0.303496003       6538.99951      -1.49817824    
  0.119547002      -1.35239303     -0.303498000       6538.99951      -1.49817824    
  0.275435001      -1.33191597     -0.303496003       4268.27441      -1.54025912    
  0.427076995      -1.28898001     -0.303507000       4268.27441      -1.54025912    
  0.427242011      -1.28995001     -0.606999993       4268.27441      -1.54025912    
  0.275831014      -1.33588004     -0.606999993       4268.27441      -1.54025912    
  0.275435001      -1.33191597     -0.303496003       4396.62402      -1.53986132    
  0.275831014      -1.33588004     -0.606999993       4396.62402      -1.53986132    
  0.119135000      -1.35326600     -0.606999993       4396.62402      -1.53986132    
  0.119547002      -1.35239303     -0.303498000       4396.62402      -1.53986132    
  0.275435001      -1.33191597     -0.303496003       6291.15527      -1.49862170    
  0.276576012      -1.33565402       0.00000000       6291.15527      -1.49862170    
  0.427509993      -1.28986895       0.00000000       6291.15527      -1.49862170    
  0.427076995      -1.28898001     -0.303507000       6291.15527      -1.49862170    
  0.427509993      -1.28986895       0.00000000       5996.45996      -1.50015962    
  0.574636996      -1.23315501       0.00000000       5996.45996      -1.50015962    
  0.573706985      -1.23136795     -0.303485990       5996.45996      -1.50015962    
  0.427076995      -1.28898001     -0.303507000       5996.45996      -1.50015962    
  0.573706985      -1.23136795     -0.303485990       3863.49121      -1.54108620    
  0.712854981      -1.15688002     -0.303496987       3863.49121      -1.54108620    
  0.713809013      -1.15876603     -0.606999993       3863.49121      -1.54108620    
  0.574283004      -1.23334301     -0.606999993       3863.49121      -1.54108620    
  0.573706985      -1.23136795     -0.303485990       4091.22729      -1.54077339    
  0.574283004      -1.23334301     -0.606999993       4091.22729      -1.54077339    
  0.427242011      -1.28995001     -0.606999993       4091.22729      -1.54077339    
  0.427076995      -1.28898001     -0.303507000       4091.22729      -1.54077339    
  0.573706985      -1.23136795     -0.303485990       5662.64453      -1.50099564    
  0.574636996      -1.23315501       0.00000000       5662.64453      -1.50099564    
  0.713741004      -1.15880203       0.00000000       5662.64453      -1.50099564    
  0.712854981      -1.15688002     -0.303496987       5662.64453      -1.50099564    
  0.713741004      -1.15880203       0.00000000       5265.44678      -1.50137961    
  0.841937006      -1.06636095       0.00000000       5265.44678      -1.50137961    
  0.841498017      -1.06573403     -0.303485990       5265.44678      -1.50137961    
  0.712854981      -1.15688002     -0.303496987       5265.44678      -1.50137961    
  0.841498017      -1.06573403     -0.303485990       3271.70923      -1.54136169    
  0.960639000     -0.962104976     -0.303470999       3271.70923      -1.54136169    
  0.964356005     -0.965893984     -0.606999993       3271.70923      -1.54136169    
  0.841796994      -1.06647599     -0.606999993       3271.70923      -1.54136169    
  0.841498017      -1.06573403     -0.303485990       3589.74097      -1.54130828    
  0.841796994      -1.06647599     -0.606999993       3589.74097      -1.54130828    
  0.713809013      -1.15876603     -0.606999993       3589.74097      -1.54130828    
  0.712854981      -1.15688002     -0.303496987       3589.74097      -1.54130828    
  0.841498017      -1.06573403     -0.303485990       4827.06641      -1.50006723    
  0.841937006      -1.06636095       0.00000000       4827.06641      -1.50006723    
  0.963932991     -0.966242015       0.00000000       4827.06641      -1.50006723    
  0.960639000     -0.962104976     -0.303470999       4827.06641      -1.50006723    
  0.963932991     -0.966242015       0.00000000       4305.39160      -1.49897623    
   1.06506598     -0.843514979       0.00000000       4305.39160      -1.49897623    
   1.06428695     -0.842682004     -0.303481996       4305.39160      -1.49897623    
  0.960639000     -0.962104976     -0.303470999       4305.39160      -1.49897623    
   1.06428695     -0.842682004     -0.303481996       2509.52563      -1.54141915    
   1.15591598     -0.714210987     -0.303485006       2509.52563      -1.54141915    
   1.15788805     -0.715448976     -0.606999993       2509.52563      -1.54141915    
   1.06537795     -0.843134999     -0.606999993       2509.52563      -1.54141915    
   1.06428695     -0.842682004     -0.303481996       2903.01685      -1.54117763    
   1.06537795     -0.843134999     -0.606999993       2903.01685      -1.54117763    
  0.964356005     -0.965893984     -0.606999993       2903.01685      -1.54117763    
  0.960639000     -0.962104976     -0.303470999       2903.01685      -1.54117763    
   1.06428695     -0.842682004     -0.303481996       3689.03247      -1.49927080    
   1.06506598     -0.843514979       0.00000000       3689.03247      -1.49927080    
   1.15792501     -0.715381980       0.00000000       3689.03247      -1.49927080    
   1.15591598     -0.714210987     -0.303485006       3689.03247      -1.49927080    
   1.15792501     -0.715381980       0.00000000       3045.31934      -1.49859548    
   1.23237598     -0.576093972       0.00000000       3045.31934      -1.49859548    
   1.23120904     -0.575251997     -0.303514004       3045.31934      -1.49859548    
   1.15591598     -0.714210987     -0.303485006       3045.31934      -1.49859548    
   1.23120904     -0.575251997     -0.303514004       1610.54211      -1.54157090    
   1.28844094     -0.428344995     -0.303512990       1610.54211      -1.54157090    
   1.28952503     -0.428642988     -0.606999993       1610.54211      -1.54157090    
   1.23252702     -0.575810015     -0.606999993       1610.54211      -1.54157090    
   1.23120904     -0.575251997     -0.303514004       2073.32568      -1.54135144    
   1.23252702     -0.575810015     -0.606999993       2073.32568      -1.54135144    
   1.15788805     -0.715448976     -0.606999993       2073.32568      -1.54135144    
   1.15591598     -0.714210987     -0.303485006       2073.32568      -1.54135144    
   1.23120904     -0.575251997     -0.303514004       2371.30835      -1.49887991    
   1.23237598     -0.576093972       0.00000000       2371.30835      -1.49887991    
   1.28947699     -0.428801000       0.00000000       2371.30835      -1.49887991    
   1.28844094     -0.428344995     -0.303512990       2371.30835      -1.49887991    
   1.28947699     -0.428801000       0.00000000       1677.36731      -1.49898911    
   1.33532202     -0.277671993       0.00000000       1677.36731      -1.49898911    
   1.33076501     -0.276203990     -0.303492010       1677.36731      -1.49898911    
   1.28844094     -0.428344995     -0.303512990       1677.36731      -1.49898911    
   1.33076501     -0.276203990     -0.303492010       621.292603      -1.54305542    
   1.35229194     -0.119709998     -0.303514004       621.292603      -1.54305542    
   1.35321999     -0.119608998     -0.606999993       621.292603      -1.54305542    
   1.33549094     -0.277112991     -0.606999993       621.292603      -1.54305542    
   1.33076501     -0.276203990     -0.303492010       1130.75671      -1.54242301    
   1.33549094     -0.277112991     -0.606999993       1130.75671      -1.54242301    
   1.28952503     -0.428642988     -0.606999993       1130.75671      -1.54242301    
   1.28844094     -0.428344995     -0.303512990       1130.75671      -1.54242301    
   1.33076501     -0.276203990     -0.303492010       940.249146      -1.49750400    
   1.33532202     -0.277671993       0.00000000       940.249146      -1.49750400    
   1.35319102     -0.119900003       0.00000000       940.249146      -1.49750400    
   1.35229194     -0.119709998     -0.303514004       940.249146      -1.49750400    
   1.35319102     -0.119900003       0.00000000       179.441101      -1.50341856    
   1.36124396       3.81390005E-02   0.00000000       179.441101      -1.50341856    
   1.35858905       3.79349999E-02 -0.303501010       179.441101      -1.50341856    
   1.35229194     -0.119709998     -0.303514004       179.441101      -1.50341856    
   1.35858905       3.79349999E-02 -0.303501010       398.722443       1.60656655    
   1.34464097      0.195331007     -0.303496003       398.722443       1.60656655    
   1.34573400      0.195616007     -0.606999993       398.722443       1.60656655    
   1.36126804       3.78950015E-02 -0.606999993       398.722443       1.60656655    
   1.35858905       3.79349999E-02 -0.303501010       117.588898      -1.55939639    
   1.36126804       3.78950015E-02 -0.606999993       117.588898      -1.55939639    
   1.35321999     -0.119608998     -0.606999993       117.588898      -1.55939639    
   1.35229194     -0.119709998     -0.303514004       117.588898      -1.55939639    
   1.35858905       3.79349999E-02 -0.303501010       587.320007       1.64423585    
   1.36124396       3.81390005E-02   0.00000000       587.320007       1.64423585    
   1.34575403      0.195406005       0.00000000       587.320007       1.64423585    
   1.34464097      0.195331007     -0.303496003       587.320007       1.64423585    
   1.34575403      0.195406005       0.00000000       1340.24609       1.64416122    
   1.31339800      0.349945009       0.00000000       1340.24609       1.64416122    
   1.31216300      0.349725991     -0.303487003       1340.24609       1.64416122    
   1.34464097      0.195331007     -0.303496003       1340.24609       1.64416122    
   1.31216300      0.349725991     -0.303487003       1393.31580       1.60324693    
   1.26341999      0.500032008     -0.303494006       1393.31580       1.60324693    
   1.26736605      0.501691997     -0.606999993       1393.31580       1.60324693    
   1.31333196      0.350163996     -0.606999993       1393.31580       1.60324693    
   1.31216300      0.349725991     -0.303487003       904.922485       1.60389388    
   1.31333196      0.350163996     -0.606999993       904.922485       1.60389388    
   1.34573400      0.195616007     -0.606999993       904.922485       1.60389388    
   1.34464097      0.195331007     -0.303496003       904.922485       1.60389388    
   1.31216300      0.349725991     -0.303487003       2071.80005       1.64503527    
   1.31339800      0.349945009       0.00000000       2071.80005       1.64503527    
   1.26751196      0.501209974       0.00000000       2071.80005       1.64503527    
   1.26341999      0.500032008     -0.303494006       2071.80005       1.64503527    
   1.26751196      0.501209974       0.00000000       2791.92212       1.64433849    
   1.19658697      0.643051028       0.00000000       2791.92212       1.64433849    
   1.19583094      0.642783999     -0.303505003       2791.92212       1.64433849    
   1.26341999      0.500032008     -0.303494006       2791.92212       1.64433849    
   1.19583094      0.642783999     -0.303505003       2316.41943       1.60234952    
   1.11495602      0.778467000     -0.303483993       2316.41943       1.60234952    
   1.11731696      0.779847026     -0.606999993       2316.41943       1.60234952    
   1.19653296      0.643149972     -0.606999993       2316.41943       1.60234952    
   1.19583094      0.642783999     -0.303505003       1872.76416       1.60246575    
   1.19653296      0.643149972     -0.606999993       1872.76416       1.60246575    
   1.26736605      0.501691997     -0.606999993       1872.76416       1.60246575    
   1.26341999      0.500032008     -0.303494006       1872.76416       1.60246575    
   1.19583094      0.642783999     -0.303505003       3455.80933       1.64432704    
   1.19658697      0.643051028       0.00000000       3455.80933       1.64432704    
   1.11705506      0.780165970       0.00000000       3455.80933       1.64432704    
   1.11495602      0.778467000     -0.303483993       3455.80933       1.64432704    
   1.11705506      0.780165970       0.00000000       4048.48218       1.64357722    
   1.01674199      0.902397990       0.00000000       4048.48218       1.64357722    
   1.01591504      0.901737988     -0.303478003       4048.48218       1.64357722    
   1.11495602      0.778467000     -0.303483993       4048.48218       1.64357722    
   1.01591504      0.901737988     -0.303478003       3111.83691       1.60163510    
  0.904204011       1.01322901     -0.303456992       3111.83691       1.60163510    
  0.905143023       1.01448905     -0.606999993       3111.83691       1.60163510    
   1.01659799      0.902572989     -0.606999993       3111.83691       1.60163510    
   1.01591504      0.901737988     -0.303478003       2734.60840       1.60187662    
   1.01659799      0.902572989     -0.606999993       2734.60840       1.60187662    
   1.11731696      0.779847026     -0.606999993       2734.60840       1.60187662    
   1.11495602      0.778467000     -0.303483993       2734.60840       1.60187662    
   1.01591504      0.901737988     -0.303478003       4579.16211       1.64276326    
   1.01674199      0.902397990       0.00000000       4579.16211       1.64276326    
  0.905318975       1.01434398       0.00000000       4579.16211       1.64276326    
  0.904204011       1.01322901     -0.303456992       4579.16211       1.64276326    
  0.905318975       1.01434398       0.00000000       5112.18848       1.64306843    
  0.782918990       1.11479497       0.00000000       5112.18848       1.64306843    
  0.780644000       1.11195600     -0.303485006       5112.18848       1.64306843    
  0.904204011       1.01322901     -0.303456992       5112.18848       1.64306843    
  0.780644000       1.11195600     -0.303485006       3750.33105       1.60152841    
  0.645825028       1.19414902     -0.303514004       3750.33105       1.60152841    
  0.646153986       1.19492805     -0.606999993       3750.33105       1.60152841    
  0.782611012       1.11504900     -0.606999993       3750.33105       1.60152841    
  0.780644000       1.11195600     -0.303485006       3450.15649       1.60159445    
  0.782611012       1.11504900     -0.606999993       3450.15649       1.60159445    
  0.905143023       1.01448905     -0.606999993       3450.15649       1.60159445    
  0.904204011       1.01322901     -0.303456992       3450.15649       1.60159445    
  0.780644000       1.11195600     -0.303485006       5552.44287       1.64274454    
  0.782918990       1.11479497       0.00000000       5552.44287       1.64274454    
  0.646345019       1.19482601       0.00000000       5552.44287       1.64274454    
  0.645825028       1.19414902     -0.303514004       5552.44287       1.64274454    
  0.646345019       1.19482601       0.00000000       5936.90479       1.64323425    
  0.504974008       1.26637006       0.00000000       5936.90479       1.64323425    
  0.503772974       1.26314998     -0.303521991       5936.90479       1.64323425    
  0.645825028       1.19414902     -0.303514004       5936.90479       1.64323425    
  0.503772974       1.26314998     -0.303521991       4196.66602       1.60187054    
  0.353130996       1.31116498     -0.303510994       4196.66602       1.60187054    
  0.353300005       1.31237996     -0.606999993       4196.66602       1.60187054    
  0.505183995       1.26630700     -0.606999993       4196.66602       1.60187054    
  0.503772974       1.26314998     -0.303521991       3996.95361       1.60175574    
  0.505183995       1.26630700     -0.606999993       3996.95361       1.60175574    
  0.646153986       1.19492805     -0.606999993       3996.95361       1.60175574    
  0.645825028       1.19414902     -0.303514004       3996.95361       1.60175574    
  0.503772974       1.26314998     -0.303521991       6217.03809       1.64345431    
  0.504974008       1.26637006       0.00000000       6217.03809       1.64345431    
  0.353493989       1.31232095       0.00000000       6217.03809       1.64345431    
  0.353130996       1.31116498     -0.303510994       6217.03809       1.64345431    
  0.353493989       1.31232095       0.00000000       6431.74414       1.64334679    
  0.199064001       1.34539402       0.00000000       6431.74414       1.64334679    
  0.198755994       1.34360003     -0.303496003       6431.74414       1.64334679    
  0.353130996       1.31116498     -0.303510994       6431.74414       1.64334679    
  0.198755994       1.34360003     -0.303496003       4430.64307       1.60239303    
   4.12769988E-02   1.35817802     -0.303508013       4430.64307       1.60239303    
   4.12410013E-02   1.36093795     -0.606999993       4430.64307       1.60239303    
  0.199025005       1.34539795     -0.606999993       4430.64307       1.60239303    
  0.198755994       1.34360003     -0.303496003       4341.74854       1.60208201    
  0.199025005       1.34539795     -0.606999993       4341.74854       1.60208201    
  0.353300005       1.31237996     -0.606999993       4341.74854       1.60208201    
  0.353130996       1.31116498     -0.303510994       4341.74854       1.60208201    
  0.198755994       1.34360003     -0.303496003       6591.41211       1.64405167    
  0.199064001       1.34539402       0.00000000       6591.41211       1.64405167    
   4.17769998E-02   1.36088502       0.00000000       6591.41211       1.64405167    
   4.12769988E-02   1.35817802     -0.303508013       6591.41211       1.64405167    
   4.17769998E-02   1.36088502       0.00000000       6700.12744       1.64410114    
 -0.116410002       1.35353506       0.00000000       6700.12744       1.64410114    
 -0.116471998       1.35271096     -0.303496987       6700.12744       1.64410114    
   4.12769988E-02   1.35817802     -0.303508013       6700.12744       1.64410114    
 -0.116471998       1.35271096     -0.303496987       4431.44189       1.60267985    
 -0.273027003       1.33229196     -0.303496003       4431.44189       1.60267985    
 -0.273876995       1.33647299     -0.606999993       4431.44189       1.60267985    
 -0.116722003       1.35350394     -0.606999993       4431.44189       1.60267985    
 -0.116471998       1.35271096     -0.303496987       4464.11084       1.60256398    
 -0.116722003       1.35350394     -0.606999993       4464.11084       1.60256398    
   4.12410013E-02   1.36093795     -0.606999993       4464.11084       1.60256398    
   4.12769988E-02   1.35817802     -0.303508013       4464.11084       1.60256398    
 -0.116471998       1.35271096     -0.303496987       6715.12598       1.64461756    
 -0.116410002       1.35353506       0.00000000       6715.12598       1.64461756    
 -0.274069011       1.33641505       0.00000000       6715.12598       1.64461756    
 -0.273027003       1.33229196     -0.303496003       6715.12598       1.64461756    
 -0.274069011       1.33641505       0.00000000       6548.96045       1.64435256    
 -0.425588995       1.29045200       0.00000000       6548.96045       1.64435256    
 -0.425258011       1.28953803     -0.303507000       6548.96045       1.64435256    
 -0.273027003       1.33229196     -0.303496003       6548.96045       1.64435256    
 -0.425258011       1.28953803     -0.303507000       4162.30859       1.60209596    
 -0.572302997       1.23206902     -0.303485990       4162.30859       1.60209596    
 -0.573064029       1.23399496     -0.606999993       4162.30859       1.60209596    
 -0.425651014       1.29043305     -0.606999993       4162.30859       1.60209596    
 -0.425258011       1.28953803     -0.303507000       4327.61279       1.60259056    
 -0.425651014       1.29043305     -0.606999993       4327.61279       1.60259056    
 -0.273876995       1.33647299     -0.606999993       4327.61279       1.60259056    
 -0.273027003       1.33229196     -0.303496003       4327.61279       1.60259056    
 -0.425258011       1.28953803     -0.303507000       6239.79590       1.64270222    
 -0.425588995       1.29045200       0.00000000       6239.79590       1.64270222    
 -0.573195994       1.23392498       0.00000000       6239.79590       1.64270222    
 -0.572302997       1.23206902     -0.303485990       6239.79590       1.64270222    
 -0.573195994       1.23392498       0.00000000       5859.36475       1.64161897    
 -0.712655008       1.15938199       0.00000000       5859.36475       1.64161897    
 -0.711889029       1.15749002     -0.303496003       5859.36475       1.64161897    
 -0.572302997       1.23206902     -0.303485990       5859.36475       1.64161897    
 -0.711889029       1.15749002     -0.303496003       3642.96655       1.60107982    
 -0.840825975       1.06629205     -0.303485990       3642.96655       1.60107982    
 -0.841368973       1.06682706     -0.606999993       3642.96655       1.60107982    
 -0.712980986       1.15920806     -0.606999993       3642.96655       1.60107982    
 -0.711889029       1.15749002     -0.303496003       3929.36743       1.60163128    
 -0.712980986       1.15920806     -0.606999993       3929.36743       1.60163128    
 -0.573064029       1.23399496     -0.606999993       3929.36743       1.60163128    
 -0.572302997       1.23206902     -0.303485990       3929.36743       1.60163128    
 -0.711889029       1.15749002     -0.303496003       5370.84961       1.64050949    
 -0.712655008       1.15938199       0.00000000       5370.84961       1.64050949    
 -0.841165006       1.06699395       0.00000000       5370.84961       1.64050949    
 -0.840825975       1.06629205     -0.303485990       5370.84961       1.64050949    
 -0.841165006       1.06699395       0.00000000       4845.93262       1.64078343    
 -0.963320017      0.966744006       0.00000000       4845.93262       1.64078343    
 -0.960084975      0.962615013     -0.303470999       4845.93262       1.64078343    
 -0.840825975       1.06629205     -0.303485990       4845.93262       1.64078343    
 -0.960084975      0.962615013     -0.303470999       2937.12036       1.60059607    
  -1.06383705      0.843237996     -0.303481996       2937.12036       1.60059607    
  -1.06481802      0.843816996     -0.606999993       2937.12036       1.60059607    
 -0.963873982      0.966289997     -0.606999993       2937.12036       1.60059607    
 -0.960084975      0.962615013     -0.303470999       3314.37964       1.60057342    
 -0.963873982      0.966289997     -0.606999993       3314.37964       1.60057342    
 -0.841368973       1.06682706     -0.606999993       3314.37964       1.60057342    
 -0.840825975       1.06629205     -0.303485990       3314.37964       1.60057342    
 -0.960084975      0.962615013     -0.303470999       4295.09863       1.64146543    
 -0.963320017      0.966744006       0.00000000       4295.09863       1.64146543    
  -1.06464398      0.844029009       0.00000000       4295.09863       1.64146543    
  -1.06383705      0.843237996     -0.303481996       4295.09863       1.64146543    
  -1.06464398      0.844029009       0.00000000       3707.48779       1.64140320    
  -1.15769398      0.715813994       0.00000000       3707.48779       1.64140320    
  -1.15564799      0.714680016     -0.303483993       3707.48779       1.64140320    
  -1.06383705      0.843237996     -0.303481996       3707.48779       1.64140320    
  -1.15564799      0.714680016     -0.303483993       2102.74829       1.60077846    
  -1.23108304      0.575536013     -0.303514004       2102.74829       1.60077846    
  -1.23232996      0.576179981     -0.606999993       2102.74829       1.60077846    
  -1.15756094      0.716063023     -0.606999993       2102.74829       1.60077846    
  -1.15564799      0.714680016     -0.303483993       2539.41138       1.60051131    
  -1.15756094      0.716063023     -0.606999993       2539.41138       1.60051131    
  -1.06481802      0.843816996     -0.606999993       2539.41138       1.60051131    
  -1.06383705      0.843237996     -0.303481996       2539.41138       1.60051131    
  -1.15564799      0.714680016     -0.303483993       3097.79126       1.64229989    
  -1.15769398      0.715813994       0.00000000       3097.79126       1.64229989    
  -1.23224795      0.576331973       0.00000000       3097.79126       1.64229989    
  -1.23108304      0.575536013     -0.303514004       3097.79126       1.64229989    
  -1.23224795      0.576331973       0.00000000       2419.94336       1.64232051    
  -1.28948605      0.428772002       0.00000000       2419.94336       1.64232051    
  -1.28842103      0.428404987     -0.303512990       2419.94336       1.64232051    
  -1.23108304      0.575536013     -0.303514004       2419.94336       1.64232051    
  -1.28842103      0.428404987     -0.303512990       1149.59888       1.60043347    
  -1.33082402      0.275959998     -0.303492010       1149.59888       1.60043347    
  -1.33550000      0.277083993     -0.606999993       1149.59888       1.60043347    