 VARIABLES="X" "Y" "Z" "abs(p) (Pa)" "angle(p) (rad)"
ZONE N=   2720,E =    2069, F=FEPOINT, ET=QUADRILATERAL
 -0.767116010      -1.12776399       0.00000000       367.815643      -1.57469952    
 -0.769354999      -1.12002099     -0.303523988       367.815643      -1.57469952    
 -0.896136999      -1.02028203     -0.303463012       367.815643      -1.57469952    
 -0.894908011      -1.02288902       0.00000000       367.815643      -1.57469952    
 -0.767116010      -1.12776399       0.00000000       308.496857      -1.57479310    
 -0.630888999      -1.20308697       0.00000000       308.496857      -1.57479310    
 -0.635528028      -1.19958198     -0.303541005       308.496857      -1.57479310    
 -0.769354999      -1.12002099     -0.303523988       308.496857      -1.57479310    
 -0.635528028      -1.19958198     -0.303541005       194.005310      -1.57651651    
 -0.495362997      -1.26606500     -0.303519011       194.005310      -1.57651651    
 -0.499298006      -1.26809204     -0.606999993       194.005310      -1.57651651    
 -0.640147984      -1.19813800     -0.606998026       194.005310      -1.57651651    
 -0.635528028      -1.19958198     -0.303541005       240.192383      -1.57644701    
 -0.640147984      -1.19813800     -0.606998026       240.192383      -1.57644701    
 -0.777105987      -1.11956596     -0.606999993       240.192383      -1.57644701    
 -0.769354999      -1.12002099     -0.303523988       240.192383      -1.57644701    
 -0.635528028      -1.19958198     -0.303541005       249.434479      -1.57476985    
 -0.630888999      -1.20308697       0.00000000       249.434479      -1.57476985    
 -0.494486004      -1.26955199       0.00000000       249.434479      -1.57476985    
 -0.495362997      -1.26606500     -0.303519011       249.434479      -1.57476985    
 -0.494486004      -1.26955199       0.00000000       184.908875      -1.57495952    
 -0.346311986      -1.31449997       0.00000000       184.908875      -1.57495952    
 -0.346753001      -1.31307304     -0.303510010       184.908875      -1.57495952    
 -0.495362997      -1.26606500     -0.303519011       184.908875      -1.57495952    
 -0.346753001      -1.31307304     -0.303510010       92.0476532      -1.57717812    
 -0.193608001      -1.34425998     -0.303494990       92.0476532      -1.57717812    
 -0.195028007      -1.34579206     -0.606999993       92.0476532      -1.57717812    
 -0.348751009      -1.31376004     -0.606999993       92.0476532      -1.57717812    
 -0.346753001      -1.31307304     -0.303510010       143.217911      -1.57678235    
 -0.348751009      -1.31376004     -0.606999993       143.217911      -1.57678235    
 -0.499298006      -1.26809204     -0.606999993       143.217911      -1.57678235    
 -0.495362997      -1.26606500     -0.303519011       143.217911      -1.57678235    
 -0.346753001      -1.31307304     -0.303510010       118.652626      -1.57528019    
 -0.346311986      -1.31449997       0.00000000       118.652626      -1.57528019    
 -0.193381995      -1.34595394       0.00000000       118.652626      -1.57528019    
 -0.193608001      -1.34425998     -0.303494990       118.652626      -1.57528019    
 -0.193381995      -1.34595394       0.00000000       49.9535751      -1.57703531    
  -3.75179984E-02  -1.36130500       0.00000000       49.9535751      -1.57703531    
  -3.73950005E-02  -1.35827899     -0.303512007       49.9535751      -1.57703531    
 -0.193608001      -1.34425998     -0.303494990       49.9535751      -1.57703531    
  -3.73950005E-02  -1.35827899     -0.303512007       15.1164188       1.57303548    
  0.119547002      -1.35239303     -0.303498000       15.1164188       1.57303548    
  0.119135000      -1.35326600     -0.606999993       15.1164188       1.57303548    
  -3.82840000E-02  -1.36122894     -0.606998980       15.1164188       1.57303548    
  -3.73950005E-02  -1.35827899     -0.303512007       39.2863579      -1.57866323    
  -3.82840000E-02  -1.36122894     -0.606998980       39.2863579      -1.57866323    
 -0.195028007      -1.34579206     -0.606999993       39.2863579      -1.57866323    
 -0.193608001      -1.34425998     -0.303494990       39.2863579      -1.57866323    
  -3.73950005E-02  -1.35827899     -0.303512007       19.9640694       1.57419789    
  -3.75179984E-02  -1.36130500       0.00000000       19.9640694       1.57419789    
  0.119788997      -1.35320199       0.00000000       19.9640694       1.57419789    
  0.119547002      -1.35239303     -0.303498000       19.9640694       1.57419789    
  0.119788997      -1.35320199       0.00000000       88.2881622       1.56869256    
  0.276576012      -1.33565402       0.00000000       88.2881622       1.56869256    
  0.275435001      -1.33191597     -0.303496003       88.2881622       1.56869256    
  0.119547002      -1.35239303     -0.303498000       88.2881622       1.56869256    
  0.275435001      -1.33191597     -0.303496003       122.333122       1.56672132    
  0.427076995      -1.28898001     -0.303507000       122.333122       1.56672132    
  0.427242011      -1.28995001     -0.606999993       122.333122       1.56672132    
  0.275831014      -1.33588004     -0.606999993       122.333122       1.56672132    
  0.275435001      -1.33191597     -0.303496003       67.8762283       1.56737828    
  0.275831014      -1.33588004     -0.606999993       67.8762283       1.56737828    
  0.119135000      -1.35326600     -0.606999993       67.8762283       1.56737828    
  0.119547002      -1.35239303     -0.303498000       67.8762283       1.56737828    
  0.275435001      -1.33191597     -0.303496003       157.928421       1.56812501    
  0.276576012      -1.33565402       0.00000000       157.928421       1.56812501    
  0.427509993      -1.28986895       0.00000000       157.928421       1.56812501    
  0.427076995      -1.28898001     -0.303507000       157.928421       1.56812501    
  0.427509993      -1.28986895       0.00000000       223.627899       1.56786919    
  0.574636996      -1.23315501       0.00000000       223.627899       1.56786919    
  0.573706985      -1.23136795     -0.303485990       223.627899       1.56786919    
  0.427076995      -1.28898001     -0.303507000       223.627899       1.56786919    
  0.573706985      -1.23136795     -0.303485990       221.550507       1.56619596    
  0.712854981      -1.15688002     -0.303496987       221.550507       1.56619596    
  0.713809013      -1.15876603     -0.606999993       221.550507       1.56619596    
  0.574283004      -1.23334301     -0.606999993       221.550507       1.56619596    
  0.573706985      -1.23136795     -0.303485990       172.673187       1.56636417    
  0.574283004      -1.23334301     -0.606999993       172.673187       1.56636417    
  0.427242011      -1.28995001     -0.606999993       172.673187       1.56636417    
  0.427076995      -1.28898001     -0.303507000       172.673187       1.56636417    
  0.573706985      -1.23136795     -0.303485990       287.298004       1.56773722    
  0.574636996      -1.23315501       0.00000000       287.298004       1.56773722    
  0.713741004      -1.15880203       0.00000000       287.298004       1.56773722    
  0.712854981      -1.15688002     -0.303496987       287.298004       1.56773722    
  0.713741004      -1.15880203       0.00000000       346.955078       1.56766069    
  0.841937006      -1.06636095       0.00000000       346.955078       1.56766069    
  0.841498017      -1.06573403     -0.303485990       346.955078       1.56766069    
  0.712854981      -1.15688002     -0.303496987       346.955078       1.56766069    
  0.841498017      -1.06573403     -0.303485990       308.853943       1.56601894    
  0.960639000     -0.962104976     -0.303470999       308.853943       1.56601894    
  0.964356005     -0.965893984     -0.606999993       308.853943       1.56601894    
  0.841796994      -1.06647599     -0.606999993       308.853943       1.56601894    
  0.841498017      -1.06573403     -0.303485990       267.835510       1.56612432    
  0.841796994      -1.06647599     -0.606999993       267.835510       1.56612432    
  0.713809013      -1.15876603     -0.606999993       267.835510       1.56612432    
  0.712854981      -1.15688002     -0.303496987       267.835510       1.56612432    
  0.841498017      -1.06573403     -0.303485990       400.567291       1.56756377    
  0.841937006      -1.06636095       0.00000000       400.567291       1.56756377    
  0.963932991     -0.966242015       0.00000000       400.567291       1.56756377    
  0.960639000     -0.962104976     -0.303470999       400.567291       1.56756377    
  0.963932991     -0.966242015       0.00000000       450.796967       1.56754351    
   1.06506598     -0.843514979       0.00000000       450.796967       1.56754351    
   1.06428695     -0.842682004     -0.303481996       450.796967       1.56754351    
  0.960639000     -0.962104976     -0.303470999       450.796967       1.56754351    
   1.06428695     -0.842682004     -0.303481996       381.124908       1.56592119    
   1.15591598     -0.714210987     -0.303485006       381.124908       1.56592119    
   1.15788805     -0.715448976     -0.606999993       381.124908       1.56592119    
   1.06537795     -0.843134999     -0.606999993       381.124908       1.56592119    
   1.06428695     -0.842682004     -0.303481996       348.177521       1.56600332    
   1.06537795     -0.843134999     -0.606999993       348.177521       1.56600332    
  0.964356005     -0.965893984     -0.606999993       348.177521       1.56600332    
  0.960639000     -0.962104976     -0.303470999       348.177521       1.56600332    
   1.06428695     -0.842682004     -0.303481996       493.204742       1.56750762    
   1.06506598     -0.843514979       0.00000000       493.204742       1.56750762    
   1.15792501     -0.715381980       0.00000000       493.204742       1.56750762    
   1.15591598     -0.714210987     -0.303485006       493.204742       1.56750762    
   1.15792501     -0.715381980       0.00000000       529.516846       1.56748378    
   1.23237598     -0.576093972       0.00000000       529.516846       1.56748378    
   1.23120904     -0.575251997     -0.303514004       529.516846       1.56748378    
   1.15591598     -0.714210987     -0.303485006       529.516846       1.56748378    
   1.23120904     -0.575251997     -0.303514004       432.525818       1.56589091    
   1.28844094     -0.428344995     -0.303512990       432.525818       1.56589091    
   1.28952503     -0.428642988     -0.606999993       432.525818       1.56589091    
   1.23252702     -0.575810015     -0.606999993       432.525818       1.56589091    
   1.23120904     -0.575251997     -0.303514004       409.555511       1.56590009    
   1.23252702     -0.575810015     -0.606999993       409.555511       1.56590009    
   1.15788805     -0.715448976     -0.606999993       409.555511       1.56590009    
   1.15591598     -0.714210987     -0.303485006       409.555511       1.56590009    
   1.23120904     -0.575251997     -0.303514004       558.448242       1.56744277    
   1.23237598     -0.576093972       0.00000000       558.448242       1.56744277    
   1.28947699     -0.428801000       0.00000000       558.448242       1.56744277    
   1.28844094     -0.428344995     -0.303512990       558.448242       1.56744277    
   1.28947699     -0.428801000       0.00000000       581.349609       1.56745398    
   1.33532202     -0.277671993       0.00000000       581.349609       1.56745398    
   1.33076501     -0.276203990     -0.303492010       581.349609       1.56745398    
   1.28844094     -0.428344995     -0.303512990       581.349609       1.56745398    
   1.33076501     -0.276203990     -0.303492010       460.106812       1.56581116    
   1.35229194     -0.119709998     -0.303514004       460.106812       1.56581116    
   1.35321999     -0.119608998     -0.606999993       460.106812       1.56581116    
   1.33549094     -0.277112991     -0.606999993       460.106812       1.56581116    
   1.33076501     -0.276203990     -0.303492010       449.268524       1.56587303    
   1.33549094     -0.277112991     -0.606999993       449.268524       1.56587303    
   1.28952503     -0.428642988     -0.606999993       449.268524       1.56587303    
   1.28844094     -0.428344995     -0.303512990       449.268524       1.56587303    
   1.33076501     -0.276203990     -0.303492010       596.386353       1.56748426    
   1.33532202     -0.277671993       0.00000000       596.386353       1.56748426    
   1.35319102     -0.119900003       0.00000000       596.386353       1.56748426    
   1.35229194     -0.119709998     -0.303514004       596.386353       1.56748426    
   1.35319102     -0.119900003       0.00000000       601.996338       1.56747913    
   1.36124396       3.81390005E-02   0.00000000       601.996338       1.56747913    
   1.35858905       3.79349999E-02 -0.303501010       601.996338       1.56747913    
   1.35229194     -0.119709998     -0.303514004       601.996338       1.56747913    
   1.35858905       3.79349999E-02 -0.303501010       463.416077       1.56584799    
   1.34464097      0.195331007     -0.303496003       463.416077       1.56584799    
   1.34573400      0.195616007     -0.606999993       463.416077       1.56584799    
   1.36126804       3.78950015E-02 -0.606999993       463.416077       1.56584799    
   1.35858905       3.79349999E-02 -0.303501010       465.043701       1.56584823    
   1.36126804       3.78950015E-02 -0.606999993       465.043701       1.56584823    
   1.35321999     -0.119608998     -0.606999993       465.043701       1.56584823    
   1.35229194     -0.119709998     -0.303514004       465.043701       1.56584823    
   1.35858905       3.79349999E-02 -0.303501010       599.508850       1.56743014    
   1.36124396       3.81390005E-02   0.00000000       599.508850       1.56743014    
   1.34575403      0.195406005       0.00000000       599.508850       1.56743014    
   1.34464097      0.195331007     -0.303496003       599.508850       1.56743014    
   1.34575403      0.195406005       0.00000000       588.659241       1.56743062    
   1.31339800      0.349945009       0.00000000       588.659241       1.56743062    
   1.31216300      0.349725991     -0.303487003       588.659241       1.56743062    
   1.34464097      0.195331007     -0.303496003       588.659241       1.56743062    
   1.31216300      0.349725991     -0.303487003       441.336792       1.56587684    
   1.26341999      0.500032008     -0.303494006       441.336792       1.56587684    
   1.26736605      0.501691997     -0.606999993       441.336792       1.56587684    
   1.31333196      0.350163996     -0.606999993       441.336792       1.56587684    
   1.31216300      0.349725991     -0.303487003       455.515167       1.56585526    
   1.31333196      0.350163996     -0.606999993       455.515167       1.56585526    
   1.34573400      0.195616007     -0.606999993       455.515167       1.56585526    
   1.34464097      0.195331007     -0.303496003       455.515167       1.56585526    
   1.31216300      0.349725991     -0.303487003       570.146057       1.56743228    
   1.31339800      0.349945009       0.00000000       570.146057       1.56743228    
   1.26751196      0.501209974       0.00000000       570.146057       1.56743228    
   1.26341999      0.500032008     -0.303494006       570.146057       1.56743228    
   1.26751196      0.501209974       0.00000000       544.902893       1.56749547    
   1.19658697      0.643051028       0.00000000       544.902893       1.56749547    
   1.19583094      0.642783999     -0.303505003       544.902893       1.56749547    
   1.26341999      0.500032008     -0.303494006       544.902893       1.56749547    
   1.19583094      0.642783999     -0.303505003       396.090485       1.56586182    
   1.11495602      0.778467000     -0.303483993       396.090485       1.56586182    
   1.11731696      0.779847026     -0.606999993       396.090485       1.56586182    
   1.19653296      0.643149972     -0.606999993       396.090485       1.56586182    
   1.19583094      0.642783999     -0.303505003       421.128998       1.56588590    
   1.19653296      0.643149972     -0.606999993       421.128998       1.56588590    
   1.26736605      0.501691997     -0.606999993       421.128998       1.56588590    
   1.26341999      0.500032008     -0.303494006       421.128998       1.56588590    
   1.19583094      0.642783999     -0.303505003       513.173706       1.56752980    
   1.19658697      0.643051028       0.00000000       513.173706       1.56752980    
   1.11705506      0.780165970       0.00000000       513.173706       1.56752980    
   1.11495602      0.778467000     -0.303483993       513.173706       1.56752980    
   1.11705506      0.780165970       0.00000000       473.080872       1.56755137    
   1.01674199      0.902397990       0.00000000       473.080872       1.56755137    
   1.01591504      0.901737988     -0.303478003       473.080872       1.56755137    
   1.11495602      0.778467000     -0.303483993       473.080872       1.56755137    
   1.01591504      0.901737988     -0.303478003       329.459595       1.56598532    
  0.904204011       1.01322901     -0.303456992       329.459595       1.56598532    
  0.905143023       1.01448905     -0.606999993       329.459595       1.56598532    
   1.01659799      0.902572989     -0.606999993       329.459595       1.56598532    
   1.01591504      0.901737988     -0.303478003       364.898041       1.56593633    
   1.01659799      0.902572989     -0.606999993       364.898041       1.56593633    
   1.11731696      0.779847026     -0.606999993       364.898041       1.56593633    
   1.11495602      0.778467000     -0.303483993       364.898041       1.56593633    
   1.01591504      0.901737988     -0.303478003       426.807159       1.56759191    
   1.01674199      0.902397990       0.00000000       426.807159       1.56759191    
  0.905318975       1.01434398       0.00000000       426.807159       1.56759191    
  0.904204011       1.01322901     -0.303456992       426.807159       1.56759191    
  0.905318975       1.01434398       0.00000000       374.669586       1.56757963    
  0.782918990       1.11479497       0.00000000       374.669586       1.56757963    
  0.780644000       1.11195600     -0.303485006       374.669586       1.56757963    
  0.904204011       1.01322901     -0.303456992       374.669586       1.56757963    
  0.780644000       1.11195600     -0.303485006       244.593094       1.56609607    
  0.645825028       1.19414902     -0.303514004       244.593094       1.56609607    
  0.646153986       1.19492805     -0.606999993       244.593094       1.56609607    
  0.782611012       1.11504900     -0.606999993       244.593094       1.56609607    
  0.780644000       1.11195600     -0.303485006       289.429718       1.56604052    
  0.782611012       1.11504900     -0.606999993       289.429718       1.56604052    
  0.905143023       1.01448905     -0.606999993       289.429718       1.56604052    
  0.904204011       1.01322901     -0.303456992       289.429718       1.56604052    
  0.780644000       1.11195600     -0.303485006       316.669983       1.56761396    
  0.782918990       1.11479497       0.00000000       316.669983       1.56761396    
  0.646345019       1.19482601       0.00000000       316.669983       1.56761396    
  0.645825028       1.19414902     -0.303514004       316.669983       1.56761396    
  0.646345019       1.19482601       0.00000000       256.401215       1.56781793    
  0.504974008       1.26637006       0.00000000       256.401215       1.56781793    
  0.503772974       1.26314998     -0.303521991       256.401215       1.56781793    
  0.645825028       1.19414902     -0.303514004       256.401215       1.56781793    
  0.503772974       1.26314998     -0.303521991       146.449585       1.56637073    
  0.353130996       1.31116498     -0.303510994       146.449585       1.56637073    
  0.353300005       1.31237996     -0.606999993       146.449585       1.56637073    
  0.505183995       1.26630700     -0.606999993       146.449585       1.56637073    
  0.503772974       1.26314998     -0.303521991       198.114426       1.56624544    
  0.505183995       1.26630700     -0.606999993       198.114426       1.56624544    
  0.646153986       1.19492805     -0.606999993       198.114426       1.56624544    
  0.645825028       1.19414902     -0.303514004       198.114426       1.56624544    
  0.503772974       1.26314998     -0.303521991       190.193542       1.56796908    
  0.504974008       1.26637006       0.00000000       190.193542       1.56796908    
  0.353493989       1.31232095       0.00000000       190.193542       1.56796908    
  0.353130996       1.31116498     -0.303510994       190.193542       1.56796908    
  0.353493989       1.31232095       0.00000000       123.122246       1.56840038    
  0.199064001       1.34539402       0.00000000       123.122246       1.56840038    
  0.198755994       1.34360003     -0.303496003       123.122246       1.56840038    
  0.353130996       1.31116498     -0.303510994       123.122246       1.56840038    
  0.198755994       1.34360003     -0.303496003       42.1709900       1.56903958    
   4.12769988E-02   1.35817802     -0.303508013       42.1709900       1.56903958    
   4.12410013E-02   1.36093795     -0.606999993       42.1709900       1.56903958    
  0.199025005       1.34539795     -0.606999993       42.1709900       1.56903958    
  0.198755994       1.34360003     -0.303496003       94.9491806       1.56685030    
  0.199025005       1.34539795     -0.606999993       94.9491806       1.56685030    
  0.353300005       1.31237996     -0.606999993       94.9491806       1.56685030    
  0.353130996       1.31116498     -0.303510994       94.9491806       1.56685030    
  0.198755994       1.34360003     -0.303496003       54.2228622       1.56990373    
  0.199064001       1.34539402       0.00000000       54.2228622       1.56990373    
   4.17769998E-02   1.36088502       0.00000000       54.2228622       1.56990373    
   4.12769988E-02   1.35817802     -0.303508013       54.2228622       1.56990373    
   4.17769998E-02   1.36088502       0.00000000       16.0050888      -1.58308923    
 -0.116410002       1.35353506       0.00000000       16.0050888      -1.58308923    
 -0.116471998       1.35271096     -0.303496987       16.0050888      -1.58308923    
   4.12769988E-02   1.35817802     -0.303508013       16.0050888      -1.58308923    
 -0.116471998       1.35271096     -0.303496987       64.7345963      -1.57852054    
 -0.273027003       1.33229196     -0.303496003       64.7345963      -1.57852054    
 -0.273876995       1.33647299     -0.606999993       64.7345963      -1.57852054    
 -0.116722003       1.35350394     -0.606999993       64.7345963      -1.57852054    
 -0.116471998       1.35271096     -0.303496987       12.3638268      -1.58731520    
 -0.116722003       1.35350394     -0.606999993       12.3638268      -1.58731520    
   4.12410013E-02   1.36093795     -0.606999993       12.3638268      -1.58731520    
   4.12769988E-02   1.35817802     -0.303508013       12.3638268      -1.58731520    
 -0.116471998       1.35271096     -0.303496987       84.7054367      -1.57609320    
 -0.116410002       1.35353506       0.00000000       84.7054367      -1.57609320    
 -0.274069011       1.33641505       0.00000000       84.7054367      -1.57609320    
 -0.273027003       1.33229196     -0.303496003       84.7054367      -1.57609320    
 -0.274069011       1.33641505       0.00000000       154.567505      -1.57523787    
 -0.425588995       1.29045200       0.00000000       154.567505      -1.57523787    
 -0.425258011       1.28953803     -0.303507000       154.567505      -1.57523787    
 -0.273027003       1.33229196     -0.303496003       154.567505      -1.57523787    
 -0.425258011       1.28953803     -0.303507000       169.850388      -1.57690251    
 -0.572302997       1.23206902     -0.303485990       169.850388      -1.57690251    
 -0.573064029       1.23399496     -0.606999993       169.850388      -1.57690251    
 -0.425651014       1.29043305     -0.606999993       169.850388      -1.57690251    
 -0.425258011       1.28953803     -0.303507000       119.285469      -1.57723868    
 -0.425651014       1.29043305     -0.606999993       119.285469      -1.57723868    
 -0.273876995       1.33647299     -0.606999993       119.285469      -1.57723868    
 -0.273027003       1.33229196     -0.303496003       119.285469      -1.57723868    
 -0.425258011       1.28953803     -0.303507000       220.490219      -1.57499111    
 -0.425588995       1.29045200       0.00000000       220.490219      -1.57499111    
 -0.573195994       1.23392498       0.00000000       220.490219      -1.57499111    
 -0.572302997       1.23206902     -0.303485990       220.490219      -1.57499111    
 -0.573195994       1.23392498       0.00000000       284.533936      -1.57483733    
 -0.712655008       1.15938199       0.00000000       284.533936      -1.57483733    
 -0.711889029       1.15749002     -0.303496003       284.533936      -1.57483733    
 -0.572302997       1.23206902     -0.303485990       284.533936      -1.57483733    
 -0.711889029       1.15749002     -0.303496003       265.606049      -1.57653356    
 -0.840825975       1.06629205     -0.303485990       265.606049      -1.57653356    
 -0.841368973       1.06682706     -0.606999993       265.606049      -1.57653356    
 -0.712980986       1.15920806     -0.606999993       265.606049      -1.57653356    
 -0.711889029       1.15749002     -0.303496003       219.086044      -1.57667220    
 -0.712980986       1.15920806     -0.606999993       219.086044      -1.57667220    
 -0.573064029       1.23399496     -0.606999993       219.086044      -1.57667220    
 -0.572302997       1.23206902     -0.303485990       219.086044      -1.57667220    
 -0.711889029       1.15749002     -0.303496003       344.634003      -1.57473803    
 -0.712655008       1.15938199       0.00000000       344.634003      -1.57473803    
 -0.841165006       1.06699395       0.00000000       344.634003      -1.57473803    
 -0.840825975       1.06629205     -0.303485990       344.634003      -1.57473803    
 -0.841165006       1.06699395       0.00000000       399.245605      -1.57469475    
 -0.963320017      0.966744006       0.00000000       399.245605      -1.57469475    
 -0.960084975      0.962615013     -0.303470999       399.245605      -1.57469475    
 -0.840825975       1.06629205     -0.303485990       399.245605      -1.57469475    
 -0.960084975      0.962615013     -0.303470999       346.695312      -1.57639921    
  -1.06383705      0.843237996     -0.303481996       346.695312      -1.57639921    
  -1.06481802      0.843816996     -0.606999993       346.695312      -1.57639921    
 -0.963873982      0.966289997     -0.606999993       346.695312      -1.57639921    
 -0.960084975      0.962615013     -0.303470999       307.278687      -1.57648706    
 -0.963873982      0.966289997     -0.606999993       307.278687      -1.57648706    
 -0.841368973       1.06682706     -0.606999993       307.278687      -1.57648706    
 -0.840825975       1.06629205     -0.303485990       307.278687      -1.57648706    
 -0.960084975      0.962615013     -0.303470999       449.590271      -1.57464767    
 -0.963320017      0.966744006       0.00000000       449.590271      -1.57464767    
  -1.06464398      0.844029009       0.00000000       449.590271      -1.57464767    
  -1.06383705      0.843237996     -0.303481996       449.590271      -1.57464767    
  -1.06464398      0.844029009       0.00000000       491.743561      -1.57463551    
  -1.15769398      0.715813994       0.00000000       491.743561      -1.57463551    
  -1.15564799      0.714680016     -0.303483993       491.743561      -1.57463551    
  -1.06383705      0.843237996     -0.303481996       491.743561      -1.57463551    
  -1.15564799      0.714680016     -0.303483993       407.865112      -1.57635558    
  -1.23108304      0.575536013     -0.303514004       407.865112      -1.57635558    
  -1.23232996      0.576179981     -0.606999993       407.865112      -1.57635558    
  -1.15756094      0.716063023     -0.606999993       407.865112      -1.57635558    
  -1.15564799      0.714680016     -0.303483993       379.450256      -1.57637489    
  -1.15756094      0.716063023     -0.606999993       379.450256      -1.57637489    
  -1.06481802      0.843816996     -0.606999993       379.450256      -1.57637489    
  -1.06383705      0.843237996     -0.303481996       379.450256      -1.57637489    
  -1.15564799      0.714680016     -0.303483993       528.145020      -1.57462168    
  -1.15769398      0.715813994       0.00000000       528.145020      -1.57462168    
  -1.23224795      0.576331973       0.00000000       528.145020      -1.57462168    
  -1.23108304      0.575536013     -0.303514004       528.145020      -1.57462168    
  -1.23224795      0.576331973       0.00000000       556.841736      -1.57461369    
  -1.28948605      0.428772002       0.00000000       556.841736      -1.57461369    
  -1.28842103      0.428404987     -0.303512990       556.841736      -1.57461369    
  -1.23108304      0.575536013     -0.303514004       556.841736      -1.57461369    
  -1.28842103      0.428404987     -0.303512990       446.957428      -1.57628179    
  -1.33082402      0.275959998     -0.303492010       446.957428      -1.57628179    
  -1.33550000      0.277083993     -0.606999993       446.957428      -1.57628179    