 VARIABLES="X" "Y" "Z" "abs(p) (Pa)" "angle(p) (rad)"
ZONE N=   2720,E =    2069, F=FEPOINT, ET=QUADRILATERAL
 -0.767116010      -1.12776399       0.00000000       10073.3193       1.38359582    
 -0.769354999      -1.12002099     -0.303523988       10073.3193       1.38359582    
 -0.896136999      -1.02028203     -0.303463012       10073.3193       1.38359582    
 -0.894908011      -1.02288902       0.00000000       10073.3193       1.38359582    
 -0.767116010      -1.12776399       0.00000000       9205.69238       1.37781465    
 -0.630888999      -1.20308697       0.00000000       9205.69238       1.37781465    
 -0.635528028      -1.19958198     -0.303541005       9205.69238       1.37781465    
 -0.769354999      -1.12002099     -0.303523988       9205.69238       1.37781465    
 -0.635528028      -1.19958198     -0.303541005       3177.74829       1.01627607E-03
 -0.495362997      -1.26606500     -0.303519011       3177.74829       1.01627607E-03
 -0.499298006      -1.26809204     -0.606999993       3177.74829       1.01627607E-03
 -0.640147984      -1.19813800     -0.606998026       3177.74829       1.01627607E-03
 -0.635528028      -1.19958198     -0.303541005       3624.58057     -0.158073545    
 -0.640147984      -1.19813800     -0.606998026       3624.58057     -0.158073545    
 -0.777105987      -1.11956596     -0.606999993       3624.58057     -0.158073545    
 -0.769354999      -1.12002099     -0.303523988       3624.58057     -0.158073545    
 -0.635528028      -1.19958198     -0.303541005       7730.58594       1.36927009    
 -0.630888999      -1.20308697       0.00000000       7730.58594       1.36927009    
 -0.494486004      -1.26955199       0.00000000       7730.58594       1.36927009    
 -0.495362997      -1.26606500     -0.303519011       7730.58594       1.36927009    
 -0.494486004      -1.26955199       0.00000000       5978.63135       1.38052678    
 -0.346311986      -1.31449997       0.00000000       5978.63135       1.38052678    
 -0.346753001      -1.31307304     -0.303510010       5978.63135       1.38052678    
 -0.495362997      -1.26606500     -0.303519011       5978.63135       1.38052678    
 -0.346753001      -1.31307304     -0.303510010       2371.14917      0.179853469    
 -0.193608001      -1.34425998     -0.303494990       2371.14917      0.179853469    
 -0.195028007      -1.34579206     -0.606999993       2371.14917      0.179853469    
 -0.348751009      -1.31376004     -0.606999993       2371.14917      0.179853469    
 -0.346753001      -1.31307304     -0.303510010       2734.45410      0.125831008    
 -0.348751009      -1.31376004     -0.606999993       2734.45410      0.125831008    
 -0.499298006      -1.26809204     -0.606999993       2734.45410      0.125831008    
 -0.495362997      -1.26606500     -0.303519011       2734.45410      0.125831008    
 -0.346753001      -1.31307304     -0.303510010       3627.60767       1.32501888    
 -0.346311986      -1.31449997       0.00000000       3627.60767       1.32501888    
 -0.193381995      -1.34595394       0.00000000       3627.60767       1.32501888    
 -0.193608001      -1.34425998     -0.303494990       3627.60767       1.32501888    
 -0.193381995      -1.34595394       0.00000000       1194.87561      0.835380137    
  -3.75179984E-02  -1.36130500       0.00000000       1194.87561      0.835380137    
  -3.73950005E-02  -1.35827899     -0.303512007       1194.87561      0.835380137    
 -0.193608001      -1.34425998     -0.303494990       1194.87561      0.835380137    
  -3.73950005E-02  -1.35827899     -0.303512007       2090.88379       8.57924297E-02
  0.119547002      -1.35239303     -0.303498000       2090.88379       8.57924297E-02
  0.119135000      -1.35326600     -0.606999993       2090.88379       8.57924297E-02
  -3.82840000E-02  -1.36122894     -0.606998980       2090.88379       8.57924297E-02
  -3.73950005E-02  -1.35827899     -0.303512007       2121.68311      0.162065789    
  -3.82840000E-02  -1.36122894     -0.606998980       2121.68311      0.162065789    
 -0.195028007      -1.34579206     -0.606999993       2121.68311      0.162065789    
 -0.193608001      -1.34425998     -0.303494990       2121.68311      0.162065789    
  -3.73950005E-02  -1.35827899     -0.303512007       2128.59961      -1.05045044    
  -3.75179984E-02  -1.36130500       0.00000000       2128.59961      -1.05045044    
  0.119788997      -1.35320199       0.00000000       2128.59961      -1.05045044    
  0.119547002      -1.35239303     -0.303498000       2128.59961      -1.05045044    
  0.119788997      -1.35320199       0.00000000       4902.76514      -1.22886574    
  0.276576012      -1.33565402       0.00000000       4902.76514      -1.22886574    
  0.275435001      -1.33191597     -0.303496003       4902.76514      -1.22886574    
  0.119547002      -1.35239303     -0.303498000       4902.76514      -1.22886574    
  0.275435001      -1.33191597     -0.303496003       2722.74609       2.71582697E-02
  0.427076995      -1.28898001     -0.303507000       2722.74609       2.71582697E-02
  0.427242011      -1.28995001     -0.606999993       2722.74609       2.71582697E-02
  0.275831014      -1.33588004     -0.606999993       2722.74609       2.71582697E-02
  0.275435001      -1.33191597     -0.303496003       2301.54419       1.99940912E-02
  0.275831014      -1.33588004     -0.606999993       2301.54419       1.99940912E-02
  0.119135000      -1.35326600     -0.606999993       2301.54419       1.99940912E-02
  0.119547002      -1.35239303     -0.303498000       2301.54419       1.99940912E-02
  0.275435001      -1.33191597     -0.303496003       7361.18115      -1.22090030    
  0.276576012      -1.33565402       0.00000000       7361.18115      -1.22090030    
  0.427509993      -1.28986895       0.00000000       7361.18115      -1.22090030    
  0.427076995      -1.28898001     -0.303507000       7361.18115      -1.22090030    
  0.427509993      -1.28986895       0.00000000       9277.24902      -1.17830932    
  0.574636996      -1.23315501       0.00000000       9277.24902      -1.17830932    
  0.573706985      -1.23136795     -0.303485990       9277.24902      -1.17830932    
  0.427076995      -1.28898001     -0.303507000       9277.24902      -1.17830932    
  0.573706985      -1.23136795     -0.303485990       3852.89038      0.210666269    
  0.712854981      -1.15688002     -0.303496987       3852.89038      0.210666269    
  0.713809013      -1.15876603     -0.606999993       3852.89038      0.210666269    
  0.574283004      -1.23334301     -0.606999993       3852.89038      0.210666269    
  0.573706985      -1.23136795     -0.303485990       3263.73999      0.105106756    
  0.574283004      -1.23334301     -0.606999993       3263.73999      0.105106756    
  0.427242011      -1.28995001     -0.606999993       3263.73999      0.105106756    
  0.427076995      -1.28898001     -0.303507000       3263.73999      0.105106756    
  0.573706985      -1.23136795     -0.303485990       10848.6035      -1.14110029    
  0.574636996      -1.23315501       0.00000000       10848.6035      -1.14110029    
  0.713741004      -1.15880203       0.00000000       10848.6035      -1.14110029    
  0.712854981      -1.15688002     -0.303496987       10848.6035      -1.14110029    
  0.713741004      -1.15880203       0.00000000       11939.2236      -1.11385500    
  0.841937006      -1.06636095       0.00000000       11939.2236      -1.11385500    
  0.841498017      -1.06573403     -0.303485990       11939.2236      -1.11385500    
  0.712854981      -1.15688002     -0.303496987       11939.2236      -1.11385500    
  0.841498017      -1.06573403     -0.303485990       4964.13574      0.461143196    
  0.960639000     -0.962104976     -0.303470999       4964.13574      0.461143196    
  0.964356005     -0.965893984     -0.606999993       4964.13574      0.461143196    
  0.841796994      -1.06647599     -0.606999993       4964.13574      0.461143196    
  0.841498017      -1.06573403     -0.303485990       4450.21387      0.340675294    
  0.841796994      -1.06647599     -0.606999993       4450.21387      0.340675294    
  0.713809013      -1.15876603     -0.606999993       4450.21387      0.340675294    
  0.712854981      -1.15688002     -0.303496987       4450.21387      0.340675294    
  0.841498017      -1.06573403     -0.303485990       13183.2607      -1.12767565    
  0.841937006      -1.06636095       0.00000000       13183.2607      -1.12767565    
  0.963932991     -0.966242015       0.00000000       13183.2607      -1.12767565    
  0.960639000     -0.962104976     -0.303470999       13183.2607      -1.12767565    
  0.963932991     -0.966242015       0.00000000       13698.9229      -1.13730180    
   1.06506598     -0.843514979       0.00000000       13698.9229      -1.13730180    
   1.06428695     -0.842682004     -0.303481996       13698.9229      -1.13730180    
  0.960639000     -0.962104976     -0.303470999       13698.9229      -1.13730180    
   1.06428695     -0.842682004     -0.303481996       5865.08057      0.712747693    
   1.15591598     -0.714210987     -0.303485006       5865.08057      0.712747693    
   1.15788805     -0.715448976     -0.606999993       5865.08057      0.712747693    
   1.06537795     -0.843134999     -0.606999993       5865.08057      0.712747693    
   1.06428695     -0.842682004     -0.303481996       5456.80762      0.589294910    
   1.06537795     -0.843134999     -0.606999993       5456.80762      0.589294910    
  0.964356005     -0.965893984     -0.606999993       5456.80762      0.589294910    
  0.960639000     -0.962104976     -0.303470999       5456.80762      0.589294910    
   1.06428695     -0.842682004     -0.303481996       13693.2305      -1.15700734    
   1.06506598     -0.843514979       0.00000000       13693.2305      -1.15700734    
   1.15792501     -0.715381980       0.00000000       13693.2305      -1.15700734    
   1.15591598     -0.714210987     -0.303485006       13693.2305      -1.15700734    
   1.15792501     -0.715381980       0.00000000       14073.9033      -1.19987690    
   1.23237598     -0.576093972       0.00000000       14073.9033      -1.19987690    
   1.23120904     -0.575251997     -0.303514004       14073.9033      -1.19987690    
   1.15591598     -0.714210987     -0.303485006       14073.9033      -1.19987690    
   1.23120904     -0.575251997     -0.303514004       6436.65234      0.901549280    
   1.28844094     -0.428344995     -0.303512990       6436.65234      0.901549280    
   1.28952503     -0.428642988     -0.606999993       6436.65234      0.901549280    
   1.23252702     -0.575810015     -0.606999993       6436.65234      0.901549280    
   1.23120904     -0.575251997     -0.303514004       6153.45898      0.810326099    
   1.23252702     -0.575810015     -0.606999993       6153.45898      0.810326099    
   1.15788805     -0.715448976     -0.606999993       6153.45898      0.810326099    
   1.15591598     -0.714210987     -0.303485006       6153.45898      0.810326099    
   1.23120904     -0.575251997     -0.303514004       13977.0283      -1.23300469    
   1.23237598     -0.576093972       0.00000000       13977.0283      -1.23300469    
   1.28947699     -0.428801000       0.00000000       13977.0283      -1.23300469    
   1.28844094     -0.428344995     -0.303512990       13977.0283      -1.23300469    
   1.28947699     -0.428801000       0.00000000       14155.9023      -1.27105772    
   1.33532202     -0.277671993       0.00000000       14155.9023      -1.27105772    
   1.33076501     -0.276203990     -0.303492010       14155.9023      -1.27105772    
   1.28844094     -0.428344995     -0.303512990       14155.9023      -1.27105772    
   1.33076501     -0.276203990     -0.303492010       6773.40869       1.01432264    
   1.35229194     -0.119709998     -0.303514004       6773.40869       1.01432264    
   1.35321999     -0.119608998     -0.606999993       6773.40869       1.01432264    
   1.33549094     -0.277112991     -0.606999993       6773.40869       1.01432264    
   1.33076501     -0.276203990     -0.303492010       6639.92627      0.969763637    
   1.33549094     -0.277112991     -0.606999993       6639.92627      0.969763637    
   1.28952503     -0.428642988     -0.606999993       6639.92627      0.969763637    
   1.28844094     -0.428344995     -0.303512990       6639.92627      0.969763637    
   1.33076501     -0.276203990     -0.303492010       14013.3721      -1.29182637    
   1.33532202     -0.277671993       0.00000000       14013.3721      -1.29182637    
   1.35319102     -0.119900003       0.00000000       14013.3721      -1.29182637    
   1.35229194     -0.119709998     -0.303514004       14013.3721      -1.29182637    
   1.35319102     -0.119900003       0.00000000       13915.5791      -1.30138278    
   1.36124396       3.81390005E-02   0.00000000       13915.5791      -1.30138278    
   1.35858905       3.79349999E-02 -0.303501010       13915.5791      -1.30138278    
   1.35229194     -0.119709998     -0.303514004       13915.5791      -1.30138278    
   1.35858905       3.79349999E-02 -0.303501010       6666.73584       1.01419413    
   1.34464097      0.195331007     -0.303496003       6666.73584       1.01419413    
   1.34573400      0.195616007     -0.606999993       6666.73584       1.01419413    
   1.36126804       3.78950015E-02 -0.606999993       6666.73584       1.01419413    
   1.35858905       3.79349999E-02 -0.303501010       6772.17041       1.02840948    
   1.36126804       3.78950015E-02 -0.606999993       6772.17041       1.02840948    
   1.35321999     -0.119608998     -0.606999993       6772.17041       1.02840948    
   1.35229194     -0.119709998     -0.303514004       6772.17041       1.02840948    
   1.35858905       3.79349999E-02 -0.303501010       14174.8623      -1.30390799    
   1.36124396       3.81390005E-02   0.00000000       14174.8623      -1.30390799    
   1.34575403      0.195406005       0.00000000       14174.8623      -1.30390799    
   1.34464097      0.195331007     -0.303496003       14174.8623      -1.30390799    
   1.34575403      0.195406005       0.00000000       14188.6465      -1.28628552    
   1.31339800      0.349945009       0.00000000       14188.6465      -1.28628552    
   1.31216300      0.349725991     -0.303487003       14188.6465      -1.28628552    
   1.34464097      0.195331007     -0.303496003       14188.6465      -1.28628552    
   1.31216300      0.349725991     -0.303487003       6336.46826      0.912733138    
   1.26341999      0.500032008     -0.303494006       6336.46826      0.912733138    
   1.26736605      0.501691997     -0.606999993       6336.46826      0.912733138    
   1.31333196      0.350163996     -0.606999993       6336.46826      0.912733138    
   1.31216300      0.349725991     -0.303487003       6548.93848      0.978524685    
   1.31333196      0.350163996     -0.606999993       6548.93848      0.978524685    
   1.34573400      0.195616007     -0.606999993       6548.93848      0.978524685    
   1.34464097      0.195331007     -0.303496003       6548.93848      0.978524685    
   1.31216300      0.349725991     -0.303487003       14653.8164      -1.26864517    
   1.31339800      0.349945009       0.00000000       14653.8164      -1.26864517    
   1.26751196      0.501209974       0.00000000       14653.8164      -1.26864517    
   1.26341999      0.500032008     -0.303494006       14653.8164      -1.26864517    
   1.26751196      0.501209974       0.00000000       14480.1572      -1.23004436    
   1.19658697      0.643051028       0.00000000       14480.1572      -1.23004436    
   1.19583094      0.642783999     -0.303505003       14480.1572      -1.23004436    
   1.26341999      0.500032008     -0.303494006       14480.1572      -1.23004436    
   1.19583094      0.642783999     -0.303505003       5884.30273      0.735743403    
   1.11495602      0.778467000     -0.303483993       5884.30273      0.735743403    
   1.11731696      0.779847026     -0.606999993       5884.30273      0.735743403    
   1.19653296      0.643149972     -0.606999993       5884.30273      0.735743403    
   1.19583094      0.642783999     -0.303505003       6128.92383      0.832883000    
   1.19653296      0.643149972     -0.606999993       6128.92383      0.832883000    
   1.26736605      0.501691997     -0.606999993       6128.92383      0.832883000    
   1.26341999      0.500032008     -0.303494006       6128.92383      0.832883000    
   1.19583094      0.642783999     -0.303505003       13989.8994      -1.18226111    
   1.19658697      0.643051028       0.00000000       13989.8994      -1.18226111    
   1.11705506      0.780165970       0.00000000       13989.8994      -1.18226111    
   1.11495602      0.778467000     -0.303483993       13989.8994      -1.18226111    
   1.11705506      0.780165970       0.00000000       13616.1543      -1.14938748    
   1.01674199      0.902397990       0.00000000       13616.1543      -1.14938748    
   1.01591504      0.901737988     -0.303478003       13616.1543      -1.14938748    
   1.11495602      0.778467000     -0.303483993       13616.1543      -1.14938748    
   1.01591504      0.901737988     -0.303478003       5156.06250      0.503279805    
  0.904204011       1.01322901     -0.303456992       5156.06250      0.503279805    
  0.905143023       1.01448905     -0.606999993       5156.06250      0.503279805    
   1.01659799      0.902572989     -0.606999993       5156.06250      0.503279805    
   1.01591504      0.901737988     -0.303478003       5535.46338      0.619907498    
   1.01659799      0.902572989     -0.606999993       5535.46338      0.619907498    
   1.11731696      0.779847026     -0.606999993       5535.46338      0.619907498    
   1.11495602      0.778467000     -0.303483993       5535.46338      0.619907498    
   1.01591504      0.901737988     -0.303478003       12858.1250      -1.11819661    
   1.01674199      0.902397990       0.00000000       12858.1250      -1.11819661    
  0.905318975       1.01434398       0.00000000       12858.1250      -1.11819661    
  0.904204011       1.01322901     -0.303456992       12858.1250      -1.11819661    
  0.905318975       1.01434398       0.00000000       12340.6133      -1.11901784    
  0.782918990       1.11479497       0.00000000       12340.6133      -1.11901784    
  0.780644000       1.11195600     -0.303485006       12340.6133      -1.11901784    
  0.904204011       1.01322901     -0.303456992       12340.6133      -1.11901784    
  0.780644000       1.11195600     -0.303485006       4120.68555      0.236778110    
  0.645825028       1.19414902     -0.303514004       4120.68555      0.236778110    
  0.646153986       1.19492805     -0.606999993       4120.68555      0.236778110    
  0.782611012       1.11504900     -0.606999993       4120.68555      0.236778110    
  0.780644000       1.11195600     -0.303485006       4671.08398      0.369362980    
  0.782611012       1.11504900     -0.606999993       4671.08398      0.369362980    
  0.905143023       1.01448905     -0.606999993       4671.08398      0.369362980    
  0.904204011       1.01322901     -0.303456992       4671.08398      0.369362980    
  0.780644000       1.11195600     -0.303485006       11294.4961      -1.13301814    
  0.782918990       1.11479497       0.00000000       11294.4961      -1.13301814    
  0.646345019       1.19482601       0.00000000       11294.4961      -1.13301814    
  0.645825028       1.19414902     -0.303514004       11294.4961      -1.13301814    
  0.646345019       1.19482601       0.00000000       9825.41504      -1.15994418    
  0.504974008       1.26637006       0.00000000       9825.41504      -1.15994418    
  0.503772974       1.26314998     -0.303521991       9825.41504      -1.15994418    
  0.645825028       1.19414902     -0.303514004       9825.41504      -1.15994418    
  0.503772974       1.26314998     -0.303521991       2980.16626       3.80246458E-03
  0.353130996       1.31116498     -0.303510994       2980.16626       3.80246458E-03
  0.353300005       1.31237996     -0.606999993       2980.16626       3.80246458E-03
  0.505183995       1.26630700     -0.606999993       2980.16626       3.80246458E-03
  0.503772974       1.26314998     -0.303521991       3549.47754      0.106481858    
  0.505183995       1.26630700     -0.606999993       3549.47754      0.106481858    
  0.646153986       1.19492805     -0.606999993       3549.47754      0.106481858    
  0.645825028       1.19414902     -0.303514004       3549.47754      0.106481858    
  0.503772974       1.26314998     -0.303521991       7897.36182      -1.19818830    
  0.504974008       1.26637006       0.00000000       7897.36182      -1.19818830    
  0.353493989       1.31232095       0.00000000       7897.36182      -1.19818830    
  0.353130996       1.31116498     -0.303510994       7897.36182      -1.19818830    
  0.353493989       1.31232095       0.00000000       5363.37109      -1.20718157    
  0.199064001       1.34539402       0.00000000       5363.37109      -1.20718157    
  0.198755994       1.34360003     -0.303496003       5363.37109      -1.20718157    
  0.353130996       1.31116498     -0.303510994       5363.37109      -1.20718157    
  0.198755994       1.34360003     -0.303496003       2161.09692      -1.52287064E-02
   4.12769988E-02   1.35817802     -0.303508013       2161.09692      -1.52287064E-02
   4.12410013E-02   1.36093795     -0.606999993       2161.09692      -1.52287064E-02
  0.199025005       1.34539795     -0.606999993       2161.09692      -1.52287064E-02
  0.198755994       1.34360003     -0.303496003       2500.66138      -3.72814089E-02
  0.199025005       1.34539795     -0.606999993       2500.66138      -3.72814089E-02
  0.353300005       1.31237996     -0.606999993       2500.66138      -3.72814089E-02
  0.353130996       1.31116498     -0.303510994       2500.66138      -3.72814089E-02
  0.198755994       1.34360003     -0.303496003       2678.55786      -1.14128208    
  0.199064001       1.34539402       0.00000000       2678.55786      -1.14128208    
   4.17769998E-02   1.36088502       0.00000000       2678.55786      -1.14128208    
   4.12769988E-02   1.35817802     -0.303508013       2678.55786      -1.14128208    
   4.17769998E-02   1.36088502       0.00000000       778.469543      0.456438273    
 -0.116410002       1.35353506       0.00000000       778.469543      0.456438273    
 -0.116471998       1.35271096     -0.303496987       778.469543      0.456438273    
   4.12769988E-02   1.35817802     -0.303508013       778.469543      0.456438273    
 -0.116471998       1.35271096     -0.303496987       2204.51074      0.127173603    
 -0.273027003       1.33229196     -0.303496003       2204.51074      0.127173603    
 -0.273876995       1.33647299     -0.606999993       2204.51074      0.127173603    
 -0.116722003       1.35350394     -0.606999993       2204.51074      0.127173603    
 -0.116471998       1.35271096     -0.303496987       2065.17578       6.65990785E-02
 -0.116722003       1.35350394     -0.606999993       2065.17578       6.65990785E-02
   4.12410013E-02   1.36093795     -0.606999993       2065.17578       6.65990785E-02
   4.12769988E-02   1.35817802     -0.303508013       2065.17578       6.65990785E-02
 -0.116471998       1.35271096     -0.303496987       3229.68115       1.39028490    
 -0.116410002       1.35353506       0.00000000       3229.68115       1.39028490    
 -0.274069011       1.33641505       0.00000000       3229.68115       1.39028490    
 -0.273027003       1.33229196     -0.303496003       3229.68115       1.39028490    
 -0.274069011       1.33641505       0.00000000       5614.32129       1.42003000    
 -0.425588995       1.29045200       0.00000000       5614.32129       1.42003000    
 -0.425258011       1.28953803     -0.303507000       5614.32129       1.42003000    
 -0.273027003       1.33229196     -0.303496003       5614.32129       1.42003000    
 -0.425258011       1.28953803     -0.303507000       2996.36377      -6.75613945E-03
 -0.572302997       1.23206902     -0.303485990       2996.36377      -6.75613945E-03
 -0.573064029       1.23399496     -0.606999993       2996.36377      -6.75613945E-03
 -0.425651014       1.29043305     -0.606999993       2996.36377      -6.75613945E-03
 -0.425258011       1.28953803     -0.303507000       2550.47681      0.101340100    
 -0.425651014       1.29043305     -0.606999993       2550.47681      0.101340100    
 -0.273876995       1.33647299     -0.606999993       2550.47681      0.101340100    
 -0.273027003       1.33229196     -0.303496003       2550.47681      0.101340100    
 -0.425258011       1.28953803     -0.303507000       7403.53467       1.39270651    
 -0.425588995       1.29045200       0.00000000       7403.53467       1.39270651    
 -0.573195994       1.23392498       0.00000000       7403.53467       1.39270651    
 -0.572302997       1.23206902     -0.303485990       7403.53467       1.39270651    
 -0.573195994       1.23392498       0.00000000       8756.76270       1.37088144    
 -0.712655008       1.15938199       0.00000000       8756.76270       1.37088144    
 -0.711889029       1.15749002     -0.303496003       8756.76270       1.37088144    
 -0.572302997       1.23206902     -0.303485990       8756.76270       1.37088144    
 -0.711889029       1.15749002     -0.303496003       4019.66992     -0.314574480    
 -0.840825975       1.06629205     -0.303485990       4019.66992     -0.314574480    
 -0.841368973       1.06682706     -0.606999993       4019.66992     -0.314574480    
 -0.712980986       1.15920806     -0.606999993       4019.66992     -0.314574480    
 -0.711889029       1.15749002     -0.303496003       3489.39062     -0.147106558    
 -0.712980986       1.15920806     -0.606999993       3489.39062     -0.147106558    
 -0.573064029       1.23399496     -0.606999993       3489.39062     -0.147106558    
 -0.572302997       1.23206902     -0.303485990       3489.39062     -0.147106558    
 -0.711889029       1.15749002     -0.303496003       9510.24805       1.35909569    
 -0.712655008       1.15938199       0.00000000       9510.24805       1.35909569    
 -0.841165006       1.06699395       0.00000000       9510.24805       1.35909569    
 -0.840825975       1.06629205     -0.303485990       9510.24805       1.35909569    
 -0.841165006       1.06699395       0.00000000       10364.5010       1.39612854    
 -0.963320017      0.966744006       0.00000000       10364.5010       1.39612854    
 -0.960084975      0.962615013     -0.303470999       10364.5010       1.39612854    
 -0.840825975       1.06629205     -0.303485990       10364.5010       1.39612854    
 -0.960084975      0.962615013     -0.303470999       4950.58301     -0.618760765    
  -1.06383705      0.843237996     -0.303481996       4950.58301     -0.618760765    
  -1.06481802      0.843816996     -0.606999993       4950.58301     -0.618760765    
 -0.963873982      0.966289997     -0.606999993       4950.58301     -0.618760765    
 -0.960084975      0.962615013     -0.303470999       4500.32422     -0.471800715    
 -0.963873982      0.966289997     -0.606999993       4500.32422     -0.471800715    
 -0.841368973       1.06682706     -0.606999993       4500.32422     -0.471800715    
 -0.840825975       1.06629205     -0.303485990       4500.32422     -0.471800715    
 -0.960084975      0.962615013     -0.303470999       10830.8066       1.43949628    
 -0.963320017      0.966744006       0.00000000       10830.8066       1.43949628    
  -1.06464398      0.844029009       0.00000000       10830.8066       1.43949628    
  -1.06383705      0.843237996     -0.303481996       10830.8066       1.43949628    
  -1.06464398      0.844029009       0.00000000       11194.2266       1.50283015    
  -1.15769398      0.715813994       0.00000000       11194.2266       1.50283015    
  -1.15564799      0.714680016     -0.303483993       11194.2266       1.50283015    
  -1.06383705      0.843237996     -0.303481996       11194.2266       1.50283015    
  -1.15564799      0.714680016     -0.303483993       5484.34912     -0.861387253    
  -1.23108304      0.575536013     -0.303514004       5484.34912     -0.861387253    
  -1.23232996      0.576179981     -0.606999993       5484.34912     -0.861387253    
  -1.15756094      0.716063023     -0.606999993       5484.34912     -0.861387253    
  -1.15564799      0.714680016     -0.303483993       5267.03467     -0.750371277    
  -1.15756094      0.716063023     -0.606999993       5267.03467     -0.750371277    
  -1.06481802      0.843816996     -0.606999993       5267.03467     -0.750371277    
  -1.06383705      0.843237996     -0.303481996       5267.03467     -0.750371277    
  -1.15564799      0.714680016     -0.303483993       11965.1182       1.57973588    
  -1.15769398      0.715813994       0.00000000       11965.1182       1.57973588    
  -1.23224795      0.576331973       0.00000000       11965.1182       1.57973588    
  -1.23108304      0.575536013     -0.303514004       11965.1182       1.57973588    
  -1.23224795      0.576331973       0.00000000       12309.8896       1.64293599    
  -1.28948605      0.428772002       0.00000000       12309.8896       1.64293599    
  -1.28842103      0.428404987     -0.303512990       12309.8896       1.64293599    
  -1.23108304      0.575536013     -0.303514004       12309.8896       1.64293599    
  -1.28842103      0.428404987     -0.303512990       5796.50537      -1.03469622    
  -1.33082402      0.275959998     -0.303492010       5796.50537      -1.03469622    
  -1.33550000      0.277083993     -0.606999993       5796.50537      -1.03469622    