 VARIABLES="X" "Y" "Z" "abs(p) (Pa)" "angle(p) (rad)"
ZONE N=   2720,E =    2069, F=FEPOINT, ET=QUADRILATERAL
 -0.767116010      -1.12776399       0.00000000       462.081940       1.65185809    
 -0.769354999      -1.12002099     -0.303523988       462.081940       1.65185809    
 -0.896136999      -1.02028203     -0.303463012       462.081940       1.65185809    
 -0.894908011      -1.02288902       0.00000000       462.081940       1.65185809    
 -0.767116010      -1.12776399       0.00000000       393.775208       1.65165067    
 -0.630888999      -1.20308697       0.00000000       393.775208       1.65165067    
 -0.635528028      -1.19958198     -0.303541005       393.775208       1.65165067    
 -0.769354999      -1.12002099     -0.303523988       393.775208       1.65165067    
 -0.635528028      -1.19958198     -0.303541005       285.795227       1.66887152    
 -0.495362997      -1.26606500     -0.303519011       285.795227       1.66887152    
 -0.499298006      -1.26809204     -0.606999993       285.795227       1.66887152    
 -0.640147984      -1.19813800     -0.606998026       285.795227       1.66887152    
 -0.635528028      -1.19958198     -0.303541005       354.172028       1.66903579    
 -0.640147984      -1.19813800     -0.606998026       354.172028       1.66903579    
 -0.777105987      -1.11956596     -0.606999993       354.172028       1.66903579    
 -0.769354999      -1.12002099     -0.303523988       354.172028       1.66903579    
 -0.635528028      -1.19958198     -0.303541005       302.313171       1.65387154    
 -0.630888999      -1.20308697       0.00000000       302.313171       1.65387154    
 -0.494486004      -1.26955199       0.00000000       302.313171       1.65387154    
 -0.495362997      -1.26606500     -0.303519011       302.313171       1.65387154    
 -0.494486004      -1.26955199       0.00000000       228.548523       1.65377343    
 -0.346311986      -1.31449997       0.00000000       228.548523       1.65377343    
 -0.346753001      -1.31307304     -0.303510010       228.548523       1.65377343    
 -0.495362997      -1.26606500     -0.303519011       228.548523       1.65377343    
 -0.346753001      -1.31307304     -0.303510010       141.597336       1.66778147    
 -0.193608001      -1.34425998     -0.303494990       141.597336       1.66778147    
 -0.195028007      -1.34579206     -0.606999993       141.597336       1.66778147    
 -0.348751009      -1.31376004     -0.606999993       141.597336       1.66778147    
 -0.346753001      -1.31307304     -0.303510010       215.917435       1.66862822    
 -0.348751009      -1.31376004     -0.606999993       215.917435       1.66862822    
 -0.499298006      -1.26809204     -0.606999993       215.917435       1.66862822    
 -0.495362997      -1.26606500     -0.303519011       215.917435       1.66862822    
 -0.346753001      -1.31307304     -0.303510010       149.850586       1.65318835    
 -0.346311986      -1.31449997       0.00000000       149.850586       1.65318835    
 -0.193381995      -1.34595394       0.00000000       149.850586       1.65318835    
 -0.193608001      -1.34425998     -0.303494990       149.850586       1.65318835    
 -0.193381995      -1.34595394       0.00000000       87.3098297       1.64191175    
  -3.75179984E-02  -1.36130500       0.00000000       87.3098297       1.64191175    
  -3.73950005E-02  -1.35827899     -0.303512007       87.3098297       1.64191175    
 -0.193608001      -1.34425998     -0.303494990       87.3098297       1.64191175    
  -3.73950005E-02  -1.35827899     -0.303512007       13.5300751      -1.46495330    
  0.119547002      -1.35239303     -0.303498000       13.5300751      -1.46495330    
  0.119135000      -1.35326600     -0.606999993       13.5300751      -1.46495330    
  -3.82840000E-02  -1.36122894     -0.606998980       13.5300751      -1.46495330    
  -3.73950005E-02  -1.35827899     -0.303512007       62.8948212       1.66787028    
  -3.82840000E-02  -1.36122894     -0.606998980       62.8948212       1.66787028    
 -0.195028007      -1.34579206     -0.606999993       62.8948212       1.66787028    
 -0.193608001      -1.34425998     -0.303494990       62.8948212       1.66787028    
  -3.73950005E-02  -1.35827899     -0.303512007       6.41473103       1.48027170    
  -3.75179984E-02  -1.36130500       0.00000000       6.41473103       1.48027170    
  0.119788997      -1.35320199       0.00000000       6.41473103       1.48027170    
  0.119547002      -1.35239303     -0.303498000       6.41473103       1.48027170    
  0.119788997      -1.35320199       0.00000000       79.4154434      -1.47439277    
  0.276576012      -1.33565402       0.00000000       79.4154434      -1.47439277    
  0.275435001      -1.33191597     -0.303496003       79.4154434      -1.47439277    
  0.119547002      -1.35239303     -0.303498000       79.4154434      -1.47439277    
  0.275435001      -1.33191597     -0.303496003       152.181519      -1.46517384    
  0.427076995      -1.28898001     -0.303507000       152.181519      -1.46517384    
  0.427242011      -1.28995001     -0.606999993       152.181519      -1.46517384    
  0.275831014      -1.33588004     -0.606999993       152.181519      -1.46517384    
  0.275435001      -1.33191597     -0.303496003       78.4888535      -1.45929718    
  0.275831014      -1.33588004     -0.606999993       78.4888535      -1.45929718    
  0.119135000      -1.35326600     -0.606999993       78.4888535      -1.45929718    
  0.119547002      -1.35239303     -0.303498000       78.4888535      -1.45929718    
  0.275435001      -1.33191597     -0.303496003       157.998581      -1.48063052    
  0.276576012      -1.33565402       0.00000000       157.998581      -1.48063052    
  0.427509993      -1.28986895       0.00000000       157.998581      -1.48063052    
  0.427076995      -1.28898001     -0.303507000       157.998581      -1.48063052    
  0.427509993      -1.28986895       0.00000000       233.921082      -1.48212421    
  0.574636996      -1.23315501       0.00000000       233.921082      -1.48212421    
  0.573706985      -1.23136795     -0.303485990       233.921082      -1.48212421    
  0.427076995      -1.28898001     -0.303507000       233.921082      -1.48212421    
  0.573706985      -1.23136795     -0.303485990       296.550140      -1.46826982    
  0.712854981      -1.15688002     -0.303496987       296.550140      -1.46826982    
  0.713809013      -1.15876603     -0.606999993       296.550140      -1.46826982    
  0.574283004      -1.23334301     -0.606999993       296.550140      -1.46826982    
  0.573706985      -1.23136795     -0.303485990       226.106812      -1.46721399    
  0.574283004      -1.23334301     -0.606999993       226.106812      -1.46721399    
  0.427242011      -1.28995001     -0.606999993       226.106812      -1.46721399    
  0.427076995      -1.28898001     -0.303507000       226.106812      -1.46721399    
  0.573706985      -1.23136795     -0.303485990       309.134796      -1.48343897    
  0.574636996      -1.23315501       0.00000000       309.134796      -1.48343897    
  0.713741004      -1.15880203       0.00000000       309.134796      -1.48343897    
  0.712854981      -1.15688002     -0.303496987       309.134796      -1.48343897    
  0.713741004      -1.15880203       0.00000000       378.886292      -1.48406196    
  0.841937006      -1.06636095       0.00000000       378.886292      -1.48406196    
  0.841498017      -1.06573403     -0.303485990       378.886292      -1.48406196    
  0.712854981      -1.15688002     -0.303496987       378.886292      -1.48406196    
  0.841498017      -1.06573403     -0.303485990       419.913330      -1.46835780    
  0.960639000     -0.962104976     -0.303470999       419.913330      -1.46835780    
  0.964356005     -0.965893984     -0.606999993       419.913330      -1.46835780    
  0.841796994      -1.06647599     -0.606999993       419.913330      -1.46835780    
  0.841498017      -1.06573403     -0.303485990       359.011536      -1.46825480    
  0.841796994      -1.06647599     -0.606999993       359.011536      -1.46825480    
  0.713809013      -1.15876603     -0.606999993       359.011536      -1.46825480    
  0.712854981      -1.15688002     -0.303496987       359.011536      -1.46825480    
  0.841498017      -1.06573403     -0.303485990       450.162201      -1.48481476    
  0.841937006      -1.06636095       0.00000000       450.162201      -1.48481476    
  0.963932991     -0.966242015       0.00000000       450.162201      -1.48481476    
  0.960639000     -0.962104976     -0.303470999       450.162201      -1.48481476    
  0.963932991     -0.966242015       0.00000000       506.812286      -1.48491359    
   1.06506598     -0.843514979       0.00000000       506.812286      -1.48491359    
   1.06428695     -0.842682004     -0.303481996       506.812286      -1.48491359    
  0.960639000     -0.962104976     -0.303470999       506.812286      -1.48491359    
   1.06428695     -0.842682004     -0.303481996       534.336243      -1.47051287    
   1.15591598     -0.714210987     -0.303485006       534.336243      -1.47051287    
   1.15788805     -0.715448976     -0.606999993       534.336243      -1.47051287    
   1.06537795     -0.843134999     -0.606999993       534.336243      -1.47051287    
   1.06428695     -0.842682004     -0.303481996       473.083740      -1.46855104    
   1.06537795     -0.843134999     -0.606999993       473.083740      -1.46855104    
  0.964356005     -0.965893984     -0.606999993       473.083740      -1.46855104    
  0.960639000     -0.962104976     -0.303470999       473.083740      -1.46855104    
   1.06428695     -0.842682004     -0.303481996       557.983276      -1.48497808    
   1.06506598     -0.843514979       0.00000000       557.983276      -1.48497808    
   1.15792501     -0.715381980       0.00000000       557.983276      -1.48497808    
   1.15591598     -0.714210987     -0.303485006       557.983276      -1.48497808    
   1.15792501     -0.715381980       0.00000000       600.613464      -1.48480666    
   1.23237598     -0.576093972       0.00000000       600.613464      -1.48480666    
   1.23120904     -0.575251997     -0.303514004       600.613464      -1.48480666    
   1.15591598     -0.714210987     -0.303485006       600.613464      -1.48480666    
   1.23120904     -0.575251997     -0.303514004       606.441895      -1.47029757    
   1.28844094     -0.428344995     -0.303512990       606.441895      -1.47029757    
   1.28952503     -0.428642988     -0.606999993       606.441895      -1.47029757    
   1.23252702     -0.575810015     -0.606999993       606.441895      -1.47029757    
   1.23120904     -0.575251997     -0.303514004       574.125488      -1.47031510    
   1.23252702     -0.575810015     -0.606999993       574.125488      -1.47031510    
   1.15788805     -0.715448976     -0.606999993       574.125488      -1.47031510    
   1.15591598     -0.714210987     -0.303485006       574.125488      -1.47031510    
   1.23120904     -0.575251997     -0.303514004       647.095642      -1.48578155    
   1.23237598     -0.576093972       0.00000000       647.095642      -1.48578155    
   1.28947699     -0.428801000       0.00000000       647.095642      -1.48578155    
   1.28844094     -0.428344995     -0.303512990       647.095642      -1.48578155    
   1.28947699     -0.428801000       0.00000000       666.379150      -1.48521757    
   1.33532202     -0.277671993       0.00000000       666.379150      -1.48521757    
   1.33076501     -0.276203990     -0.303492010       666.379150      -1.48521757    
   1.28844094     -0.428344995     -0.303512990       666.379150      -1.48521757    
   1.33076501     -0.276203990     -0.303492010       667.152161      -1.47228312    
   1.35229194     -0.119709998     -0.303514004       667.152161      -1.47228312    
   1.35321999     -0.119608998     -0.606999993       667.152161      -1.47228312    
   1.33549094     -0.277112991     -0.606999993       667.152161      -1.47228312    
   1.33076501     -0.276203990     -0.303492010       629.594727      -1.46994424    
   1.33549094     -0.277112991     -0.606999993       629.594727      -1.46994424    
   1.28952503     -0.428642988     -0.606999993       629.594727      -1.46994424    
   1.28844094     -0.428344995     -0.303512990       629.594727      -1.46994424    
   1.33076501     -0.276203990     -0.303492010       669.076660      -1.48409140    
   1.33532202     -0.277671993       0.00000000       669.076660      -1.48409140    
   1.35319102     -0.119900003       0.00000000       669.076660      -1.48409140    
   1.35229194     -0.119709998     -0.303514004       669.076660      -1.48409140    
   1.35319102     -0.119900003       0.00000000       675.966614      -1.48400152    
   1.36124396       3.81390005E-02   0.00000000       675.966614      -1.48400152    
   1.35858905       3.79349999E-02 -0.303501010       675.966614      -1.48400152    
   1.35229194     -0.119709998     -0.303514004       675.966614      -1.48400152    
   1.35858905       3.79349999E-02 -0.303501010       656.212280      -1.47041059    
   1.34464097      0.195331007     -0.303496003       656.212280      -1.47041059    
   1.34573400      0.195616007     -0.606999993       656.212280      -1.47041059    
   1.36126804       3.78950015E-02 -0.606999993       656.212280      -1.47041059    
   1.35858905       3.79349999E-02 -0.303501010       660.234192      -1.47079909    
   1.36126804       3.78950015E-02 -0.606999993       660.234192      -1.47079909    
   1.35321999     -0.119608998     -0.606999993       660.234192      -1.47079909    
   1.35229194     -0.119709998     -0.303514004       660.234192      -1.47079909    
   1.35858905       3.79349999E-02 -0.303501010       695.995605      -1.48569620    
   1.36124396       3.81390005E-02   0.00000000       695.995605      -1.48569620    
   1.34575403      0.195406005       0.00000000       695.995605      -1.48569620    
   1.34464097      0.195331007     -0.303496003       695.995605      -1.48569620    
   1.34575403      0.195406005       0.00000000       682.964417      -1.48549235    
   1.31339800      0.349945009       0.00000000       682.964417      -1.48549235    
   1.31216300      0.349725991     -0.303487003       682.964417      -1.48549235    
   1.34464097      0.195331007     -0.303496003       682.964417      -1.48549235    
   1.31216300      0.349725991     -0.303487003       616.863831      -1.46930623    
   1.26341999      0.500032008     -0.303494006       616.863831      -1.46930623    
   1.26736605      0.501691997     -0.606999993       616.863831      -1.46930623    
   1.31333196      0.350163996     -0.606999993       616.863831      -1.46930623    
   1.31216300      0.349725991     -0.303487003       644.377197      -1.47029316    
   1.31333196      0.350163996     -0.606999993       644.377197      -1.47029316    
   1.34573400      0.195616007     -0.606999993       644.377197      -1.47029316    
   1.34464097      0.195331007     -0.303496003       644.377197      -1.47029316    
   1.31216300      0.349725991     -0.303487003       660.062439      -1.48509550    
   1.31339800      0.349945009       0.00000000       660.062439      -1.48509550    
   1.26751196      0.501209974       0.00000000       660.062439      -1.48509550    
   1.26341999      0.500032008     -0.303494006       660.062439      -1.48509550    
   1.26751196      0.501209974       0.00000000       606.134888      -1.48275900    
   1.19658697      0.643051028       0.00000000       606.134888      -1.48275900    
   1.19583094      0.642783999     -0.303505003       606.134888      -1.48275900    
   1.26341999      0.500032008     -0.303494006       606.134888      -1.48275900    
   1.19583094      0.642783999     -0.303505003       567.153687      -1.47075379    
   1.11495602      0.778467000     -0.303483993       567.153687      -1.47075379    
   1.11731696      0.779847026     -0.606999993       567.153687      -1.47075379    
   1.19653296      0.643149972     -0.606999993       567.153687      -1.47075379    
   1.19583094      0.642783999     -0.303505003       587.559021      -1.46899724    
   1.19653296      0.643149972     -0.606999993       587.559021      -1.46899724    
   1.26736605      0.501691997     -0.606999993       587.559021      -1.46899724    
   1.26341999      0.500032008     -0.303494006       587.559021      -1.46899724    
   1.19583094      0.642783999     -0.303505003       565.215576      -1.48243237    
   1.19658697      0.643051028       0.00000000       565.215576      -1.48243237    
   1.11705506      0.780165970       0.00000000       565.215576      -1.48243237    
   1.11495602      0.778467000     -0.303483993       565.215576      -1.48243237    
   1.11705506      0.780165970       0.00000000       517.637024      -1.48190975    
   1.01674199      0.902397990       0.00000000       517.637024      -1.48190975    
   1.01591504      0.901737988     -0.303478003       517.637024      -1.48190975    
   1.11495602      0.778467000     -0.303483993       517.637024      -1.48190975    
   1.01591504      0.901737988     -0.303478003       451.090271      -1.46725273    
  0.904204011       1.01322901     -0.303456992       451.090271      -1.46725273    
  0.905143023       1.01448905     -0.606999993       451.090271      -1.46725273    
   1.01659799      0.902572989     -0.606999993       451.090271      -1.46725273    
   1.01591504      0.901737988     -0.303478003       502.667328      -1.46762431    
   1.01659799      0.902572989     -0.606999993       502.667328      -1.46762431    
   1.11731696      0.779847026     -0.606999993       502.667328      -1.46762431    
   1.11495602      0.778467000     -0.303483993       502.667328      -1.46762431    
   1.01591504      0.901737988     -0.303478003       461.975494      -1.48130178    
   1.01674199      0.902397990       0.00000000       461.975494      -1.48130178    
  0.905318975       1.01434398       0.00000000       461.975494      -1.48130178    
  0.904204011       1.01322901     -0.303456992       461.975494      -1.48130178    
  0.905318975       1.01434398       0.00000000       417.926239      -1.48264945    
  0.782918990       1.11479497       0.00000000       417.926239      -1.48264945    
  0.780644000       1.11195600     -0.303485006       417.926239      -1.48264945    
  0.904204011       1.01322901     -0.303456992       417.926239      -1.48264945    
  0.780644000       1.11195600     -0.303485006       329.947571      -1.46536028    
  0.645825028       1.19414902     -0.303514004       329.947571      -1.46536028    
  0.646153986       1.19492805     -0.606999993       329.947571      -1.46536028    
  0.782611012       1.11504900     -0.606999993       329.947571      -1.46536028    
  0.780644000       1.11195600     -0.303485006       392.763275      -1.46640754    
  0.782611012       1.11504900     -0.606999993       392.763275      -1.46640754    
  0.905143023       1.01448905     -0.606999993       392.763275      -1.46640754    
  0.904204011       1.01322901     -0.303456992       392.763275      -1.46640754    
  0.780644000       1.11195600     -0.303485006       353.610352      -1.48216593    
  0.782918990       1.11479497       0.00000000       353.610352      -1.48216593    
  0.646345019       1.19482601       0.00000000       353.610352      -1.48216593    
  0.645825028       1.19414902     -0.303514004       353.610352      -1.48216593    
  0.646345019       1.19482601       0.00000000       261.589630      -1.47692513    
  0.504974008       1.26637006       0.00000000       261.589630      -1.47692513    
  0.503772974       1.26314998     -0.303521991       261.589630      -1.47692513    
  0.645825028       1.19414902     -0.303514004       261.589630      -1.47692513    
  0.503772974       1.26314998     -0.303521991       191.958984      -1.46130812    
  0.353130996       1.31116498     -0.303510994       191.958984      -1.46130812    
  0.353300005       1.31237996     -0.606999993       191.958984      -1.46130812    
  0.505183995       1.26630700     -0.606999993       191.958984      -1.46130812    
  0.503772974       1.26314998     -0.303521991       261.784210      -1.46392608    
  0.505183995       1.26630700     -0.606999993       261.784210      -1.46392608    
  0.646153986       1.19492805     -0.606999993       261.784210      -1.46392608    
  0.645825028       1.19414902     -0.303514004       261.784210      -1.46392608    
  0.503772974       1.26314998     -0.303521991       185.773392      -1.47245538    
  0.504974008       1.26637006       0.00000000       185.773392      -1.47245538    
  0.353493989       1.31232095       0.00000000       185.773392      -1.47245538    
  0.353130996       1.31116498     -0.303510994       185.773392      -1.47245538    
  0.353493989       1.31232095       0.00000000       104.773529      -1.46097326    
  0.199064001       1.34539402       0.00000000       104.773529      -1.46097326    
  0.198755994       1.34360003     -0.303496003       104.773529      -1.46097326    
  0.353130996       1.31116498     -0.303510994       104.773529      -1.46097326    
  0.198755994       1.34360003     -0.303496003       20.8747597      -1.31659532    
   4.12769988E-02   1.35817802     -0.303508013       20.8747597      -1.31659532    
   4.12410013E-02   1.36093795     -0.606999993       20.8747597      -1.31659532    
  0.199025005       1.34539795     -0.606999993       20.8747597      -1.31659532    
  0.198755994       1.34360003     -0.303496003       116.256897      -1.45449901    
  0.199025005       1.34539795     -0.606999993       116.256897      -1.45449901    
  0.353300005       1.31237996     -0.606999993       116.256897      -1.45449901    
  0.353130996       1.31116498     -0.303510994       116.256897      -1.45449901    
  0.198755994       1.34360003     -0.303496003       22.3626633      -1.36259687    
  0.199064001       1.34539402       0.00000000       22.3626633      -1.36259687    
   4.17769998E-02   1.36088502       0.00000000       22.3626633      -1.36259687    
   4.12769988E-02   1.35817802     -0.303508013       22.3626633      -1.36259687    
   4.17769998E-02   1.36088502       0.00000000       58.4329453       1.60891509    
 -0.116410002       1.35353506       0.00000000       58.4329453       1.60891509    
 -0.116471998       1.35271096     -0.303496987       58.4329453       1.60891509    
   4.12769988E-02   1.35817802     -0.303508013       58.4329453       1.60891509    
 -0.116471998       1.35271096     -0.303496987       145.419876       1.64286757    
 -0.273027003       1.33229196     -0.303496003       145.419876       1.64286757    
 -0.273876995       1.33647299     -0.606999993       145.419876       1.64286757    
 -0.116722003       1.35350394     -0.606999993       145.419876       1.64286757    
 -0.116471998       1.35271096     -0.303496987       57.0664978       1.61239803    
 -0.116722003       1.35350394     -0.606999993       57.0664978       1.61239803    
   4.12410013E-02   1.36093795     -0.606999993       57.0664978       1.61239803    
   4.12769988E-02   1.35817802     -0.303508013       57.0664978       1.61239803    
 -0.116471998       1.35271096     -0.303496987       142.275620       1.63583791    
 -0.116410002       1.35353506       0.00000000       142.275620       1.63583791    
 -0.274069011       1.33641505       0.00000000       142.275620       1.63583791    
 -0.273027003       1.33229196     -0.303496003       142.275620       1.63583791    
 -0.274069011       1.33641505       0.00000000       221.750824       1.64243865    
 -0.425588995       1.29045200       0.00000000       221.750824       1.64243865    
 -0.425258011       1.28953803     -0.303507000       221.750824       1.64243865    
 -0.273027003       1.33229196     -0.303496003       221.750824       1.64243865    
 -0.425258011       1.28953803     -0.303507000       295.459442       1.65617895    
 -0.572302997       1.23206902     -0.303485990       295.459442       1.65617895    
 -0.573064029       1.23399496     -0.606999993       295.459442       1.65617895    
 -0.425651014       1.29043305     -0.606999993       295.459442       1.65617895    
 -0.425258011       1.28953803     -0.303507000       220.353424       1.65179336    
 -0.425651014       1.29043305     -0.606999993       220.353424       1.65179336    
 -0.273876995       1.33647299     -0.606999993       220.353424       1.65179336    
 -0.273027003       1.33229196     -0.303496003       220.353424       1.65179336    
 -0.425258011       1.28953803     -0.303507000       302.183044       1.64530909    
 -0.425588995       1.29045200       0.00000000       302.183044       1.64530909    
 -0.573195994       1.23392498       0.00000000       302.183044       1.64530909    
 -0.572302997       1.23206902     -0.303485990       302.183044       1.64530909    
 -0.573195994       1.23392498       0.00000000       377.866669       1.64695156    
 -0.712655008       1.15938199       0.00000000       377.866669       1.64695156    
 -0.711889029       1.15749002     -0.303496003       377.866669       1.64695156    
 -0.572302997       1.23206902     -0.303485990       377.866669       1.64695156    
 -0.711889029       1.15749002     -0.303496003       428.403656       1.66090930    
 -0.840825975       1.06629205     -0.303485990       428.403656       1.66090930    
 -0.841368973       1.06682706     -0.606999993       428.403656       1.66090930    
 -0.712980986       1.15920806     -0.606999993       428.403656       1.66090930    
 -0.711889029       1.15749002     -0.303496003       362.654480       1.65931499    
 -0.712980986       1.15920806     -0.606999993       362.654480       1.65931499    
 -0.573064029       1.23399496     -0.606999993       362.654480       1.65931499    
 -0.572302997       1.23206902     -0.303485990       362.654480       1.65931499    
 -0.711889029       1.15749002     -0.303496003       447.490570       1.64807081    
 -0.712655008       1.15938199       0.00000000       447.490570       1.64807081    
 -0.841165006       1.06699395       0.00000000       447.490570       1.64807081    
 -0.840825975       1.06629205     -0.303485990       447.490570       1.64807081    
 -0.841165006       1.06699395       0.00000000       512.754028       1.64904165    
 -0.963320017      0.966744006       0.00000000       512.754028       1.64904165    
 -0.960084975      0.962615013     -0.303470999       512.754028       1.64904165    
 -0.840825975       1.06629205     -0.303485990       512.754028       1.64904165    
 -0.960084975      0.962615013     -0.303470999       544.517761       1.66283917    
  -1.06383705      0.843237996     -0.303481996       544.517761       1.66283917    
  -1.06481802      0.843816996     -0.606999993       544.517761       1.66283917    
 -0.963873982      0.966289997     -0.606999993       544.517761       1.66283917    
 -0.960084975      0.962615013     -0.303470999       490.510895       1.66209567    
 -0.963873982      0.966289997     -0.606999993       490.510895       1.66209567    
 -0.841368973       1.06682706     -0.606999993       490.510895       1.66209567    
 -0.840825975       1.06629205     -0.303485990       490.510895       1.66209567    
 -0.960084975      0.962615013     -0.303470999       572.433228       1.64946747    
 -0.963320017      0.966744006       0.00000000       572.433228       1.64946747    
  -1.06464398      0.844029009       0.00000000       572.433228       1.64946747    
  -1.06383705      0.843237996     -0.303481996       572.433228       1.64946747    
  -1.06464398      0.844029009       0.00000000       624.033325       1.65000784    
  -1.15769398      0.715813994       0.00000000       624.033325       1.65000784    
  -1.15564799      0.714680016     -0.303483993       624.033325       1.65000784    
  -1.06383705      0.843237996     -0.303481996       624.033325       1.65000784    
  -1.15564799      0.714680016     -0.303483993       635.345764       1.66384137    
  -1.23108304      0.575536013     -0.303514004       635.345764       1.66384137    
  -1.23232996      0.576179981     -0.606999993       635.345764       1.66384137    
  -1.15756094      0.716063023     -0.606999993       635.345764       1.66384137    
  -1.15564799      0.714680016     -0.303483993       592.839417       1.66347313    
  -1.15756094      0.716063023     -0.606999993       592.839417       1.66347313    
  -1.06481802      0.843816996     -0.606999993       592.839417       1.66347313    
  -1.06383705      0.843237996     -0.303481996       592.839417       1.66347313    
  -1.15564799      0.714680016     -0.303483993       667.023743       1.65057623    
  -1.15769398      0.715813994       0.00000000       667.023743       1.65057623    
  -1.23224795      0.576331973       0.00000000       667.023743       1.65057623    
  -1.23108304      0.575536013     -0.303514004       667.023743       1.65057623    
  -1.23224795      0.576331973       0.00000000       701.484375       1.65094352    
  -1.28948605      0.428772002       0.00000000       701.484375       1.65094352    
  -1.28842103      0.428404987     -0.303512990       701.484375       1.65094352    
  -1.23108304      0.575536013     -0.303514004       701.484375       1.65094352    
  -1.28842103      0.428404987     -0.303512990       670.686035       1.66674626    
  -1.33082402      0.275959998     -0.303492010       670.686035       1.66674626    
  -1.33550000      0.277083993     -0.606999993       670.686035       1.66674626    