 VARIABLES="X" "Y" "Z" "abs(p) (Pa)" "angle(p) (rad)"
ZONE N=   2720,E =    2069, F=FEPOINT, ET=QUADRILATERAL
 -0.767116010      -1.12776399       0.00000000       1148.14954      -1.57060480    
 -0.769354999      -1.12002099     -0.303523988       1148.14954      -1.57060480    
 -0.896136999      -1.02028203     -0.303463012       1148.14954      -1.57060480    
 -0.894908011      -1.02288902       0.00000000       1148.14954      -1.57060480    
 -0.767116010      -1.12776399       0.00000000       1146.78442      -1.57066429    
 -0.630888999      -1.20308697       0.00000000       1146.78442      -1.57066429    
 -0.635528028      -1.19958198     -0.303541005       1146.78442      -1.57066429    
 -0.769354999      -1.12002099     -0.303523988       1146.78442      -1.57066429    
 -0.635528028      -1.19958198     -0.303541005       1316.57227      -1.56355822    
 -0.495362997      -1.26606500     -0.303519011       1316.57227      -1.56355822    
 -0.499298006      -1.26809204     -0.606999993       1316.57227      -1.56355822    
 -0.640147984      -1.19813800     -0.606998026       1316.57227      -1.56355822    
 -0.635528028      -1.19958198     -0.303541005       1319.16663      -1.56357133    
 -0.640147984      -1.19813800     -0.606998026       1319.16663      -1.56357133    
 -0.777105987      -1.11956596     -0.606999993       1319.16663      -1.56357133    
 -0.769354999      -1.12002099     -0.303523988       1319.16663      -1.56357133    
 -0.635528028      -1.19958198     -0.303541005       1132.16138      -1.57063305    
 -0.630888999      -1.20308697       0.00000000       1132.16138      -1.57063305    
 -0.494486004      -1.26955199       0.00000000       1132.16138      -1.57063305    
 -0.495362997      -1.26606500     -0.303519011       1132.16138      -1.57063305    
 -0.494486004      -1.26955199       0.00000000       1140.13818      -1.57064533    
 -0.346311986      -1.31449997       0.00000000       1140.13818      -1.57064533    
 -0.346753001      -1.31307304     -0.303510010       1140.13818      -1.57064533    
 -0.495362997      -1.26606500     -0.303519011       1140.13818      -1.57064533    
 -0.346753001      -1.31307304     -0.303510010       1316.43335      -1.56350982    
 -0.193608001      -1.34425998     -0.303494990       1316.43335      -1.56350982    
 -0.195028007      -1.34579206     -0.606999993       1316.43335      -1.56350982    
 -0.348751009      -1.31376004     -0.606999993       1316.43335      -1.56350982    
 -0.346753001      -1.31307304     -0.303510010       1315.30859      -1.56354249    
 -0.348751009      -1.31376004     -0.606999993       1315.30859      -1.56354249    
 -0.499298006      -1.26809204     -0.606999993       1315.30859      -1.56354249    
 -0.495362997      -1.26606500     -0.303519011       1315.30859      -1.56354249    
 -0.346753001      -1.31307304     -0.303510010       1160.38110      -1.57049489    
 -0.346311986      -1.31449997       0.00000000       1160.38110      -1.57049489    
 -0.193381995      -1.34595394       0.00000000       1160.38110      -1.57049489    
 -0.193608001      -1.34425998     -0.303494990       1160.38110      -1.57049489    
 -0.193381995      -1.34595394       0.00000000       1189.74146      -1.57047498    
  -3.75179984E-02  -1.36130500       0.00000000       1189.74146      -1.57047498    
  -3.73950005E-02  -1.35827899     -0.303512007       1189.74146      -1.57047498    
 -0.193608001      -1.34425998     -0.303494990       1189.74146      -1.57047498    
  -3.73950005E-02  -1.35827899     -0.303512007       1320.89221      -1.56346428    
  0.119547002      -1.35239303     -0.303498000       1320.89221      -1.56346428    
  0.119135000      -1.35326600     -0.606999993       1320.89221      -1.56346428    
  -3.82840000E-02  -1.36122894     -0.606998980       1320.89221      -1.56346428    
  -3.73950005E-02  -1.35827899     -0.303512007       1315.17944      -1.56347585    
  -3.82840000E-02  -1.36122894     -0.606998980       1315.17944      -1.56347585    
 -0.195028007      -1.34579206     -0.606999993       1315.17944      -1.56347585    
 -0.193608001      -1.34425998     -0.303494990       1315.17944      -1.56347585    
  -3.73950005E-02  -1.35827899     -0.303512007       1190.17297      -1.57040560    
  -3.75179984E-02  -1.36130500       0.00000000       1190.17297      -1.57040560    
  0.119788997      -1.35320199       0.00000000       1190.17297      -1.57040560    
  0.119547002      -1.35239303     -0.303498000       1190.17297      -1.57040560    
  0.119788997      -1.35320199       0.00000000       1179.40393      -1.57048154    
  0.276576012      -1.33565402       0.00000000       1179.40393      -1.57048154    
  0.275435001      -1.33191597     -0.303496003       1179.40393      -1.57048154    
  0.119547002      -1.35239303     -0.303498000       1179.40393      -1.57048154    
  0.275435001      -1.33191597     -0.303496003       1329.38513      -1.56344175    
  0.427076995      -1.28898001     -0.303507000       1329.38513      -1.56344175    
  0.427242011      -1.28995001     -0.606999993       1329.38513      -1.56344175    
  0.275831014      -1.33588004     -0.606999993       1329.38513      -1.56344175    
  0.275435001      -1.33191597     -0.303496003       1327.70776      -1.56345832    
  0.275831014      -1.33588004     -0.606999993       1327.70776      -1.56345832    
  0.119135000      -1.35326600     -0.606999993       1327.70776      -1.56345832    
  0.119547002      -1.35239303     -0.303498000       1327.70776      -1.56345832    
  0.275435001      -1.33191597     -0.303496003       1170.81763      -1.57047558    
  0.276576012      -1.33565402       0.00000000       1170.81763      -1.57047558    
  0.427509993      -1.28986895       0.00000000       1170.81763      -1.57047558    
  0.427076995      -1.28898001     -0.303507000       1170.81763      -1.57047558    
  0.427509993      -1.28986895       0.00000000       1171.61963      -1.57024479    
  0.574636996      -1.23315501       0.00000000       1171.61963      -1.57024479    
  0.573706985      -1.23136795     -0.303485990       1171.61963      -1.57024479    
  0.427076995      -1.28898001     -0.303507000       1171.61963      -1.57024479    
  0.573706985      -1.23136795     -0.303485990       1342.48474      -1.56349456    
  0.712854981      -1.15688002     -0.303496987       1342.48474      -1.56349456    
  0.713809013      -1.15876603     -0.606999993       1342.48474      -1.56349456    
  0.574283004      -1.23334301     -0.606999993       1342.48474      -1.56349456    
  0.573706985      -1.23136795     -0.303485990       1333.23645      -1.56344175    
  0.574283004      -1.23334301     -0.606999993       1333.23645      -1.56344175    
  0.427242011      -1.28995001     -0.606999993       1333.23645      -1.56344175    
  0.427076995      -1.28898001     -0.303507000       1333.23645      -1.56344175    
  0.573706985      -1.23136795     -0.303485990       1172.48621      -1.57016778    
  0.574636996      -1.23315501       0.00000000       1172.48621      -1.57016778    
  0.713741004      -1.15880203       0.00000000       1172.48621      -1.57016778    
  0.712854981      -1.15688002     -0.303496987       1172.48621      -1.57016778    
  0.713741004      -1.15880203       0.00000000       1171.41431      -1.57010305    
  0.841937006      -1.06636095       0.00000000       1171.41431      -1.57010305    
  0.841498017      -1.06573403     -0.303485990       1171.41431      -1.57010305    
  0.712854981      -1.15688002     -0.303496987       1171.41431      -1.57010305    
  0.841498017      -1.06573403     -0.303485990       1358.00745      -1.56362939    
  0.960639000     -0.962104976     -0.303470999       1358.00745      -1.56362939    
  0.964356005     -0.965893984     -0.606999993       1358.00745      -1.56362939    
  0.841796994      -1.06647599     -0.606999993       1358.00745      -1.56362939    
  0.841498017      -1.06573403     -0.303485990       1351.49121      -1.56354713    
  0.841796994      -1.06647599     -0.606999993       1351.49121      -1.56354713    
  0.713809013      -1.15876603     -0.606999993       1351.49121      -1.56354713    
  0.712854981      -1.15688002     -0.303496987       1351.49121      -1.56354713    
  0.841498017      -1.06573403     -0.303485990       1147.07678      -1.57038820    
  0.841937006      -1.06636095       0.00000000       1147.07678      -1.57038820    
  0.963932991     -0.966242015       0.00000000       1147.07678      -1.57038820    
  0.960639000     -0.962104976     -0.303470999       1147.07678      -1.57038820    
  0.963932991     -0.966242015       0.00000000       1145.38000      -1.57048571    
   1.06506598     -0.843514979       0.00000000       1145.38000      -1.57048571    
   1.06428695     -0.842682004     -0.303481996       1145.38000      -1.57048571    
  0.960639000     -0.962104976     -0.303470999       1145.38000      -1.57048571    
   1.06428695     -0.842682004     -0.303481996       1343.82178      -1.56365049    
   1.15591598     -0.714210987     -0.303485006       1343.82178      -1.56365049    
   1.15788805     -0.715448976     -0.606999993       1343.82178      -1.56365049    
   1.06537795     -0.843134999     -0.606999993       1343.82178      -1.56365049    
   1.06428695     -0.842682004     -0.303481996       1365.18237      -1.56370699    
   1.06537795     -0.843134999     -0.606999993       1365.18237      -1.56370699    
  0.964356005     -0.965893984     -0.606999993       1365.18237      -1.56370699    
  0.960639000     -0.962104976     -0.303470999       1365.18237      -1.56370699    
   1.06428695     -0.842682004     -0.303481996       1143.19641      -1.57043409    
   1.06506598     -0.843514979       0.00000000       1143.19641      -1.57043409    
   1.15792501     -0.715381980       0.00000000       1143.19641      -1.57043409    
   1.15591598     -0.714210987     -0.303485006       1143.19641      -1.57043409    
   1.15792501     -0.715381980       0.00000000       1152.47534      -1.57053566    
   1.23237598     -0.576093972       0.00000000       1152.47534      -1.57053566    
   1.23120904     -0.575251997     -0.303514004       1152.47534      -1.57053566    
   1.15591598     -0.714210987     -0.303485006       1152.47534      -1.57053566    
   1.23120904     -0.575251997     -0.303514004       1359.45447      -1.56378984    
   1.28844094     -0.428344995     -0.303512990       1359.45447      -1.56378984    
   1.28952503     -0.428642988     -0.606999993       1359.45447      -1.56378984    
   1.23252702     -0.575810015     -0.606999993       1359.45447      -1.56378984    
   1.23120904     -0.575251997     -0.303514004       1350.87720      -1.56373477    
   1.23252702     -0.575810015     -0.606999993       1350.87720      -1.56373477    
   1.15788805     -0.715448976     -0.606999993       1350.87720      -1.56373477    
   1.15591598     -0.714210987     -0.303485006       1350.87720      -1.56373477    
   1.23120904     -0.575251997     -0.303514004       1144.58020      -1.57046497    
   1.23237598     -0.576093972       0.00000000       1144.58020      -1.57046497    
   1.28947699     -0.428801000       0.00000000       1144.58020      -1.57046497    
   1.28844094     -0.428344995     -0.303512990       1144.58020      -1.57046497    
   1.28947699     -0.428801000       0.00000000       1180.67407      -1.57052279    
   1.33532202     -0.277671993       0.00000000       1180.67407      -1.57052279    
   1.33076501     -0.276203990     -0.303492010       1180.67407      -1.57052279    
   1.28844094     -0.428344995     -0.303512990       1180.67407      -1.57052279    
   1.33076501     -0.276203990     -0.303492010       1339.87122      -1.56368434    
   1.35229194     -0.119709998     -0.303514004       1339.87122      -1.56368434    
   1.35321999     -0.119608998     -0.606999993       1339.87122      -1.56368434    
   1.33549094     -0.277112991     -0.606999993       1339.87122      -1.56368434    
   1.33076501     -0.276203990     -0.303492010       1362.53479      -1.56381035    
   1.33549094     -0.277112991     -0.606999993       1362.53479      -1.56381035    
   1.28952503     -0.428642988     -0.606999993       1362.53479      -1.56381035    
   1.28844094     -0.428344995     -0.303512990       1362.53479      -1.56381035    
   1.33076501     -0.276203990     -0.303492010       1224.59814      -1.57053566    
   1.33532202     -0.277671993       0.00000000       1224.59814      -1.57053566    
   1.35319102     -0.119900003       0.00000000       1224.59814      -1.57053566    
   1.35229194     -0.119709998     -0.303514004       1224.59814      -1.57053566    
   1.35319102     -0.119900003       0.00000000       1238.47827      -1.57057393    
   1.36124396       3.81390005E-02   0.00000000       1238.47827      -1.57057393    
   1.35858905       3.79349999E-02 -0.303501010       1238.47827      -1.57057393    
   1.35229194     -0.119709998     -0.303514004       1238.47827      -1.57057393    
   1.35858905       3.79349999E-02 -0.303501010       1374.93372      -1.56391823    
   1.34464097      0.195331007     -0.303496003       1374.93372      -1.56391823    
   1.34573400      0.195616007     -0.606999993       1374.93372      -1.56391823    
   1.36126804       3.78950015E-02 -0.606999993       1374.93372      -1.56391823    
   1.35858905       3.79349999E-02 -0.303501010       1375.59595      -1.56388175    
   1.36126804       3.78950015E-02 -0.606999993       1375.59595      -1.56388175    
   1.35321999     -0.119608998     -0.606999993       1375.59595      -1.56388175    
   1.35229194     -0.119709998     -0.303514004       1375.59595      -1.56388175    
   1.35858905       3.79349999E-02 -0.303501010       1212.57898      -1.57074702    
   1.36124396       3.81390005E-02   0.00000000       1212.57898      -1.57074702    
   1.34575403      0.195406005       0.00000000       1212.57898      -1.57074702    
   1.34464097      0.195331007     -0.303496003       1212.57898      -1.57074702    
   1.34575403      0.195406005       0.00000000       1217.88440      -1.57086921    
   1.31339800      0.349945009       0.00000000       1217.88440      -1.57086921    
   1.31216300      0.349725991     -0.303487003       1217.88440      -1.57086921    
   1.34464097      0.195331007     -0.303496003       1217.88440      -1.57086921    
   1.31216300      0.349725991     -0.303487003       1399.38318      -1.56407058    
   1.26341999      0.500032008     -0.303494006       1399.38318      -1.56407058    
   1.26736605      0.501691997     -0.606999993       1399.38318      -1.56407058    
   1.31333196      0.350163996     -0.606999993       1399.38318      -1.56407058    
   1.31216300      0.349725991     -0.303487003       1379.18274      -1.56396890    
   1.31333196      0.350163996     -0.606999993       1379.18274      -1.56396890    
   1.34573400      0.195616007     -0.606999993       1379.18274      -1.56396890    
   1.34464097      0.195331007     -0.303496003       1379.18274      -1.56396890    
   1.31216300      0.349725991     -0.303487003       1212.48389      -1.57115722    
   1.31339800      0.349945009       0.00000000       1212.48389      -1.57115722    
   1.26751196      0.501209974       0.00000000       1212.48389      -1.57115722    
   1.26341999      0.500032008     -0.303494006       1212.48389      -1.57115722    
   1.26751196      0.501209974       0.00000000       1239.87219      -1.57124341    
   1.19658697      0.643051028       0.00000000       1239.87219      -1.57124341    
   1.19583094      0.642783999     -0.303505003       1239.87219      -1.57124341    
   1.26341999      0.500032008     -0.303494006       1239.87219      -1.57124341    
   1.19583094      0.642783999     -0.303505003       1382.79565      -1.56404781    
   1.11495602      0.778467000     -0.303483993       1382.79565      -1.56404781    
   1.11731696      0.779847026     -0.606999993       1382.79565      -1.56404781    
   1.19653296      0.643149972     -0.606999993       1382.79565      -1.56404781    
   1.19583094      0.642783999     -0.303505003       1403.18152      -1.56409812    
   1.19653296      0.643149972     -0.606999993       1403.18152      -1.56409812    
   1.26736605      0.501691997     -0.606999993       1403.18152      -1.56409812    
   1.26341999      0.500032008     -0.303494006       1403.18152      -1.56409812    
   1.19583094      0.642783999     -0.303505003       1226.07800      -1.57127082    
   1.19658697      0.643051028       0.00000000       1226.07800      -1.57127082    
   1.11705506      0.780165970       0.00000000       1226.07800      -1.57127082    
   1.11495602      0.778467000     -0.303483993       1226.07800      -1.57127082    
   1.11705506      0.780165970       0.00000000       1210.60120      -1.57128739    
   1.01674199      0.902397990       0.00000000       1210.60120      -1.57128739    
   1.01591504      0.901737988     -0.303478003       1210.60120      -1.57128739    
   1.11495602      0.778467000     -0.303483993       1210.60120      -1.57128739    
   1.01591504      0.901737988     -0.303478003       1401.97510      -1.56414568    
  0.904204011       1.01322901     -0.303456992       1401.97510      -1.56414568    
  0.905143023       1.01448905     -0.606999993       1401.97510      -1.56414568    
   1.01659799      0.902572989     -0.606999993       1401.97510      -1.56414568    
   1.01591504      0.901737988     -0.303478003       1401.89233      -1.56416571    
   1.01659799      0.902572989     -0.606999993       1401.89233      -1.56416571    
   1.11731696      0.779847026     -0.606999993       1401.89233      -1.56416571    
   1.11495602      0.778467000     -0.303483993       1401.89233      -1.56416571    
   1.01591504      0.901737988     -0.303478003       1202.50452      -1.57115459    
   1.01674199      0.902397990       0.00000000       1202.50452      -1.57115459    
  0.905318975       1.01434398       0.00000000       1202.50452      -1.57115459    
  0.904204011       1.01322901     -0.303456992       1202.50452      -1.57115459    
  0.905318975       1.01434398       0.00000000       1171.38208      -1.57130611    
  0.782918990       1.11479497       0.00000000       1171.38208      -1.57130611    
  0.780644000       1.11195600     -0.303485006       1171.38208      -1.57130611    
  0.904204011       1.01322901     -0.303456992       1171.38208      -1.57130611    
  0.780644000       1.11195600     -0.303485006       1400.75806      -1.56414735    
  0.645825028       1.19414902     -0.303514004       1400.75806      -1.56414735    
  0.646153986       1.19492805     -0.606999993       1400.75806      -1.56414735    
  0.782611012       1.11504900     -0.606999993       1400.75806      -1.56414735    
  0.780644000       1.11195600     -0.303485006       1401.12097      -1.56414163    
  0.782611012       1.11504900     -0.606999993       1401.12097      -1.56414163    
  0.905143023       1.01448905     -0.606999993       1401.12097      -1.56414163    
  0.904204011       1.01322901     -0.303456992       1401.12097      -1.56414163    
  0.780644000       1.11195600     -0.303485006       1157.91724      -1.57127154    
  0.782918990       1.11479497       0.00000000       1157.91724      -1.57127154    
  0.646345019       1.19482601       0.00000000       1157.91724      -1.57127154    
  0.645825028       1.19414902     -0.303514004       1157.91724      -1.57127154    
  0.646345019       1.19482601       0.00000000       1180.73792      -1.57121360    
  0.504974008       1.26637006       0.00000000       1180.73792      -1.57121360    
  0.503772974       1.26314998     -0.303521991       1180.73792      -1.57121360    
  0.645825028       1.19414902     -0.303514004       1180.73792      -1.57121360    
  0.503772974       1.26314998     -0.303521991       1408.12976      -1.56424642    
  0.353130996       1.31116498     -0.303510994       1408.12976      -1.56424642    
  0.353300005       1.31237996     -0.606999993       1408.12976      -1.56424642    
  0.505183995       1.26630700     -0.606999993       1408.12976      -1.56424642    
  0.503772974       1.26314998     -0.303521991       1404.25464      -1.56419706    
  0.505183995       1.26630700     -0.606999993       1404.25464      -1.56419706    
  0.646153986       1.19492805     -0.606999993       1404.25464      -1.56419706    
  0.645825028       1.19414902     -0.303514004       1404.25464      -1.56419706    
  0.503772974       1.26314998     -0.303521991       1181.37732      -1.57119358    
  0.504974008       1.26637006       0.00000000       1181.37732      -1.57119358    
  0.353493989       1.31232095       0.00000000       1181.37732      -1.57119358    
  0.353130996       1.31116498     -0.303510994       1181.37732      -1.57119358    
  0.353493989       1.31232095       0.00000000       1191.30530      -1.57103014    
  0.199064001       1.34539402       0.00000000       1191.30530      -1.57103014    
  0.198755994       1.34360003     -0.303496003       1191.30530      -1.57103014    
  0.353130996       1.31116498     -0.303510994       1191.30530      -1.57103014    
  0.198755994       1.34360003     -0.303496003       1429.74036      -1.56433320    
   4.12769988E-02   1.35817802     -0.303508013       1429.74036      -1.56433320    
   4.12410013E-02   1.36093795     -0.606999993       1429.74036      -1.56433320    
  0.199025005       1.34539795     -0.606999993       1429.74036      -1.56433320    
  0.198755994       1.34360003     -0.303496003       1408.25696      -1.56426430    
  0.199025005       1.34539795     -0.606999993       1408.25696      -1.56426430    
  0.353300005       1.31237996     -0.606999993       1408.25696      -1.56426430    
  0.353130996       1.31116498     -0.303510994       1408.25696      -1.56426430    
  0.198755994       1.34360003     -0.303496003       1193.49451      -1.57107639    
  0.199064001       1.34539402       0.00000000       1193.49451      -1.57107639    
   4.17769998E-02   1.36088502       0.00000000       1193.49451      -1.57107639    
   4.12769988E-02   1.35817802     -0.303508013       1193.49451      -1.57107639    
   4.17769998E-02   1.36088502       0.00000000       1216.53113      -1.57099915    
 -0.116410002       1.35353506       0.00000000       1216.53113      -1.57099915    
 -0.116471998       1.35271096     -0.303496987       1216.53113      -1.57099915    
   4.12769988E-02   1.35817802     -0.303508013       1216.53113      -1.57099915    
 -0.116471998       1.35271096     -0.303496987       1442.39575      -1.56433785    
 -0.273027003       1.33229196     -0.303496003       1442.39575      -1.56433785    
 -0.273876995       1.33647299     -0.606999993       1442.39575      -1.56433785    
 -0.116722003       1.35350394     -0.606999993       1442.39575      -1.56433785    
 -0.116471998       1.35271096     -0.303496987       1429.35156      -1.56431198    
 -0.116722003       1.35350394     -0.606999993       1429.35156      -1.56431198    
   4.12410013E-02   1.36093795     -0.606999993       1429.35156      -1.56431198    
   4.12769988E-02   1.35817802     -0.303508013       1429.35156      -1.56431198    
 -0.116471998       1.35271096     -0.303496987       1223.06628      -1.57109714    
 -0.116410002       1.35353506       0.00000000       1223.06628      -1.57109714    
 -0.274069011       1.33641505       0.00000000       1223.06628      -1.57109714    
 -0.273027003       1.33229196     -0.303496003       1223.06628      -1.57109714    
 -0.274069011       1.33641505       0.00000000       1222.47375      -1.57107222    
 -0.425588995       1.29045200       0.00000000       1222.47375      -1.57107222    
 -0.425258011       1.28953803     -0.303507000       1222.47375      -1.57107222    
 -0.273027003       1.33229196     -0.303496003       1222.47375      -1.57107222    
 -0.425258011       1.28953803     -0.303507000       1433.38843      -1.56414568    
 -0.572302997       1.23206902     -0.303485990       1433.38843      -1.56414568    
 -0.573064029       1.23399496     -0.606999993       1433.38843      -1.56414568    
 -0.425651014       1.29043305     -0.606999993       1433.38843      -1.56414568    
 -0.425258011       1.28953803     -0.303507000       1438.41589      -1.56425917    
 -0.425651014       1.29043305     -0.606999993       1438.41589      -1.56425917    
 -0.273876995       1.33647299     -0.606999993       1438.41589      -1.56425917    
 -0.273027003       1.33229196     -0.303496003       1438.41589      -1.56425917    
 -0.425258011       1.28953803     -0.303507000       1216.26208      -1.57081366    
 -0.425588995       1.29045200       0.00000000       1216.26208      -1.57081366    
 -0.573195994       1.23392498       0.00000000       1216.26208      -1.57081366    
 -0.572302997       1.23206902     -0.303485990       1216.26208      -1.57081366    
 -0.573195994       1.23392498       0.00000000       1203.76526      -1.57070017    
 -0.712655008       1.15938199       0.00000000       1203.76526      -1.57070017    
 -0.711889029       1.15749002     -0.303496003       1203.76526      -1.57070017    
 -0.572302997       1.23206902     -0.303485990       1203.76526      -1.57070017    
 -0.711889029       1.15749002     -0.303496003       1418.27551      -1.56393182    
 -0.840825975       1.06629205     -0.303485990       1418.27551      -1.56393182    
 -0.841368973       1.06682706     -0.606999993       1418.27551      -1.56393182    
 -0.712980986       1.15920806     -0.606999993       1418.27551      -1.56393182    
 -0.711889029       1.15749002     -0.303496003       1424.31299      -1.56403542    
 -0.712980986       1.15920806     -0.606999993       1424.31299      -1.56403542    
 -0.573064029       1.23399496     -0.606999993       1424.31299      -1.56403542    
 -0.572302997       1.23206902     -0.303485990       1424.31299      -1.56403542    
 -0.711889029       1.15749002     -0.303496003       1202.53918      -1.57053518    
 -0.712655008       1.15938199       0.00000000       1202.53918      -1.57053518    
 -0.841165006       1.06699395       0.00000000       1202.53918      -1.57053518    
 -0.840825975       1.06629205     -0.303485990       1202.53918      -1.57053518    
 -0.841165006       1.06699395       0.00000000       1188.37830      -1.57066119    
 -0.963320017      0.966744006       0.00000000       1188.37830      -1.57066119    
 -0.960084975      0.962615013     -0.303470999       1188.37830      -1.57066119    
 -0.840825975       1.06629205     -0.303485990       1188.37830      -1.57066119    
 -0.960084975      0.962615013     -0.303470999       1397.68457      -1.56379271    
  -1.06383705      0.843237996     -0.303481996       1397.68457      -1.56379271    
  -1.06481802      0.843816996     -0.606999993       1397.68457      -1.56379271    
 -0.963873982      0.966289997     -0.606999993       1397.68457      -1.56379271    
 -0.960084975      0.962615013     -0.303470999       1407.58008      -1.56384206    
 -0.963873982      0.966289997     -0.606999993       1407.58008      -1.56384206    
 -0.841368973       1.06682706     -0.606999993       1407.58008      -1.56384206    
 -0.840825975       1.06629205     -0.303485990       1407.58008      -1.56384206    
 -0.960084975      0.962615013     -0.303470999       1187.72986      -1.57070458    
 -0.963320017      0.966744006       0.00000000       1187.72986      -1.57070458    
  -1.06464398      0.844029009       0.00000000       1187.72986      -1.57070458    
  -1.06383705      0.843237996     -0.303481996       1187.72986      -1.57070458    
  -1.06464398      0.844029009       0.00000000       1190.68311      -1.57067835    
  -1.15769398      0.715813994       0.00000000       1190.68311      -1.57067835    
  -1.15564799      0.714680016     -0.303483993       1190.68311      -1.57067835    
  -1.06383705      0.843237996     -0.303481996       1190.68311      -1.57067835    
  -1.15564799      0.714680016     -0.303483993       1398.38599      -1.56386960    
  -1.23108304      0.575536013     -0.303514004       1398.38599      -1.56386960    
  -1.23232996      0.576179981     -0.606999993       1398.38599      -1.56386960    
  -1.15756094      0.716063023     -0.606999993       1398.38599      -1.56386960    
  -1.15564799      0.714680016     -0.303483993       1392.68616      -1.56380165    
  -1.15756094      0.716063023     -0.606999993       1392.68616      -1.56380165    
  -1.06481802      0.843816996     -0.606999993       1392.68616      -1.56380165    
  -1.06383705      0.843237996     -0.303481996       1392.68616      -1.56380165    
  -1.15564799      0.714680016     -0.303483993       1203.70813      -1.57074547    
  -1.15769398      0.715813994       0.00000000       1203.70813      -1.57074547    
  -1.23224795      0.576331973       0.00000000       1203.70813      -1.57074547    
  -1.23108304      0.575536013     -0.303514004       1203.70813      -1.57074547    
  -1.23224795      0.576331973       0.00000000       1218.66711      -1.57061827    
  -1.28948605      0.428772002       0.00000000       1218.66711      -1.57061827    
  -1.28842103      0.428404987     -0.303512990       1218.66711      -1.57061827    
  -1.23108304      0.575536013     -0.303514004       1218.66711      -1.57061827    
  -1.28842103      0.428404987     -0.303512990       1364.18127      -1.56373954    
  -1.33082402      0.275959998     -0.303492010       1364.18127      -1.56373954    
  -1.33550000      0.277083993     -0.606999993       1364.18127      -1.56373954    