 VARIABLES="X" "Y" "Z" "abs(p) (Pa)" "angle(p) (rad)"
ZONE N=   2720,E =    2069, F=FEPOINT, ET=QUADRILATERAL
 -0.767116010      -1.12776399       0.00000000       7522.75000       1.57741821    
 -0.769354999      -1.12002099     -0.303523988       7522.75000       1.57741821    
 -0.896136999      -1.02028203     -0.303463012       7522.75000       1.57741821    
 -0.894908011      -1.02288902       0.00000000       7522.75000       1.57741821    
 -0.767116010      -1.12776399       0.00000000       6413.56982       1.57805264    
 -0.630888999      -1.20308697       0.00000000       6413.56982       1.57805264    
 -0.635528028      -1.19958198     -0.303541005       6413.56982       1.57805264    
 -0.769354999      -1.12002099     -0.303523988       6413.56982       1.57805264    
 -0.635528028      -1.19958198     -0.303541005       4196.63330       1.57993329    
 -0.495362997      -1.26606500     -0.303519011       4196.63330       1.57993329    
 -0.499298006      -1.26809204     -0.606999993       4196.63330       1.57993329    
 -0.640147984      -1.19813800     -0.606998026       4196.63330       1.57993329    
 -0.635528028      -1.19958198     -0.303541005       5174.46338       1.57890713    
 -0.640147984      -1.19813800     -0.606998026       5174.46338       1.57890713    
 -0.777105987      -1.11956596     -0.606999993       5174.46338       1.57890713    
 -0.769354999      -1.12002099     -0.303523988       5174.46338       1.57890713    
 -0.635528028      -1.19958198     -0.303541005       5032.87744       1.57926786    
 -0.630888999      -1.20308697       0.00000000       5032.87744       1.57926786    
 -0.494486004      -1.26955199       0.00000000       5032.87744       1.57926786    
 -0.495362997      -1.26606500     -0.303519011       5032.87744       1.57926786    
 -0.494486004      -1.26955199       0.00000000       3845.75293       1.58094144    
 -0.346311986      -1.31449997       0.00000000       3845.75293       1.58094144    
 -0.346753001      -1.31307304     -0.303510010       3845.75293       1.58094144    
 -0.495362997      -1.26606500     -0.303519011       3845.75293       1.58094144    
 -0.346753001      -1.31307304     -0.303510010       2145.19604       1.58506179    
 -0.193608001      -1.34425998     -0.303494990       2145.19604       1.58506179    
 -0.195028007      -1.34579206     -0.606999993       2145.19604       1.58506179    
 -0.348751009      -1.31376004     -0.606999993       2145.19604       1.58506179    
 -0.346753001      -1.31307304     -0.303510010       3200.87500       1.58161211    
 -0.348751009      -1.31376004     -0.606999993       3200.87500       1.58161211    
 -0.499298006      -1.26809204     -0.606999993       3200.87500       1.58161211    
 -0.495362997      -1.26606500     -0.303519011       3200.87500       1.58161211    
 -0.346753001      -1.31307304     -0.303510010       2585.30005       1.58434081    
 -0.346311986      -1.31449997       0.00000000       2585.30005       1.58434081    
 -0.193381995      -1.34595394       0.00000000       2585.30005       1.58434081    
 -0.193608001      -1.34425998     -0.303494990       2585.30005       1.58434081    
 -0.193381995      -1.34595394       0.00000000       1484.90515       1.59178460    
  -3.75179984E-02  -1.36130500       0.00000000       1484.90515       1.59178460    
  -3.73950005E-02  -1.35827899     -0.303512007       1484.90515       1.59178460    
 -0.193608001      -1.34425998     -0.303494990       1484.90515       1.59178460    
  -3.73950005E-02  -1.35827899     -0.303512007       50.4680443      -2.02677608    
  0.119547002      -1.35239303     -0.303498000       50.4680443      -2.02677608    
  0.119135000      -1.35326600     -0.606999993       50.4680443      -2.02677608    
  -3.82840000E-02  -1.36122894     -0.606998980       50.4680443      -2.02677608    
  -3.73950005E-02  -1.35827899     -0.303512007       1038.09314       1.59625161    
  -3.82840000E-02  -1.36122894     -0.606998980       1038.09314       1.59625161    
 -0.195028007      -1.34579206     -0.606999993       1038.09314       1.59625161    
 -0.193608001      -1.34425998     -0.303494990       1038.09314       1.59625161    
  -3.73950005E-02  -1.35827899     -0.303512007       199.193695       1.70628023    
  -3.75179984E-02  -1.36130500       0.00000000       199.193695       1.70628023    
  0.119788997      -1.35320199       0.00000000       199.193695       1.70628023    
  0.119547002      -1.35239303     -0.303498000       199.193695       1.70628023    
  0.119788997      -1.35320199       0.00000000       1149.53040      -1.59044421    
  0.276576012      -1.33565402       0.00000000       1149.53040      -1.59044421    
  0.275435001      -1.33191597     -0.303496003       1149.53040      -1.59044421    
  0.119547002      -1.35239303     -0.303498000       1149.53040      -1.59044421    
  0.275435001      -1.33191597     -0.303496003       2033.28052      -1.57766569    
  0.427076995      -1.28898001     -0.303507000       2033.28052      -1.57766569    
  0.427242011      -1.28995001     -0.606999993       2033.28052      -1.57766569    
  0.275831014      -1.33588004     -0.606999993       2033.28052      -1.57766569    
  0.275435001      -1.33191597     -0.303496003       994.213074      -1.58896840    
  0.275831014      -1.33588004     -0.606999993       994.213074      -1.58896840    
  0.119135000      -1.35326600     -0.606999993       994.213074      -1.58896840    
  0.119547002      -1.35239303     -0.303498000       994.213074      -1.58896840    
  0.275435001      -1.33191597     -0.303496003       2396.78955      -1.57848501    
  0.276576012      -1.33565402       0.00000000       2396.78955      -1.57848501    
  0.427509993      -1.28986895       0.00000000       2396.78955      -1.57848501    
  0.427076995      -1.28898001     -0.303507000       2396.78955      -1.57848501    
  0.427509993      -1.28986895       0.00000000       3610.18774      -1.57474697    
  0.574636996      -1.23315501       0.00000000       3610.18774      -1.57474697    
  0.573706985      -1.23136795     -0.303485990       3610.18774      -1.57474697    
  0.427076995      -1.28898001     -0.303507000       3610.18774      -1.57474697    
  0.573706985      -1.23136795     -0.303485990       4072.20972      -1.57223368    
  0.712854981      -1.15688002     -0.303496987       4072.20972      -1.57223368    
  0.713809013      -1.15876603     -0.606999993       4072.20972      -1.57223368    
  0.574283004      -1.23334301     -0.606999993       4072.20972      -1.57223368    
  0.573706985      -1.23136795     -0.303485990       3076.85352      -1.57397795    
  0.574283004      -1.23334301     -0.606999993       3076.85352      -1.57397795    
  0.427242011      -1.28995001     -0.606999993       3076.85352      -1.57397795    
  0.427076995      -1.28898001     -0.303507000       3076.85352      -1.57397795    
  0.573706985      -1.23136795     -0.303485990       4805.76465      -1.57294536    
  0.574636996      -1.23315501       0.00000000       4805.76465      -1.57294536    
  0.713741004      -1.15880203       0.00000000       4805.76465      -1.57294536    
  0.712854981      -1.15688002     -0.303496987       4805.76465      -1.57294536    
  0.713741004      -1.15880203       0.00000000       5919.69287      -1.57191825    
  0.841937006      -1.06636095       0.00000000       5919.69287      -1.57191825    
  0.841498017      -1.06573403     -0.303485990       5919.69287      -1.57191825    
  0.712854981      -1.15688002     -0.303496987       5919.69287      -1.57191825    
  0.841498017      -1.06573403     -0.303485990       5823.62793      -1.57056141    
  0.960639000     -0.962104976     -0.303470999       5823.62793      -1.57056141    
  0.964356005     -0.965893984     -0.606999993       5823.62793      -1.57056141    
  0.841796994      -1.06647599     -0.606999993       5823.62793      -1.57056141    
  0.841498017      -1.06573403     -0.303485990       4964.60156      -1.57124412    
  0.841796994      -1.06647599     -0.606999993       4964.60156      -1.57124412    
  0.713809013      -1.15876603     -0.606999993       4964.60156      -1.57124412    
  0.712854981      -1.15688002     -0.303496987       4964.60156      -1.57124412    
  0.841498017      -1.06573403     -0.303485990       7025.89795      -1.57123291    
  0.841937006      -1.06636095       0.00000000       7025.89795      -1.57123291    
  0.963932991     -0.966242015       0.00000000       7025.89795      -1.57123291    
  0.960639000     -0.962104976     -0.303470999       7025.89795      -1.57123291    
  0.963932991     -0.966242015       0.00000000       7928.68311      -1.57080197    
   1.06506598     -0.843514979       0.00000000       7928.68311      -1.57080197    
   1.06428695     -0.842682004     -0.303481996       7928.68311      -1.57080197    
  0.960639000     -0.962104976     -0.303470999       7928.68311      -1.57080197    
   1.06428695     -0.842682004     -0.303481996       7414.27197      -1.56978357    
   1.15591598     -0.714210987     -0.303485006       7414.27197      -1.56978357    
   1.15788805     -0.715448976     -0.606999993       7414.27197      -1.56978357    
   1.06537795     -0.843134999     -0.606999993       7414.27197      -1.56978357    
   1.06428695     -0.842682004     -0.303481996       6573.90674      -1.57011819    
   1.06537795     -0.843134999     -0.606999993       6573.90674      -1.57011819    
  0.964356005     -0.965893984     -0.606999993       6573.90674      -1.57011819    
  0.960639000     -0.962104976     -0.303470999       6573.90674      -1.57011819    
   1.06428695     -0.842682004     -0.303481996       8708.76855      -1.57048380    
   1.06506598     -0.843514979       0.00000000       8708.76855      -1.57048380    
   1.15792501     -0.715381980       0.00000000       8708.76855      -1.57048380    
   1.15591598     -0.714210987     -0.303485006       8708.76855      -1.57048380    
   1.15792501     -0.715381980       0.00000000       9414.57129      -1.57024646    
   1.23237598     -0.576093972       0.00000000       9414.57129      -1.57024646    
   1.23120904     -0.575251997     -0.303514004       9414.57129      -1.57024646    
   1.15591598     -0.714210987     -0.303485006       9414.57129      -1.57024646    
   1.23120904     -0.575251997     -0.303514004       8440.07617      -1.56939328    
   1.28844094     -0.428344995     -0.303512990       8440.07617      -1.56939328    
   1.28952503     -0.428642988     -0.606999993       8440.07617      -1.56939328    
   1.23252702     -0.575810015     -0.606999993       8440.07617      -1.56939328    
   1.23120904     -0.575251997     -0.303514004       7978.38672      -1.56955385    
   1.23252702     -0.575810015     -0.606999993       7978.38672      -1.56955385    
   1.15788805     -0.715448976     -0.606999993       7978.38672      -1.56955385    
   1.15591598     -0.714210987     -0.303485006       7978.38672      -1.56955385    
   1.23120904     -0.575251997     -0.303514004       10145.5381      -1.57008064    
   1.23237598     -0.576093972       0.00000000       10145.5381      -1.57008064    
   1.28947699     -0.428801000       0.00000000       10145.5381      -1.57008064    
   1.28844094     -0.428344995     -0.303512990       10145.5381      -1.57008064    
   1.28947699     -0.428801000       0.00000000       10527.0234      -1.56996894    
   1.33532202     -0.277671993       0.00000000       10527.0234      -1.56996894    
   1.33076501     -0.276203990     -0.303492010       10527.0234      -1.56996894    
   1.28844094     -0.428344995     -0.303512990       10527.0234      -1.56996894    
   1.33076501     -0.276203990     -0.303492010       9251.01172      -1.56920207    
   1.35229194     -0.119709998     -0.303514004       9251.01172      -1.56920207    
   1.35321999     -0.119608998     -0.606999993       9251.01172      -1.56920207    
   1.33549094     -0.277112991     -0.606999993       9251.01172      -1.56920207    
   1.33076501     -0.276203990     -0.303492010       8766.02539      -1.56926358    
   1.33549094     -0.277112991     -0.606999993       8766.02539      -1.56926358    
   1.28952503     -0.428642988     -0.606999993       8766.02539      -1.56926358    
   1.28844094     -0.428344995     -0.303512990       8766.02539      -1.56926358    
   1.33076501     -0.276203990     -0.303492010       10622.9541      -1.56989837    
   1.33532202     -0.277671993       0.00000000       10622.9541      -1.56989837    
   1.35319102     -0.119900003       0.00000000       10622.9541      -1.56989837    
   1.35229194     -0.119709998     -0.303514004       10622.9541      -1.56989837    
   1.35319102     -0.119900003       0.00000000       10741.6787      -1.56985521    
   1.36124396       3.81390005E-02   0.00000000       10741.6787      -1.56985521    
   1.35858905       3.79349999E-02 -0.303501010       10741.6787      -1.56985521    
   1.35229194     -0.119709998     -0.303514004       10741.6787      -1.56985521    
   1.35858905       3.79349999E-02 -0.303501010       9129.11230      -1.56911469    
   1.34464097      0.195331007     -0.303496003       9129.11230      -1.56911469    
   1.34573400      0.195616007     -0.606999993       9129.11230      -1.56911469    
   1.36126804       3.78950015E-02 -0.606999993       9129.11230      -1.56911469    
   1.35858905       3.79349999E-02 -0.303501010       9186.48633      -1.56914270    
   1.36126804       3.78950015E-02 -0.606999993       9186.48633      -1.56914270    
   1.35321999     -0.119608998     -0.606999993       9186.48633      -1.56914270    
   1.35229194     -0.119709998     -0.303514004       9186.48633      -1.56914270    
   1.35858905       3.79349999E-02 -0.303501010       10975.8398      -1.56983125    
   1.36124396       3.81390005E-02   0.00000000       10975.8398      -1.56983125    
   1.34575403      0.195406005       0.00000000       10975.8398      -1.56983125    
   1.34464097      0.195331007     -0.303496003       10975.8398      -1.56983125    
   1.34575403      0.195406005       0.00000000       10779.7949      -1.56984580    
   1.31339800      0.349945009       0.00000000       10779.7949      -1.56984580    
   1.31216300      0.349725991     -0.303487003       10779.7949      -1.56984580    
   1.34464097      0.195331007     -0.303496003       10779.7949      -1.56984580    
   1.31216300      0.349725991     -0.303487003       8606.76758      -1.56917012    
   1.26341999      0.500032008     -0.303494006       8606.76758      -1.56917012    
   1.26736605      0.501691997     -0.606999993       8606.76758      -1.56917012    
   1.31333196      0.350163996     -0.606999993       8606.76758      -1.56917012    
   1.31216300      0.349725991     -0.303487003       8964.42578      -1.56912935    
   1.31333196      0.350163996     -0.606999993       8964.42578      -1.56912935    
   1.34573400      0.195616007     -0.606999993       8964.42578      -1.56912935    
   1.34464097      0.195331007     -0.303496003       8964.42578      -1.56912935    
   1.31216300      0.349725991     -0.303487003       10433.3906      -1.56989181    
   1.31339800      0.349945009       0.00000000       10433.3906      -1.56989181    
   1.26751196      0.501209974       0.00000000       10433.3906      -1.56989181    
   1.26341999      0.500032008     -0.303494006       10433.3906      -1.56989181    
   1.26751196      0.501209974       0.00000000       9665.69922      -1.56998849    
   1.19658697      0.643051028       0.00000000       9665.69922      -1.56998849    
   1.19583094      0.642783999     -0.303505003       9665.69922      -1.56998849    
   1.26341999      0.500032008     -0.303494006       9665.69922      -1.56998849    
   1.19583094      0.642783999     -0.303505003       7830.05469      -1.56939065    
   1.11495602      0.778467000     -0.303483993       7830.05469      -1.56939065    
   1.11731696      0.779847026     -0.606999993       7830.05469      -1.56939065    
   1.19653296      0.643149972     -0.606999993       7830.05469      -1.56939065    
   1.19583094      0.642783999     -0.303505003       8189.44873      -1.56925249    
   1.19653296      0.643149972     -0.606999993       8189.44873      -1.56925249    
   1.26736605      0.501691997     -0.606999993       8189.44873      -1.56925249    
   1.26341999      0.500032008     -0.303494006       8189.44873      -1.56925249    
   1.19583094      0.642783999     -0.303505003       8969.99805      -1.57014298    
   1.19658697      0.643051028       0.00000000       8969.99805      -1.57014298    
   1.11705506      0.780165970       0.00000000       8969.99805      -1.57014298    
   1.11495602      0.778467000     -0.303483993       8969.99805      -1.57014298    
   1.11705506      0.780165970       0.00000000       8173.98486      -1.57035744    
   1.01674199      0.902397990       0.00000000       8173.98486      -1.57035744    
   1.01591504      0.901737988     -0.303478003       8173.98486      -1.57035744    
   1.11495602      0.778467000     -0.303483993       8173.98486      -1.57035744    
   1.01591504      0.901737988     -0.303478003       6207.20557      -1.56986904    
  0.904204011       1.01322901     -0.303456992       6207.20557      -1.56986904    
  0.905143023       1.01448905     -0.606999993       6207.20557      -1.56986904    
   1.01659799      0.902572989     -0.606999993       6207.20557      -1.56986904    
   1.01591504      0.901737988     -0.303478003       6948.04199      -1.56956494    
   1.01659799      0.902572989     -0.606999993       6948.04199      -1.56956494    
   1.11731696      0.779847026     -0.606999993       6948.04199      -1.56956494    
   1.11495602      0.778467000     -0.303483993       6948.04199      -1.56956494    
   1.01591504      0.901737988     -0.303478003       7254.50977      -1.57067668    
   1.01674199      0.902397990       0.00000000       7254.50977      -1.57067668    
  0.905318975       1.01434398       0.00000000       7254.50977      -1.57067668    
  0.904204011       1.01322901     -0.303456992       7254.50977      -1.57067668    
  0.905318975       1.01434398       0.00000000       6445.75977      -1.57108486    
  0.782918990       1.11479497       0.00000000       6445.75977      -1.57108486    
  0.780644000       1.11195600     -0.303485006       6445.75977      -1.57108486    
  0.904204011       1.01322901     -0.303456992       6445.75977      -1.57108486    
  0.780644000       1.11195600     -0.303485006       4473.47314      -1.57096732    
  0.645825028       1.19414902     -0.303514004       4473.47314      -1.57096732    
  0.646153986       1.19492805     -0.606999993       4473.47314      -1.57096732    
  0.782611012       1.11504900     -0.606999993       4473.47314      -1.57096732    
  0.780644000       1.11195600     -0.303485006       5369.72363      -1.57030070    
  0.782611012       1.11504900     -0.606999993       5369.72363      -1.57030070    
  0.905143023       1.01448905     -0.606999993       5369.72363      -1.57030070    
  0.904204011       1.01322901     -0.303456992       5369.72363      -1.57030070    
  0.780644000       1.11195600     -0.303485006       5393.10791      -1.57174301    
  0.782918990       1.11479497       0.00000000       5393.10791      -1.57174301    
  0.646345019       1.19482601       0.00000000       5393.10791      -1.57174301    
  0.645825028       1.19414902     -0.303514004       5393.10791      -1.57174301    
  0.646345019       1.19482601       0.00000000       4013.96875      -1.57306349    
  0.504974008       1.26637006       0.00000000       4013.96875      -1.57306349    
  0.503772974       1.26314998     -0.303521991       4013.96875      -1.57306349    
  0.645825028       1.19414902     -0.303514004       4013.96875      -1.57306349    
  0.503772974       1.26314998     -0.303521991       2514.99194      -1.57411456    
  0.353130996       1.31116498     -0.303510994       2514.99194      -1.57411456    
  0.353300005       1.31237996     -0.606999993       2514.99194      -1.57411456    
  0.505183995       1.26630700     -0.606999993       2514.99194      -1.57411456    
  0.503772974       1.26314998     -0.303521991       3504.59131      -1.57207823    
  0.505183995       1.26630700     -0.606999993       3504.59131      -1.57207823    
  0.646153986       1.19492805     -0.606999993       3504.59131      -1.57207823    
  0.645825028       1.19414902     -0.303514004       3504.59131      -1.57207823    
  0.503772974       1.26314998     -0.303521991       2801.63525      -1.57538450    
  0.504974008       1.26637006       0.00000000       2801.63525      -1.57538450    
  0.353493989       1.31232095       0.00000000       2801.63525      -1.57538450    
  0.353130996       1.31116498     -0.303510994       2801.63525      -1.57538450    
  0.353493989       1.31232095       0.00000000       1508.12854      -1.58198774    
  0.199064001       1.34539402       0.00000000       1508.12854      -1.58198774    
  0.198755994       1.34360003     -0.303496003       1508.12854      -1.58198774    
  0.353130996       1.31116498     -0.303510994       1508.12854      -1.58198774    
  0.198755994       1.34360003     -0.303496003       157.219940      -1.67977881    
   4.12769988E-02   1.35817802     -0.303508013       157.219940      -1.67977881    
   4.12410013E-02   1.36093795     -0.606999993       157.219940      -1.67977881    
  0.199025005       1.34539795     -0.606999993       157.219940      -1.67977881    
  0.198755994       1.34360003     -0.303496003       1443.51257      -1.57948077    
  0.199025005       1.34539795     -0.606999993       1443.51257      -1.57948077    
  0.353300005       1.31237996     -0.606999993       1443.51257      -1.57948077    
  0.353130996       1.31116498     -0.303510994       1443.51257      -1.57948077    
  0.198755994       1.34360003     -0.303496003       192.214050      -1.68031490    
  0.199064001       1.34539402       0.00000000       192.214050      -1.68031490    
   4.17769998E-02   1.36088502       0.00000000       192.214050      -1.68031490    
   4.12769988E-02   1.35817802     -0.303508013       192.214050      -1.68031490    
   4.17769998E-02   1.36088502       0.00000000       1090.56067       1.59391809    
 -0.116410002       1.35353506       0.00000000       1090.56067       1.59391809    
 -0.116471998       1.35271096     -0.303496987       1090.56067       1.59391809    
   4.12769988E-02   1.35817802     -0.303508013       1090.56067       1.59391809    
 -0.116471998       1.35271096     -0.303496987       2126.28638       1.58300805    
 -0.273027003       1.33229196     -0.303496003       2126.28638       1.58300805    
 -0.273876995       1.33647299     -0.606999993       2126.28638       1.58300805    
 -0.116722003       1.35350394     -0.606999993       2126.28638       1.58300805    
 -0.116471998       1.35271096     -0.303496987       939.149841       1.59364700    
 -0.116722003       1.35350394     -0.606999993       939.149841       1.59364700    
   4.12410013E-02   1.36093795     -0.606999993       939.149841       1.59364700    
   4.12769988E-02   1.35817802     -0.303508013       939.149841       1.59364700    
 -0.116471998       1.35271096     -0.303496987       2431.64062       1.58296359    
 -0.116410002       1.35353506       0.00000000       2431.64062       1.58296359    
 -0.274069011       1.33641505       0.00000000       2431.64062       1.58296359    
 -0.273027003       1.33229196     -0.303496003       2431.64062       1.58296359    
 -0.274069011       1.33641505       0.00000000       3696.85938       1.57987964    
 -0.425588995       1.29045200       0.00000000       3696.85938       1.57987964    
 -0.425258011       1.28953803     -0.303507000       3696.85938       1.57987964    
 -0.273027003       1.33229196     -0.303496003       3696.85938       1.57987964    
 -0.425258011       1.28953803     -0.303507000       4242.82568       1.57887602    
 -0.572302997       1.23206902     -0.303485990       4242.82568       1.57887602    
 -0.573064029       1.23399496     -0.606999993       4242.82568       1.57887602    
 -0.425651014       1.29043305     -0.606999993       4242.82568       1.57887602    
 -0.425258011       1.28953803     -0.303507000       3182.70142       1.58025849    
 -0.425651014       1.29043305     -0.606999993       3182.70142       1.58025849    
 -0.273876995       1.33647299     -0.606999993       3182.70142       1.58025849    
 -0.273027003       1.33229196     -0.303496003       3182.70142       1.58025849    
 -0.425258011       1.28953803     -0.303507000       4961.29736       1.57833731    
 -0.425588995       1.29045200       0.00000000       4961.29736       1.57833731    
 -0.573195994       1.23392498       0.00000000       4961.29736       1.57833731    
 -0.572302997       1.23206902     -0.303485990       4961.29736       1.57833731    
 -0.573195994       1.23392498       0.00000000       6157.94531       1.57746542    
 -0.712655008       1.15938199       0.00000000       6157.94531       1.57746542    
 -0.711889029       1.15749002     -0.303496003       6157.94531       1.57746542    
 -0.572302997       1.23206902     -0.303485990       6157.94531       1.57746542    
 -0.711889029       1.15749002     -0.303496003       6132.92871       1.57763076    
 -0.840825975       1.06629205     -0.303485990       6132.92871       1.57763076    
 -0.841368973       1.06682706     -0.606999993       6132.92871       1.57763076    
 -0.712980986       1.15920806     -0.606999993       6132.92871       1.57763076    
 -0.711889029       1.15749002     -0.303496003       5200.81592       1.57814503    
 -0.712980986       1.15920806     -0.606999993       5200.81592       1.57814503    
 -0.573064029       1.23399496     -0.606999993       5200.81592       1.57814503    
 -0.572302997       1.23206902     -0.303485990       5200.81592       1.57814503    
 -0.711889029       1.15749002     -0.303496003       7253.77588       1.57692611    
 -0.712655008       1.15938199       0.00000000       7253.77588       1.57692611    
 -0.841165006       1.06699395       0.00000000       7253.77588       1.57692611    
 -0.840825975       1.06629205     -0.303485990       7253.77588       1.57692611    
 -0.841165006       1.06699395       0.00000000       8298.20020       1.57657361    
 -0.963320017      0.966744006       0.00000000       8298.20020       1.57657361    
 -0.960084975      0.962615013     -0.303470999       8298.20020       1.57657361    
 -0.840825975       1.06629205     -0.303485990       8298.20020       1.57657361    
 -0.960084975      0.962615013     -0.303470999       7790.20459       1.57704103    
  -1.06383705      0.843237996     -0.303481996       7790.20459       1.57704103    
  -1.06481802      0.843816996     -0.606999993       7790.20459       1.57704103    
 -0.963873982      0.966289997     -0.606999993       7790.20459       1.57704103    
 -0.960084975      0.962615013     -0.303470999       7015.87695       1.57727873    
 -0.963873982      0.966289997     -0.606999993       7015.87695       1.57727873    
 -0.841368973       1.06682706     -0.606999993       7015.87695       1.57727873    
 -0.840825975       1.06629205     -0.303485990       7015.87695       1.57727873    
 -0.960084975      0.962615013     -0.303470999       9253.26953       1.57632160    
 -0.963320017      0.966744006       0.00000000       9253.26953       1.57632160    
  -1.06464398      0.844029009       0.00000000       9253.26953       1.57632160    
  -1.06383705      0.843237996     -0.303481996       9253.26953       1.57632160    
  -1.06464398      0.844029009       0.00000000       10089.6426       1.57615459    
  -1.15769398      0.715813994       0.00000000       10089.6426       1.57615459    
  -1.15564799      0.714680016     -0.303483993       10089.6426       1.57615459    
  -1.06383705      0.843237996     -0.303481996       10089.6426       1.57615459    
  -1.15564799      0.714680016     -0.303483993       9099.87500       1.57674146    
  -1.23108304      0.575536013     -0.303514004       9099.87500       1.57674146    
  -1.23232996      0.576179981     -0.606999993       9099.87500       1.57674146    
  -1.15756094      0.716063023     -0.606999993       9099.87500       1.57674146    
  -1.15564799      0.714680016     -0.303483993       8490.18848       1.57686961    
  -1.15756094      0.716063023     -0.606999993       8490.18848       1.57686961    
  -1.06481802      0.843816996     -0.606999993       8490.18848       1.57686961    
  -1.06383705      0.843237996     -0.303481996       8490.18848       1.57686961    
  -1.15564799      0.714680016     -0.303483993       10851.0293       1.57605600    
  -1.15769398      0.715813994       0.00000000       10851.0293       1.57605600    
  -1.23224795      0.576331973       0.00000000       10851.0293       1.57605600    
  -1.23108304      0.575536013     -0.303514004       10851.0293       1.57605600    
  -1.23224795      0.576331973       0.00000000       11446.4404       1.57598364    
  -1.28948605      0.428772002       0.00000000       11446.4404       1.57598364    
  -1.28842103      0.428404987     -0.303512990       11446.4404       1.57598364    
  -1.23108304      0.575536013     -0.303514004       11446.4404       1.57598364    
  -1.28842103      0.428404987     -0.303512990       9656.93164       1.57674885    
  -1.33082402      0.275959998     -0.303492010       9656.93164       1.57674885    
  -1.33550000      0.277083993     -0.606999993       9656.93164       1.57674885    