 VARIABLES="X" "Y" "Z" "abs(p) (Pa)" "angle(p) (rad)"
ZONE N=   2720,E =    2069, F=FEPOINT, ET=QUADRILATERAL
 -0.767116010      -1.12776399       0.00000000       1363.42175      -1.53790259    
 -0.769354999      -1.12002099     -0.303523988       1363.42175      -1.53790259    
 -0.896136999      -1.02028203     -0.303463012       1363.42175      -1.53790259    
 -0.894908011      -1.02288902       0.00000000       1363.42175      -1.53790259    
 -0.767116010      -1.12776399       0.00000000       1361.39172      -1.53785634    
 -0.630888999      -1.20308697       0.00000000       1361.39172      -1.53785634    
 -0.635528028      -1.19958198     -0.303541005       1361.39172      -1.53785634    
 -0.769354999      -1.12002099     -0.303523988       1361.39172      -1.53785634    
 -0.635528028      -1.19958198     -0.303541005       1156.19690      -1.53784239    
 -0.495362997      -1.26606500     -0.303519011       1156.19690      -1.53784239    
 -0.499298006      -1.26809204     -0.606999993       1156.19690      -1.53784239    
 -0.640147984      -1.19813800     -0.606998026       1156.19690      -1.53784239    
 -0.635528028      -1.19958198     -0.303541005       1156.86414      -1.53783798    
 -0.640147984      -1.19813800     -0.606998026       1156.86414      -1.53783798    
 -0.777105987      -1.11956596     -0.606999993       1156.86414      -1.53783798    
 -0.769354999      -1.12002099     -0.303523988       1156.86414      -1.53783798    
 -0.635528028      -1.19958198     -0.303541005       1341.69202      -1.53739882    
 -0.630888999      -1.20308697       0.00000000       1341.69202      -1.53739882    
 -0.494486004      -1.26955199       0.00000000       1341.69202      -1.53739882    
 -0.495362997      -1.26606500     -0.303519011       1341.69202      -1.53739882    
 -0.494486004      -1.26955199       0.00000000       1343.25134      -1.53739262    
 -0.346311986      -1.31449997       0.00000000       1343.25134      -1.53739262    
 -0.346753001      -1.31307304     -0.303510010       1343.25134      -1.53739262    
 -0.495362997      -1.26606500     -0.303519011       1343.25134      -1.53739262    
 -0.346753001      -1.31307304     -0.303510010       1156.83960      -1.53790545    
 -0.193608001      -1.34425998     -0.303494990       1156.83960      -1.53790545    
 -0.195028007      -1.34579206     -0.606999993       1156.83960      -1.53790545    
 -0.348751009      -1.31376004     -0.606999993       1156.83960      -1.53790545    
 -0.346753001      -1.31307304     -0.303510010       1156.27551      -1.53786290    
 -0.348751009      -1.31376004     -0.606999993       1156.27551      -1.53786290    
 -0.499298006      -1.26809204     -0.606999993       1156.27551      -1.53786290    
 -0.495362997      -1.26606500     -0.303519011       1156.27551      -1.53786290    
 -0.346753001      -1.31307304     -0.303510010       1346.06042      -1.53743267    
 -0.346311986      -1.31449997       0.00000000       1346.06042      -1.53743267    
 -0.193381995      -1.34595394       0.00000000       1346.06042      -1.53743267    
 -0.193608001      -1.34425998     -0.303494990       1346.06042      -1.53743267    
 -0.193381995      -1.34595394       0.00000000       1364.58862      -1.53789306    
  -3.75179984E-02  -1.36130500       0.00000000       1364.58862      -1.53789306    
  -3.73950005E-02  -1.35827899     -0.303512007       1364.58862      -1.53789306    
 -0.193608001      -1.34425998     -0.303494990       1364.58862      -1.53789306    
  -3.73950005E-02  -1.35827899     -0.303512007       1160.09241      -1.53807652    
  0.119547002      -1.35239303     -0.303498000       1160.09241      -1.53807652    
  0.119135000      -1.35326600     -0.606999993       1160.09241      -1.53807652    
  -3.82840000E-02  -1.36122894     -0.606998980       1160.09241      -1.53807652    
  -3.73950005E-02  -1.35827899     -0.303512007       1155.95435      -1.53791523    
  -3.82840000E-02  -1.36122894     -0.606998980       1155.95435      -1.53791523    
 -0.195028007      -1.34579206     -0.606999993       1155.95435      -1.53791523    
 -0.193608001      -1.34425998     -0.303494990       1155.95435      -1.53791523    
  -3.73950005E-02  -1.35827899     -0.303512007       1360.78638      -1.53793967    
  -3.75179984E-02  -1.36130500       0.00000000       1360.78638      -1.53793967    
  0.119788997      -1.35320199       0.00000000       1360.78638      -1.53793967    
  0.119547002      -1.35239303     -0.303498000       1360.78638      -1.53793967    
  0.119788997      -1.35320199       0.00000000       1357.36682      -1.53795028    
  0.276576012      -1.33565402       0.00000000       1357.36682      -1.53795028    
  0.275435001      -1.33191597     -0.303496003       1357.36682      -1.53795028    
  0.119547002      -1.35239303     -0.303498000       1357.36682      -1.53795028    
  0.275435001      -1.33191597     -0.303496003       1166.65210      -1.53836155    
  0.427076995      -1.28898001     -0.303507000       1166.65210      -1.53836155    
  0.427242011      -1.28995001     -0.606999993       1166.65210      -1.53836155    
  0.275831014      -1.33588004     -0.606999993       1166.65210      -1.53836155    
  0.275435001      -1.33191597     -0.303496003       1165.61890      -1.53828537    
  0.275831014      -1.33588004     -0.606999993       1165.61890      -1.53828537    
  0.119135000      -1.35326600     -0.606999993       1165.61890      -1.53828537    
  0.119547002      -1.35239303     -0.303498000       1165.61890      -1.53828537    
  0.275435001      -1.33191597     -0.303496003       1355.31006      -1.53801739    
  0.276576012      -1.33565402       0.00000000       1355.31006      -1.53801739    
  0.427509993      -1.28986895       0.00000000       1355.31006      -1.53801739    
  0.427076995      -1.28898001     -0.303507000       1355.31006      -1.53801739    
  0.427509993      -1.28986895       0.00000000       1353.37061      -1.53816557    
  0.574636996      -1.23315501       0.00000000       1353.37061      -1.53816557    
  0.573706985      -1.23136795     -0.303485990       1353.37061      -1.53816557    
  0.427076995      -1.28898001     -0.303507000       1353.37061      -1.53816557    
  0.573706985      -1.23136795     -0.303485990       1175.36755      -1.53864729    
  0.712854981      -1.15688002     -0.303496987       1175.36755      -1.53864729    
  0.713809013      -1.15876603     -0.606999993       1175.36755      -1.53864729    
  0.574283004      -1.23334301     -0.606999993       1175.36755      -1.53864729    
  0.573706985      -1.23136795     -0.303485990       1168.69653      -1.53845537    
  0.574283004      -1.23334301     -0.606999993       1168.69653      -1.53845537    
  0.427242011      -1.28995001     -0.606999993       1168.69653      -1.53845537    
  0.427076995      -1.28898001     -0.303507000       1168.69653      -1.53845537    
  0.573706985      -1.23136795     -0.303485990       1358.00220      -1.53835762    
  0.574636996      -1.23315501       0.00000000       1358.00220      -1.53835762    
  0.713741004      -1.15880203       0.00000000       1358.00220      -1.53835762    
  0.712854981      -1.15688002     -0.303496987       1358.00220      -1.53835762    
  0.713741004      -1.15880203       0.00000000       1361.62305      -1.53847539    
  0.841937006      -1.06636095       0.00000000       1361.62305      -1.53847539    
  0.841498017      -1.06573403     -0.303485990       1361.62305      -1.53847539    
  0.712854981      -1.15688002     -0.303496987       1361.62305      -1.53847539    
  0.841498017      -1.06573403     -0.303485990       1187.14697      -1.53891790    
  0.960639000     -0.962104976     -0.303470999       1187.14697      -1.53891790    
  0.964356005     -0.965893984     -0.606999993       1187.14697      -1.53891790    
  0.841796994      -1.06647599     -0.606999993       1187.14697      -1.53891790    
  0.841498017      -1.06573403     -0.303485990       1181.45398      -1.53880095    
  0.841796994      -1.06647599     -0.606999993       1181.45398      -1.53880095    
  0.713809013      -1.15876603     -0.606999993       1181.45398      -1.53880095    
  0.712854981      -1.15688002     -0.303496987       1181.45398      -1.53880095    
  0.841498017      -1.06573403     -0.303485990       1359.99402      -1.53826511    
  0.841937006      -1.06636095       0.00000000       1359.99402      -1.53826511    
  0.963932991     -0.966242015       0.00000000       1359.99402      -1.53826511    
  0.960639000     -0.962104976     -0.303470999       1359.99402      -1.53826511    
  0.963932991     -0.966242015       0.00000000       1367.42847      -1.53837287    
   1.06506598     -0.843514979       0.00000000       1367.42847      -1.53837287    
   1.06428695     -0.842682004     -0.303481996       1367.42847      -1.53837287    
  0.960639000     -0.962104976     -0.303470999       1367.42847      -1.53837287    
   1.06428695     -0.842682004     -0.303481996       1176.51379      -1.53855026    
   1.15591598     -0.714210987     -0.303485006       1176.51379      -1.53855026    
   1.15788805     -0.715448976     -0.606999993       1176.51379      -1.53855026    
   1.06537795     -0.843134999     -0.606999993       1176.51379      -1.53855026    
   1.06428695     -0.842682004     -0.303481996       1192.93176      -1.53903294    
   1.06537795     -0.843134999     -0.606999993       1192.93176      -1.53903294    
  0.964356005     -0.965893984     -0.606999993       1192.93176      -1.53903294    
  0.960639000     -0.962104976     -0.303470999       1192.93176      -1.53903294    
   1.06428695     -0.842682004     -0.303481996       1367.32166      -1.53849649    
   1.06506598     -0.843514979       0.00000000       1367.32166      -1.53849649    
   1.15792501     -0.715381980       0.00000000       1367.32166      -1.53849649    
   1.15591598     -0.714210987     -0.303485006       1367.32166      -1.53849649    
   1.15792501     -0.715381980       0.00000000       1379.40125      -1.53859341    
   1.23237598     -0.576093972       0.00000000       1379.40125      -1.53859341    
   1.23120904     -0.575251997     -0.303514004       1379.40125      -1.53859341    
   1.15591598     -0.714210987     -0.303485006       1379.40125      -1.53859341    
   1.23120904     -0.575251997     -0.303514004       1190.13477      -1.53877378    
   1.28844094     -0.428344995     -0.303512990       1190.13477      -1.53877378    
   1.28952503     -0.428642988     -0.606999993       1190.13477      -1.53877378    
   1.23252702     -0.575810015     -0.606999993       1190.13477      -1.53877378    
   1.23120904     -0.575251997     -0.303514004       1183.49268      -1.53866589    
   1.23252702     -0.575810015     -0.606999993       1183.49268      -1.53866589    
   1.15788805     -0.715448976     -0.606999993       1183.49268      -1.53866589    
   1.15591598     -0.714210987     -0.303485006       1183.49268      -1.53866589    
   1.23120904     -0.575251997     -0.303514004       1366.01135      -1.53809810    
   1.23237598     -0.576093972       0.00000000       1366.01135      -1.53809810    
   1.28947699     -0.428801000       0.00000000       1366.01135      -1.53809810    
   1.28844094     -0.428344995     -0.303512990       1366.01135      -1.53809810    
   1.28947699     -0.428801000       0.00000000       1391.39050      -1.53851998    
   1.33532202     -0.277671993       0.00000000       1391.39050      -1.53851998    
   1.33076501     -0.276203990     -0.303492010       1391.39050      -1.53851998    
   1.28844094     -0.428344995     -0.303512990       1391.39050      -1.53851998    
   1.33076501     -0.276203990     -0.303492010       1175.21021      -1.53825331    
   1.35229194     -0.119709998     -0.303514004       1175.21021      -1.53825331    
   1.35321999     -0.119608998     -0.606999993       1175.21021      -1.53825331    
   1.33549094     -0.277112991     -0.606999993       1175.21021      -1.53825331    
   1.33076501     -0.276203990     -0.303492010       1192.50781      -1.53877485    
   1.33549094     -0.277112991     -0.606999993       1192.50781      -1.53877485    
   1.28952503     -0.428642988     -0.606999993       1192.50781      -1.53877485    
   1.28844094     -0.428344995     -0.303512990       1192.50781      -1.53877485    
   1.33076501     -0.276203990     -0.303492010       1420.36755      -1.53913617    
   1.33532202     -0.277671993       0.00000000       1420.36755      -1.53913617    
   1.35319102     -0.119900003       0.00000000       1420.36755      -1.53913617    
   1.35229194     -0.119709998     -0.303514004       1420.36755      -1.53913617    
   1.35319102     -0.119900003       0.00000000       1426.55408      -1.53921068    
   1.36124396       3.81390005E-02   0.00000000       1426.55408      -1.53921068    
   1.35858905       3.79349999E-02 -0.303501010       1426.55408      -1.53921068    
   1.35229194     -0.119709998     -0.303514004       1426.55408      -1.53921068    
   1.35858905       3.79349999E-02 -0.303501010       1205.64343      -1.53892231    
   1.34464097      0.195331007     -0.303496003       1205.64343      -1.53892231    
   1.34573400      0.195616007     -0.606999993       1205.64343      -1.53892231    
   1.36126804       3.78950015E-02 -0.606999993       1205.64343      -1.53892231    
   1.35858905       3.79349999E-02 -0.303501010       1204.49377      -1.53895795    
   1.36126804       3.78950015E-02 -0.606999993       1204.49377      -1.53895795    
   1.35321999     -0.119608998     -0.606999993       1204.49377      -1.53895795    
   1.35229194     -0.119709998     -0.303514004       1204.49377      -1.53895795    
   1.35858905       3.79349999E-02 -0.303501010       1409.67542      -1.53876019    
   1.36124396       3.81390005E-02   0.00000000       1409.67542      -1.53876019    
   1.34575403      0.195406005       0.00000000       1409.67542      -1.53876019    
   1.34464097      0.195331007     -0.303496003       1409.67542      -1.53876019    
   1.34575403      0.195406005       0.00000000       1416.12830      -1.53882754    
   1.31339800      0.349945009       0.00000000       1416.12830      -1.53882754    
   1.31216300      0.349725991     -0.303487003       1416.12830      -1.53882754    
   1.34464097      0.195331007     -0.303496003       1416.12830      -1.53882754    
   1.31216300      0.349725991     -0.303487003       1226.60999      -1.53935897    
   1.26341999      0.500032008     -0.303494006       1226.60999      -1.53935897    
   1.26736605      0.501691997     -0.606999993       1226.60999      -1.53935897    
   1.31333196      0.350163996     -0.606999993       1226.60999      -1.53935897    
   1.31216300      0.349725991     -0.303487003       1209.75049      -1.53897393    
   1.31333196      0.350163996     -0.606999993       1209.75049      -1.53897393    
   1.34573400      0.195616007     -0.606999993       1209.75049      -1.53897393    
   1.34464097      0.195331007     -0.303496003       1209.75049      -1.53897393    
   1.31216300      0.349725991     -0.303487003       1424.41223      -1.53887463    
   1.31339800      0.349945009       0.00000000       1424.41223      -1.53887463    
   1.26751196      0.501209974       0.00000000       1424.41223      -1.53887463    
   1.26341999      0.500032008     -0.303494006       1424.41223      -1.53887463    
   1.26751196      0.501209974       0.00000000       1450.16895      -1.53941643    
   1.19658697      0.643051028       0.00000000       1450.16895      -1.53941643    
   1.19583094      0.642783999     -0.303505003       1450.16895      -1.53941643    
   1.26341999      0.500032008     -0.303494006       1450.16895      -1.53941643    
   1.19583094      0.642783999     -0.303505003       1213.32837      -1.53900886    
   1.11495602      0.778467000     -0.303483993       1213.32837      -1.53900886    
   1.11731696      0.779847026     -0.606999993       1213.32837      -1.53900886    
   1.19653296      0.643149972     -0.606999993       1213.32837      -1.53900886    
   1.19583094      0.642783999     -0.303505003       1229.35913      -1.53941298    
   1.19653296      0.643149972     -0.606999993       1229.35913      -1.53941298    
   1.26736605      0.501691997     -0.606999993       1229.35913      -1.53941298    
   1.26341999      0.500032008     -0.303494006       1229.35913      -1.53941298    
   1.19583094      0.642783999     -0.303505003       1444.41187      -1.53945339    
   1.19658697      0.643051028       0.00000000       1444.41187      -1.53945339    
   1.11705506      0.780165970       0.00000000       1444.41187      -1.53945339    
   1.11495602      0.778467000     -0.303483993       1444.41187      -1.53945339    
   1.11705506      0.780165970       0.00000000       1438.86829      -1.53947282    
   1.01674199      0.902397990       0.00000000       1438.86829      -1.53947282    
   1.01591504      0.901737988     -0.303478003       1438.86829      -1.53947282    
   1.11495602      0.778467000     -0.303483993       1438.86829      -1.53947282    
   1.01591504      0.901737988     -0.303478003       1227.21936      -1.53942931    
  0.904204011       1.01322901     -0.303456992       1227.21936      -1.53942931    
  0.905143023       1.01448905     -0.606999993       1227.21936      -1.53942931    
   1.01659799      0.902572989     -0.606999993       1227.21936      -1.53942931    
   1.01591504      0.901737988     -0.303478003       1228.20837      -1.53941143    
   1.01659799      0.902572989     -0.606999993       1228.20837      -1.53941143    
   1.11731696      0.779847026     -0.606999993       1228.20837      -1.53941143    
   1.11495602      0.778467000     -0.303483993       1228.20837      -1.53941143    
   1.01591504      0.901737988     -0.303478003       1432.74988      -1.53948903    
   1.01674199      0.902397990       0.00000000       1432.74988      -1.53948903    
  0.905318975       1.01434398       0.00000000       1432.74988      -1.53948903    
  0.904204011       1.01322901     -0.303456992       1432.74988      -1.53948903    
  0.905318975       1.01434398       0.00000000       1416.16174      -1.53908372    
  0.782918990       1.11479497       0.00000000       1416.16174      -1.53908372    
  0.780644000       1.11195600     -0.303485006       1416.16174      -1.53908372    
  0.904204011       1.01322901     -0.303456992       1416.16174      -1.53908372    
  0.780644000       1.11195600     -0.303485006       1226.07556      -1.53945708    
  0.645825028       1.19414902     -0.303514004       1226.07556      -1.53945708    
  0.646153986       1.19492805     -0.606999993       1226.07556      -1.53945708    
  0.782611012       1.11504900     -0.606999993       1226.07556      -1.53945708    
  0.780644000       1.11195600     -0.303485006       1226.45496      -1.53944349    
  0.782611012       1.11504900     -0.606999993       1226.45496      -1.53944349    
  0.905143023       1.01448905     -0.606999993       1226.45496      -1.53944349    
  0.904204011       1.01322901     -0.303456992       1226.45496      -1.53944349    
  0.780644000       1.11195600     -0.303485006       1406.64209      -1.53889012    
  0.782918990       1.11479497       0.00000000       1406.64209      -1.53889012    
  0.646345019       1.19482601       0.00000000       1406.64209      -1.53889012    
  0.645825028       1.19414902     -0.303514004       1406.64209      -1.53889012    
  0.646345019       1.19482601       0.00000000       1426.83435      -1.53924954    
  0.504974008       1.26637006       0.00000000       1426.83435      -1.53924954    
  0.503772974       1.26314998     -0.303521991       1426.83435      -1.53924954    
  0.645825028       1.19414902     -0.303514004       1426.83435      -1.53924954    
  0.503772974       1.26314998     -0.303521991       1233.86462      -1.53964770    
  0.353130996       1.31116498     -0.303510994       1233.86462      -1.53964770    
  0.353300005       1.31237996     -0.606999993       1233.86462      -1.53964770    
  0.505183995       1.26630700     -0.606999993       1233.86462      -1.53964770    
  0.503772974       1.26314998     -0.303521991       1229.93799      -1.53955483    
  0.505183995       1.26630700     -0.606999993       1229.93799      -1.53955483    
  0.646153986       1.19492805     -0.606999993       1229.93799      -1.53955483    
  0.645825028       1.19414902     -0.303514004       1229.93799      -1.53955483    
  0.503772974       1.26314998     -0.303521991       1427.48254      -1.53922284    
  0.504974008       1.26637006       0.00000000       1427.48254      -1.53922284    
  0.353493989       1.31232095       0.00000000       1427.48254      -1.53922284    
  0.353130996       1.31116498     -0.303510994       1427.48254      -1.53922284    
  0.353493989       1.31232095       0.00000000       1426.97986      -1.53920424    
  0.199064001       1.34539402       0.00000000       1426.97986      -1.53920424    
  0.198755994       1.34360003     -0.303496003       1426.97986      -1.53920424    
  0.353130996       1.31116498     -0.303510994       1426.97986      -1.53920424    
  0.198755994       1.34360003     -0.303496003       1251.38892      -1.54005051    
   4.12769988E-02   1.35817802     -0.303508013       1251.38892      -1.54005051    
   4.12410013E-02   1.36093795     -0.606999993       1251.38892      -1.54005051    
  0.199025005       1.34539795     -0.606999993       1251.38892      -1.54005051    
  0.198755994       1.34360003     -0.303496003       1234.02417      -1.53964257    
  0.199025005       1.34539795     -0.606999993       1234.02417      -1.53964257    
  0.353300005       1.31237996     -0.606999993       1234.02417      -1.53964257    
  0.353130996       1.31116498     -0.303510994       1234.02417      -1.53964257    
  0.198755994       1.34360003     -0.303496003       1427.94604      -1.53915870    
  0.199064001       1.34539402       0.00000000       1427.94604      -1.53915870    
   4.17769998E-02   1.36088502       0.00000000       1427.94604      -1.53915870    
   4.12769988E-02   1.35817802     -0.303508013       1427.94604      -1.53915870    
   4.17769998E-02   1.36088502       0.00000000       1438.53833      -1.53926826    
 -0.116410002       1.35353506       0.00000000       1438.53833      -1.53926826    
 -0.116471998       1.35271096     -0.303496987       1438.53833      -1.53926826    
   4.12769988E-02   1.35817802     -0.303508013       1438.53833      -1.53926826    
 -0.116471998       1.35271096     -0.303496987       1260.17236      -1.54022288    
 -0.273027003       1.33229196     -0.303496003       1260.17236      -1.54022288    
 -0.273876995       1.33647299     -0.606999993       1260.17236      -1.54022288    
 -0.116722003       1.35350394     -0.606999993       1260.17236      -1.54022288    
 -0.116471998       1.35271096     -0.303496987       1250.32129      -1.54000926    
 -0.116722003       1.35350394     -0.606999993       1250.32129      -1.54000926    
   4.12410013E-02   1.36093795     -0.606999993       1250.32129      -1.54000926    
   4.12769988E-02   1.35817802     -0.303508013       1250.32129      -1.54000926    
 -0.116471998       1.35271096     -0.303496987       1443.95911      -1.53920460    
 -0.116410002       1.35353506       0.00000000       1443.95911      -1.53920460    
 -0.274069011       1.33641505       0.00000000       1443.95911      -1.53920460    
 -0.273027003       1.33229196     -0.303496003       1443.95911      -1.53920460    
 -0.274069011       1.33641505       0.00000000       1440.68567      -1.53914046    
 -0.425588995       1.29045200       0.00000000       1440.68567      -1.53914046    
 -0.425258011       1.28953803     -0.303507000       1440.68567      -1.53914046    
 -0.273027003       1.33229196     -0.303496003       1440.68567      -1.53914046    
 -0.425258011       1.28953803     -0.303507000       1249.13293      -1.54001319    
 -0.572302997       1.23206902     -0.303485990       1249.13293      -1.54001319    
 -0.573064029       1.23399496     -0.606999993       1249.13293      -1.54001319    
 -0.425651014       1.29043305     -0.606999993       1249.13293      -1.54001319    
 -0.425258011       1.28953803     -0.303507000       1255.75500      -1.54012930    
 -0.425651014       1.29043305     -0.606999993       1255.75500      -1.54012930    
 -0.273876995       1.33647299     -0.606999993       1255.75500      -1.54012930    
 -0.273027003       1.33229196     -0.303496003       1255.75500      -1.54012930    
 -0.425258011       1.28953803     -0.303507000       1423.34424      -1.53901339    
 -0.425588995       1.29045200       0.00000000       1423.34424      -1.53901339    
 -0.573195994       1.23392498       0.00000000       1423.34424      -1.53901339    
 -0.572302997       1.23206902     -0.303485990       1423.34424      -1.53901339    
 -0.573195994       1.23392498       0.00000000       1407.93042      -1.53886688    
 -0.712655008       1.15938199       0.00000000       1407.93042      -1.53886688    
 -0.711889029       1.15749002     -0.303496003       1407.93042      -1.53886688    
 -0.572302997       1.23206902     -0.303485990       1407.93042      -1.53886688    
 -0.711889029       1.15749002     -0.303496003       1232.96094      -1.53971183    
 -0.840825975       1.06629205     -0.303485990       1232.96094      -1.53971183    
 -0.841368973       1.06682706     -0.606999993       1232.96094      -1.53971183    
 -0.712980986       1.15920806     -0.606999993       1232.96094      -1.53971183    
 -0.711889029       1.15749002     -0.303496003       1240.22180      -1.53984487    
 -0.712980986       1.15920806     -0.606999993       1240.22180      -1.53984487    
 -0.573064029       1.23399496     -0.606999993       1240.22180      -1.53984487    
 -0.572302997       1.23206902     -0.303485990       1240.22180      -1.53984487    
 -0.711889029       1.15749002     -0.303496003       1399.87292      -1.53893566    
 -0.712655008       1.15938199       0.00000000       1399.87292      -1.53893566    
 -0.841165006       1.06699395       0.00000000       1399.87292      -1.53893566    
 -0.840825975       1.06629205     -0.303485990       1399.87292      -1.53893566    
 -0.841165006       1.06699395       0.00000000       1393.35425      -1.53883183    
 -0.963320017      0.966744006       0.00000000       1393.35425      -1.53883183    
 -0.960084975      0.962615013     -0.303470999       1393.35425      -1.53883183    
 -0.840825975       1.06629205     -0.303485990       1393.35425      -1.53883183    
 -0.960084975      0.962615013     -0.303470999       1214.93347      -1.53927493    
  -1.06383705      0.843237996     -0.303481996       1214.93347      -1.53927493    
  -1.06481802      0.843816996     -0.606999993       1214.93347      -1.53927493    
 -0.963873982      0.966289997     -0.606999993       1214.93347      -1.53927493    
 -0.960084975      0.962615013     -0.303470999       1223.07166      -1.53949058    
 -0.963873982      0.966289997     -0.606999993       1223.07166      -1.53949058    
 -0.841368973       1.06682706     -0.606999993       1223.07166      -1.53949058    
 -0.840825975       1.06629205     -0.303485990       1223.07166      -1.53949058    
 -0.960084975      0.962615013     -0.303470999       1392.56653      -1.53877974    
 -0.963320017      0.966744006       0.00000000       1392.56653      -1.53877974    
  -1.06464398      0.844029009       0.00000000       1392.56653      -1.53877974    
  -1.06383705      0.843237996     -0.303481996       1392.56653      -1.53877974    
  -1.06464398      0.844029009       0.00000000       1389.54333      -1.53870392    
  -1.15769398      0.715813994       0.00000000       1389.54333      -1.53870392    
  -1.15564799      0.714680016     -0.303483993       1389.54333      -1.53870392    
  -1.06383705      0.843237996     -0.303481996       1389.54333      -1.53870392    
  -1.15564799      0.714680016     -0.303483993       1217.51624      -1.53923297    
  -1.23108304      0.575536013     -0.303514004       1217.51624      -1.53923297    
  -1.23232996      0.576179981     -0.606999993       1217.51624      -1.53923297    
  -1.15756094      0.716063023     -0.606999993       1217.51624      -1.53923297    
  -1.15564799      0.714680016     -0.303483993       1211.64221      -1.53914630    
  -1.15756094      0.716063023     -0.606999993       1211.64221      -1.53914630    
  -1.06481802      0.843816996     -0.606999993       1211.64221      -1.53914630    
  -1.06383705      0.843237996     -0.303481996       1211.64221      -1.53914630    
  -1.15564799      0.714680016     -0.303483993       1398.00537      -1.53861618    
  -1.15769398      0.715813994       0.00000000       1398.00537      -1.53861618    
  -1.23224795      0.576331973       0.00000000       1398.00537      -1.53861618    
  -1.23108304      0.575536013     -0.303514004       1398.00537      -1.53861618    
  -1.23224795      0.576331973       0.00000000       1401.14771      -1.53854871    
  -1.28948605      0.428772002       0.00000000       1401.14771      -1.53854871    
  -1.28842103      0.428404987     -0.303512990       1401.14771      -1.53854871    
  -1.23108304      0.575536013     -0.303514004       1401.14771      -1.53854871    
  -1.28842103      0.428404987     -0.303512990       1192.03064      -1.53850853    
  -1.33082402      0.275959998     -0.303492010       1192.03064      -1.53850853    
  -1.33550000      0.277083993     -0.606999993       1192.03064      -1.53850853    