 VARIABLES="X" "Y" "Z" "abs(p) (Pa)" "angle(p) (rad)"
ZONE N=   2720,E =    2069, F=FEPOINT, ET=QUADRILATERAL
 -0.767116010      -1.12776399       0.00000000       4404.61377       1.68745458    
 -0.769354999      -1.12002099     -0.303523988       4404.61377       1.68745458    
 -0.896136999      -1.02028203     -0.303463012       4404.61377       1.68745458    
 -0.894908011      -1.02288902       0.00000000       4404.61377       1.68745458    
 -0.767116010      -1.12776399       0.00000000       3723.22778       1.68787456    
 -0.630888999      -1.20308697       0.00000000       3723.22778       1.68787456    
 -0.635528028      -1.19958198     -0.303541005       3723.22778       1.68787456    
 -0.769354999      -1.12002099     -0.303523988       3723.22778       1.68787456    
 -0.635528028      -1.19958198     -0.303541005       2931.23462       1.68499863    
 -0.495362997      -1.26606500     -0.303519011       2931.23462       1.68499863    
 -0.499298006      -1.26809204     -0.606999993       2931.23462       1.68499863    
 -0.640147984      -1.19813800     -0.606998026       2931.23462       1.68499863    
 -0.635528028      -1.19958198     -0.303541005       3658.82080       1.68477058    
 -0.640147984      -1.19813800     -0.606998026       3658.82080       1.68477058    
 -0.777105987      -1.11956596     -0.606999993       3658.82080       1.68477058    
 -0.769354999      -1.12002099     -0.303523988       3658.82080       1.68477058    
 -0.635528028      -1.19958198     -0.303541005       2951.29663       1.68719840    
 -0.630888999      -1.20308697       0.00000000       2951.29663       1.68719840    
 -0.494486004      -1.26955199       0.00000000       2951.29663       1.68719840    
 -0.495362997      -1.26606500     -0.303519011       2951.29663       1.68719840    
 -0.494486004      -1.26955199       0.00000000       2206.78906       1.68797243    
 -0.346311986      -1.31449997       0.00000000       2206.78906       1.68797243    
 -0.346753001      -1.31307304     -0.303510010       2206.78906       1.68797243    
 -0.495362997      -1.26606500     -0.303519011       2206.78906       1.68797243    
 -0.346753001      -1.31307304     -0.303510010       1389.54968       1.68697274    
 -0.193608001      -1.34425998     -0.303494990       1389.54968       1.68697274    
 -0.195028007      -1.34579206     -0.606999993       1389.54968       1.68697274    
 -0.348751009      -1.31376004     -0.606999993       1389.54968       1.68697274    
 -0.346753001      -1.31307304     -0.303510010       2183.79004       1.68574500    
 -0.348751009      -1.31376004     -0.606999993       2183.79004       1.68574500    
 -0.499298006      -1.26809204     -0.606999993       2183.79004       1.68574500    
 -0.495362997      -1.26606500     -0.303519011       2183.79004       1.68574500    
 -0.346753001      -1.31307304     -0.303510010       1406.59399       1.68951309    
 -0.346311986      -1.31449997       0.00000000       1406.59399       1.68951309    
 -0.193381995      -1.34595394       0.00000000       1406.59399       1.68951309    
 -0.193608001      -1.34425998     -0.303494990       1406.59399       1.68951309    
 -0.193381995      -1.34595394       0.00000000       621.398987       1.70080614    
  -3.75179984E-02  -1.36130500       0.00000000       621.398987       1.70080614    
  -3.73950005E-02  -1.35827899     -0.303512007       621.398987       1.70080614    
 -0.193608001      -1.34425998     -0.303494990       621.398987       1.70080614    
  -3.73950005E-02  -1.35827899     -0.303512007       231.244156      -1.47753048    
  0.119547002      -1.35239303     -0.303498000       231.244156      -1.47753048    
  0.119135000      -1.35326600     -0.606999993       231.244156      -1.47753048    
  -3.82840000E-02  -1.36122894     -0.606998980       231.244156      -1.47753048    
  -3.73950005E-02  -1.35827899     -0.303512007       578.001831       1.69062352    
  -3.82840000E-02  -1.36122894     -0.606998980       578.001831       1.69062352    
 -0.195028007      -1.34579206     -0.606999993       578.001831       1.69062352    
 -0.193608001      -1.34425998     -0.303494990       578.001831       1.69062352    
  -3.73950005E-02  -1.35827899     -0.303512007       194.241928      -1.50644732    
  -3.75179984E-02  -1.36130500       0.00000000       194.241928      -1.50644732    
  0.119788997      -1.35320199       0.00000000       194.241928      -1.50644732    
  0.119547002      -1.35239303     -0.303498000       194.241928      -1.50644732    
  0.119788997      -1.35320199       0.00000000       1033.06201      -1.46487486    
  0.276576012      -1.33565402       0.00000000       1033.06201      -1.46487486    
  0.275435001      -1.33191597     -0.303496003       1033.06201      -1.46487486    
  0.119547002      -1.35239303     -0.303498000       1033.06201      -1.46487486    
  0.275435001      -1.33191597     -0.303496003       1822.19922      -1.46191871    
  0.427076995      -1.28898001     -0.303507000       1822.19922      -1.46191871    
  0.427242011      -1.28995001     -0.606999993       1822.19922      -1.46191871    
  0.275831014      -1.33588004     -0.606999993       1822.19922      -1.46191871    
  0.275435001      -1.33191597     -0.303496003       1034.65088      -1.46417630    
  0.275831014      -1.33588004     -0.606999993       1034.65088      -1.46417630    
  0.119135000      -1.35326600     -0.606999993       1034.65088      -1.46417630    
  0.119547002      -1.35239303     -0.303498000       1034.65088      -1.46417630    
  0.275435001      -1.33191597     -0.303496003       1823.07471      -1.46129882    
  0.276576012      -1.33565402       0.00000000       1823.07471      -1.46129882    
  0.427509993      -1.28986895       0.00000000       1823.07471      -1.46129882    
  0.427076995      -1.28898001     -0.303507000       1823.07471      -1.46129882    
  0.427509993      -1.28986895       0.00000000       2601.48560      -1.46008623    
  0.574636996      -1.23315501       0.00000000       2601.48560      -1.46008623    
  0.573706985      -1.23136795     -0.303485990       2601.48560      -1.46008623    
  0.427076995      -1.28898001     -0.303507000       2601.48560      -1.46008623    
  0.573706985      -1.23136795     -0.303485990       3348.57764      -1.46009719    
  0.712854981      -1.15688002     -0.303496987       3348.57764      -1.46009719    
  0.713809013      -1.15876603     -0.606999993       3348.57764      -1.46009719    
  0.574283004      -1.23334301     -0.606999993       3348.57764      -1.46009719    
  0.573706985      -1.23136795     -0.303485990       2603.59155      -1.46064401    
  0.574283004      -1.23334301     -0.606999993       2603.59155      -1.46064401    
  0.427242011      -1.28995001     -0.606999993       2603.59155      -1.46064401    
  0.427076995      -1.28898001     -0.303507000       2603.59155      -1.46064401    
  0.573706985      -1.23136795     -0.303485990       3347.25757      -1.45925033    
  0.574636996      -1.23315501       0.00000000       3347.25757      -1.45925033    
  0.713741004      -1.15880203       0.00000000       3347.25757      -1.45925033    
  0.712854981      -1.15688002     -0.303496987       3347.25757      -1.45925033    
  0.713741004      -1.15880203       0.00000000       4046.52271      -1.45874906    
  0.841937006      -1.06636095       0.00000000       4046.52271      -1.45874906    
  0.841498017      -1.06573403     -0.303485990       4046.52271      -1.45874906    
  0.712854981      -1.15688002     -0.303496987       4046.52271      -1.45874906    
  0.841498017      -1.06573403     -0.303485990       4702.58252      -1.45964861    
  0.960639000     -0.962104976     -0.303470999       4702.58252      -1.45964861    
  0.964356005     -0.965893984     -0.606999993       4702.58252      -1.45964861    
  0.841796994      -1.06647599     -0.606999993       4702.58252      -1.45964861    
  0.841498017      -1.06573403     -0.303485990       4040.43750      -1.45994520    
  0.841796994      -1.06647599     -0.606999993       4040.43750      -1.45994520    
  0.713809013      -1.15876603     -0.606999993       4040.43750      -1.45994520    
  0.712854981      -1.15688002     -0.303496987       4040.43750      -1.45994520    
  0.841498017      -1.06573403     -0.303485990       4739.49365      -1.45794725    
  0.841937006      -1.06636095       0.00000000       4739.49365      -1.45794725    
  0.963932991     -0.966242015       0.00000000       4739.49365      -1.45794725    
  0.960639000     -0.962104976     -0.303470999       4739.49365      -1.45794725    
  0.963932991     -0.966242015       0.00000000       5318.19971      -1.45778275    
   1.06506598     -0.843514979       0.00000000       5318.19971      -1.45778275    
   1.06428695     -0.842682004     -0.303481996       5318.19971      -1.45778275    
  0.960639000     -0.962104976     -0.303470999       5318.19971      -1.45778275    
   1.06428695     -0.842682004     -0.303481996       5805.40869      -1.45897794    
   1.15591598     -0.714210987     -0.303485006       5805.40869      -1.45897794    
   1.15788805     -0.715448976     -0.606999993       5805.40869      -1.45897794    
   1.06537795     -0.843134999     -0.606999993       5805.40869      -1.45897794    
   1.06428695     -0.842682004     -0.303481996       5277.60498      -1.45956647    
   1.06537795     -0.843134999     -0.606999993       5277.60498      -1.45956647    
  0.964356005     -0.965893984     -0.606999993       5277.60498      -1.45956647    
  0.960639000     -0.962104976     -0.303470999       5277.60498      -1.45956647    
   1.06428695     -0.842682004     -0.303481996       5822.76270      -1.45766187    
   1.06506598     -0.843514979       0.00000000       5822.76270      -1.45766187    
   1.15792501     -0.715381980       0.00000000       5822.76270      -1.45766187    
   1.15591598     -0.714210987     -0.303485006       5822.76270      -1.45766187    
   1.15792501     -0.715381980       0.00000000       6291.69238      -1.45753634    
   1.23237598     -0.576093972       0.00000000       6291.69238      -1.45753634    
   1.23120904     -0.575251997     -0.303514004       6291.69238      -1.45753634    
   1.15591598     -0.714210987     -0.303485006       6291.69238      -1.45753634    
   1.23120904     -0.575251997     -0.303514004       6592.88916      -1.45888364    
   1.28844094     -0.428344995     -0.303512990       6592.88916      -1.45888364    
   1.28952503     -0.428642988     -0.606999993       6592.88916      -1.45888364    
   1.23252702     -0.575810015     -0.606999993       6592.88916      -1.45888364    
   1.23120904     -0.575251997     -0.303514004       6246.25879      -1.45893598    
   1.23252702     -0.575810015     -0.606999993       6246.25879      -1.45893598    
   1.15788805     -0.715448976     -0.606999993       6246.25879      -1.45893598    
   1.15591598     -0.714210987     -0.303485006       6246.25879      -1.45893598    
   1.23120904     -0.575251997     -0.303514004       6682.85352      -1.45715225    
   1.23237598     -0.576093972       0.00000000       6682.85352      -1.45715225    
   1.28947699     -0.428801000       0.00000000       6682.85352      -1.45715225    
   1.28844094     -0.428344995     -0.303512990       6682.85352      -1.45715225    
   1.28947699     -0.428801000       0.00000000       6953.76611      -1.45733082    
   1.33532202     -0.277671993       0.00000000       6953.76611      -1.45733082    
   1.33076501     -0.276203990     -0.303492010       6953.76611      -1.45733082    
   1.28844094     -0.428344995     -0.303512990       6953.76611      -1.45733082    
   1.33076501     -0.276203990     -0.303492010       7059.00781      -1.45837927    
   1.35229194     -0.119709998     -0.303514004       7059.00781      -1.45837927    
   1.35321999     -0.119608998     -0.606999993       7059.00781      -1.45837927    
   1.33549094     -0.277112991     -0.606999993       7059.00781      -1.45837927    
   1.33076501     -0.276203990     -0.303492010       6866.60840      -1.45889199    
   1.33549094     -0.277112991     -0.606999993       6866.60840      -1.45889199    
   1.28952503     -0.428642988     -0.606999993       6866.60840      -1.45889199    
   1.28844094     -0.428344995     -0.303512990       6866.60840      -1.45889199    
   1.33076501     -0.276203990     -0.303492010       7097.72412      -1.45764637    
   1.33532202     -0.277671993       0.00000000       7097.72412      -1.45764637    
   1.35319102     -0.119900003       0.00000000       7097.72412      -1.45764637    
   1.35229194     -0.119709998     -0.303514004       7097.72412      -1.45764637    
   1.35319102     -0.119900003       0.00000000       7175.48975      -1.45765734    
   1.36124396       3.81390005E-02   0.00000000       7175.48975      -1.45765734    
   1.35858905       3.79349999E-02 -0.303501010       7175.48975      -1.45765734    
   1.35229194     -0.119709998     -0.303514004       7175.48975      -1.45765734    
   1.35858905       3.79349999E-02 -0.303501010       7097.93994      -1.45868123    
   1.34464097      0.195331007     -0.303496003       7097.93994      -1.45868123    
   1.34573400      0.195616007     -0.606999993       7097.93994      -1.45868123    
   1.36126804       3.78950015E-02 -0.606999993       7097.93994      -1.45868123    
   1.35858905       3.79349999E-02 -0.303501010       7112.95264      -1.45867014    
   1.36126804       3.78950015E-02 -0.606999993       7112.95264      -1.45867014    
   1.35321999     -0.119608998     -0.606999993       7112.95264      -1.45867014    
   1.35229194     -0.119709998     -0.303514004       7112.95264      -1.45867014    
   1.35858905       3.79349999E-02 -0.303501010       7193.25732      -1.45715570    
   1.36124396       3.81390005E-02   0.00000000       7193.25732      -1.45715570    
   1.34575403      0.195406005       0.00000000       7193.25732      -1.45715570    
   1.34464097      0.195331007     -0.303496003       7193.25732      -1.45715570    
   1.34575403      0.195406005       0.00000000       7079.29590      -1.45718503    
   1.31339800      0.349945009       0.00000000       7079.29590      -1.45718503    
   1.31216300      0.349725991     -0.303487003       7079.29590      -1.45718503    
   1.34464097      0.195331007     -0.303496003       7079.29590      -1.45718503    
   1.31216300      0.349725991     -0.303487003       6756.42041      -1.45898986    
   1.26341999      0.500032008     -0.303494006       6756.42041      -1.45898986    
   1.26736605      0.501691997     -0.606999993       6756.42041      -1.45898986    
   1.31333196      0.350163996     -0.606999993       6756.42041      -1.45898986    
   1.31216300      0.349725991     -0.303487003       6974.40332      -1.45867097    
   1.31333196      0.350163996     -0.606999993       6974.40332      -1.45867097    
   1.34573400      0.195616007     -0.606999993       6974.40332      -1.45867097    
   1.34464097      0.195331007     -0.303496003       6974.40332      -1.45867097    
   1.31216300      0.349725991     -0.303487003       6887.46680      -1.45717371    
   1.31339800      0.349945009       0.00000000       6887.46680      -1.45717371    
   1.26751196      0.501209974       0.00000000       6887.46680      -1.45717371    
   1.26341999      0.500032008     -0.303494006       6887.46680      -1.45717371    
   1.26751196      0.501209974       0.00000000       6549.15674      -1.45779622    
   1.19658697      0.643051028       0.00000000       6549.15674      -1.45779622    
   1.19583094      0.642783999     -0.303505003       6549.15674      -1.45779622    
   1.26341999      0.500032008     -0.303494006       6549.15674      -1.45779622    
   1.19583094      0.642783999     -0.303505003       6080.25830      -1.45853436    
   1.11495602      0.778467000     -0.303483993       6080.25830      -1.45853436    
   1.11731696      0.779847026     -0.606999993       6080.25830      -1.45853436    
   1.19653296      0.643149972     -0.606999993       6080.25830      -1.45853436    
   1.19583094      0.642783999     -0.303505003       6450.63135      -1.45902431    
   1.19653296      0.643149972     -0.606999993       6450.63135      -1.45902431    
   1.26736605      0.501691997     -0.606999993       6450.63135      -1.45902431    
   1.26341999      0.500032008     -0.303494006       6450.63135      -1.45902431    
   1.19583094      0.642783999     -0.303505003       6110.34082      -1.45798624    
   1.19658697      0.643051028       0.00000000       6110.34082      -1.45798624    
   1.11705506      0.780165970       0.00000000       6110.34082      -1.45798624    
   1.11495602      0.778467000     -0.303483993       6110.34082      -1.45798624    
   1.11705506      0.780165970       0.00000000       5613.33398      -1.45814192    
   1.01674199      0.902397990       0.00000000       5613.33398      -1.45814192    
   1.01591504      0.901737988     -0.303478003       5613.33398      -1.45814192    
   1.11495602      0.778467000     -0.303483993       5613.33398      -1.45814192    
   1.01591504      0.901737988     -0.303478003       5023.56348      -1.45921767    
  0.904204011       1.01322901     -0.303456992       5023.56348      -1.45921767    
  0.905143023       1.01448905     -0.606999993       5023.56348      -1.45921767    
   1.01659799      0.902572989     -0.606999993       5023.56348      -1.45921767    
   1.01591504      0.901737988     -0.303478003       5585.91211      -1.45910454    
   1.01659799      0.902572989     -0.606999993       5585.91211      -1.45910454    
   1.11731696      0.779847026     -0.606999993       5585.91211      -1.45910454    
   1.11495602      0.778467000     -0.303483993       5585.91211      -1.45910454    
   1.01591504      0.901737988     -0.303478003       5029.46094      -1.45839441    
   1.01674199      0.902397990       0.00000000       5029.46094      -1.45839441    
  0.905318975       1.01434398       0.00000000       5029.46094      -1.45839441    
  0.904204011       1.01322901     -0.303456992       5029.46094      -1.45839441    
  0.905318975       1.01434398       0.00000000       4443.28271      -1.45784402    
  0.782918990       1.11479497       0.00000000       4443.28271      -1.45784402    
  0.780644000       1.11195600     -0.303485006       4443.28271      -1.45784402    
  0.904204011       1.01322901     -0.303456992       4443.28271      -1.45784402    
  0.780644000       1.11195600     -0.303485006       3734.28589      -1.45960939    
  0.645825028       1.19414902     -0.303514004       3734.28589      -1.45960939    
  0.646153986       1.19492805     -0.606999993       3734.28589      -1.45960939    
  0.782611012       1.11504900     -0.606999993       3734.28589      -1.45960939    
  0.780644000       1.11195600     -0.303485006       4407.20312      -1.45943904    
  0.782611012       1.11504900     -0.606999993       4407.20312      -1.45943904    
  0.905143023       1.01448905     -0.606999993       4407.20312      -1.45943904    
  0.904204011       1.01322901     -0.303456992       4407.20312      -1.45943904    
  0.780644000       1.11195600     -0.303485006       3770.52368      -1.45798469    
  0.782918990       1.11479497       0.00000000       3770.52368      -1.45798469    
  0.646345019       1.19482601       0.00000000       3770.52368      -1.45798469    
  0.645825028       1.19414902     -0.303514004       3770.52368      -1.45798469    
  0.646345019       1.19482601       0.00000000       2998.42896      -1.45967126    
  0.504974008       1.26637006       0.00000000       2998.42896      -1.45967126    
  0.503772974       1.26314998     -0.303521991       2998.42896      -1.45967126    
  0.645825028       1.19414902     -0.303514004       2998.42896      -1.45967126    
  0.503772974       1.26314998     -0.303521991       2249.90894      -1.46051252    
  0.353130996       1.31116498     -0.303510994       2249.90894      -1.46051252    
  0.353300005       1.31237996     -0.606999993       2249.90894      -1.46051252    
  0.505183995       1.26630700     -0.606999993       2249.90894      -1.46051252    
  0.503772974       1.26314998     -0.303521991       3002.57690      -1.46008027    
  0.505183995       1.26630700     -0.606999993       3002.57690      -1.46008027    
  0.646153986       1.19492805     -0.606999993       3002.57690      -1.46008027    
  0.645825028       1.19414902     -0.303514004       3002.57690      -1.46008027    
  0.503772974       1.26314998     -0.303521991       2241.55371      -1.46076810    
  0.504974008       1.26637006       0.00000000       2241.55371      -1.46076810    
  0.353493989       1.31232095       0.00000000       2241.55371      -1.46076810    
  0.353130996       1.31116498     -0.303510994       2241.55371      -1.46076810    
  0.353493989       1.31232095       0.00000000       1428.06860      -1.46350908    
  0.199064001       1.34539402       0.00000000       1428.06860      -1.46350908    
  0.198755994       1.34360003     -0.303496003       1428.06860      -1.46350908    
  0.353130996       1.31116498     -0.303510994       1428.06860      -1.46350908    
  0.198755994       1.34360003     -0.303496003       602.533142      -1.47401690    
   4.12769988E-02   1.35817802     -0.303508013       602.533142      -1.47401690    
   4.12410013E-02   1.36093795     -0.606999993       602.533142      -1.47401690    
  0.199025005       1.34539795     -0.606999993       602.533142      -1.47401690    
  0.198755994       1.34360003     -0.303496003       1448.19727      -1.46202791    
  0.199025005       1.34539795     -0.606999993       1448.19727      -1.46202791    
  0.353300005       1.31237996     -0.606999993       1448.19727      -1.46202791    
  0.353130996       1.31116498     -0.303510994       1448.19727      -1.46202791    
  0.198755994       1.34360003     -0.303496003       604.216492      -1.47368073    
  0.199064001       1.34539402       0.00000000       604.216492      -1.47368073    
   4.17769998E-02   1.36088502       0.00000000       604.216492      -1.47368073    
   4.12769988E-02   1.35817802     -0.303508013       604.216492      -1.47368073    
   4.17769998E-02   1.36088502       0.00000000       220.647507       1.73320115    
 -0.116410002       1.35353506       0.00000000       220.647507       1.73320115    
 -0.116471998       1.35271096     -0.303496987       220.647507       1.73320115    
   4.12769988E-02   1.35817802     -0.303508013       220.647507       1.73320115    
 -0.116471998       1.35271096     -0.303496987       1050.15845       1.69529021    
 -0.273027003       1.33229196     -0.303496003       1050.15845       1.69529021    
 -0.273876995       1.33647299     -0.606999993       1050.15845       1.69529021    
 -0.116722003       1.35350394     -0.606999993       1050.15845       1.69529021    
 -0.116471998       1.35271096     -0.303496987       214.592346       1.72805703    
 -0.116722003       1.35350394     -0.606999993       214.592346       1.72805703    
   4.12410013E-02   1.36093795     -0.606999993       214.592346       1.72805703    
   4.12769988E-02   1.35817802     -0.303508013       214.592346       1.72805703    
 -0.116471998       1.35271096     -0.303496987       1063.91797       1.69559479    
 -0.116410002       1.35353506       0.00000000       1063.91797       1.69559479    
 -0.274069011       1.33641505       0.00000000       1063.91797       1.69559479    
 -0.273027003       1.33229196     -0.303496003       1063.91797       1.69559479    
 -0.274069011       1.33641505       0.00000000       1858.90088       1.69114351    
 -0.425588995       1.29045200       0.00000000       1858.90088       1.69114351    
 -0.425258011       1.28953803     -0.303507000       1858.90088       1.69114351    
 -0.273027003       1.33229196     -0.303496003       1858.90088       1.69114351    
 -0.425258011       1.28953803     -0.303507000       2621.42578       1.68826246    
 -0.572302997       1.23206902     -0.303485990       2621.42578       1.68826246    
 -0.573064029       1.23399496     -0.606999993       2621.42578       1.68826246    
 -0.425651014       1.29043305     -0.606999993       2621.42578       1.68826246    
 -0.425258011       1.28953803     -0.303507000       1839.67065       1.68999636    
 -0.425651014       1.29043305     -0.606999993       1839.67065       1.68999636    
 -0.273876995       1.33647299     -0.606999993       1839.67065       1.68999636    
 -0.273027003       1.33229196     -0.303496003       1839.67065       1.68999636    
 -0.425258011       1.28953803     -0.303507000       2639.87012       1.68943620    
 -0.425588995       1.29045200       0.00000000       2639.87012       1.68943620    
 -0.573195994       1.23392498       0.00000000       2639.87012       1.68943620    
 -0.572302997       1.23206902     -0.303485990       2639.87012       1.68943620    
 -0.573195994       1.23392498       0.00000000       3381.24121       1.68851709    
 -0.712655008       1.15938199       0.00000000       3381.24121       1.68851709    
 -0.711889029       1.15749002     -0.303496003       3381.24121       1.68851709    
 -0.572302997       1.23206902     -0.303485990       3381.24121       1.68851709    
 -0.711889029       1.15749002     -0.303496003       4054.58911       1.68637085    
 -0.840825975       1.06629205     -0.303485990       4054.58911       1.68637085    
 -0.841368973       1.06682706     -0.606999993       4054.58911       1.68637085    
 -0.712980986       1.15920806     -0.606999993       4054.58911       1.68637085    
 -0.711889029       1.15749002     -0.303496003       3361.72021       1.68698061    
 -0.712980986       1.15920806     -0.606999993       3361.72021       1.68698061    
 -0.573064029       1.23399496     -0.606999993       3361.72021       1.68698061    
 -0.572302997       1.23206902     -0.303485990       3361.72021       1.68698061    
 -0.711889029       1.15749002     -0.303496003       4065.17969       1.68786395    
 -0.712655008       1.15938199       0.00000000       4065.17969       1.68786395    
 -0.841165006       1.06699395       0.00000000       4065.17969       1.68786395    
 -0.840825975       1.06629205     -0.303485990       4065.17969       1.68786395    
 -0.841165006       1.06699395       0.00000000       4728.12354       1.68757474    
 -0.963320017      0.966744006       0.00000000       4728.12354       1.68757474    
 -0.960084975      0.962615013     -0.303470999       4728.12354       1.68757474    
 -0.840825975       1.06629205     -0.303485990       4728.12354       1.68757474    
 -0.960084975      0.962615013     -0.303470999       5286.50244       1.68563712    
  -1.06383705      0.843237996     -0.303481996       5286.50244       1.68563712    
  -1.06481802      0.843816996     -0.606999993       5286.50244       1.68563712    
 -0.963873982      0.966289997     -0.606999993       5286.50244       1.68563712    
 -0.960084975      0.962615013     -0.303470999       4712.08105       1.68599391    
 -0.963873982      0.966289997     -0.606999993       4712.08105       1.68599391    
 -0.841368973       1.06682706     -0.606999993       4712.08105       1.68599391    
 -0.840825975       1.06629205     -0.303485990       4712.08105       1.68599391    
 -0.960084975      0.962615013     -0.303470999       5315.69824       1.68744254    
 -0.963320017      0.966744006       0.00000000       5315.69824       1.68744254    
  -1.06464398      0.844029009       0.00000000       5315.69824       1.68744254    
  -1.06383705      0.843237996     -0.303481996       5315.69824       1.68744254    
  -1.06464398      0.844029009       0.00000000       5848.92139       1.68723452    
  -1.15769398      0.715813994       0.00000000       5848.92139       1.68723452    
  -1.15564799      0.714680016     -0.303483993       5848.92139       1.68723452    
  -1.06383705      0.843237996     -0.303481996       5848.92139       1.68723452    
  -1.15564799      0.714680016     -0.303483993       6252.70947       1.68543518    
  -1.23108304      0.575536013     -0.303514004       6252.70947       1.68543518    
  -1.23232996      0.576179981     -0.606999993       6252.70947       1.68543518    
  -1.15756094      0.716063023     -0.606999993       6252.70947       1.68543518    
  -1.15564799      0.714680016     -0.303483993       5803.55762       1.68552625    
  -1.15756094      0.716063023     -0.606999993       5803.55762       1.68552625    
  -1.06481802      0.843816996     -0.606999993       5803.55762       1.68552625    
  -1.06383705      0.843237996     -0.303481996       5803.55762       1.68552625    
  -1.15564799      0.714680016     -0.303483993       6341.12354       1.68711793    
  -1.15769398      0.715813994       0.00000000       6341.12354       1.68711793    
  -1.23224795      0.576331973       0.00000000       6341.12354       1.68711793    
  -1.23108304      0.575536013     -0.303514004       6341.12354       1.68711793    
  -1.23224795      0.576331973       0.00000000       6720.81885       1.68702340    
  -1.28948605      0.428772002       0.00000000       6720.81885       1.68702340    
  -1.28842103      0.428404987     -0.303512990       6720.81885       1.68702340    
  -1.23108304      0.575536013     -0.303514004       6720.81885       1.68702340    
  -1.28842103      0.428404987     -0.303512990       6857.21289       1.68482316    
  -1.33082402      0.275959998     -0.303492010       6857.21289       1.68482316    
  -1.33550000      0.277083993     -0.606999993       6857.21289       1.68482316    