 VARIABLES="X" "Y" "Z" "abs(p) (Pa)" "angle(p) (rad)"
ZONE N=   2720,E =    2069, F=FEPOINT, ET=QUADRILATERAL
 -0.767116010      -1.12776399       0.00000000       431.077087       1.63459432    
 -0.769354999      -1.12002099     -0.303523988       431.077087       1.63459432    
 -0.896136999      -1.02028203     -0.303463012       431.077087       1.63459432    
 -0.894908011      -1.02288902       0.00000000       431.077087       1.63459432    
 -0.767116010      -1.12776399       0.00000000       365.681641       1.63672233    
 -0.630888999      -1.20308697       0.00000000       365.681641       1.63672233    
 -0.635528028      -1.19958198     -0.303541005       365.681641       1.63672233    
 -0.769354999      -1.12002099     -0.303523988       365.681641       1.63672233    
 -0.635528028      -1.19958198     -0.303541005       8966.53711       1.61802197    
 -0.495362997      -1.26606500     -0.303519011       8966.53711       1.61802197    
 -0.499298006      -1.26809204     -0.606999993       8966.53711       1.61802197    
 -0.640147984      -1.19813800     -0.606998026       8966.53711       1.61802197    
 -0.635528028      -1.19958198     -0.303541005       8987.07129       1.61803901    
 -0.640147984      -1.19813800     -0.606998026       8987.07129       1.61803901    
 -0.777105987      -1.11956596     -0.606999993       8987.07129       1.61803901    
 -0.769354999      -1.12002099     -0.303523988       8987.07129       1.61803901    
 -0.635528028      -1.19958198     -0.303541005       419.620605       1.63456404    
 -0.630888999      -1.20308697       0.00000000       419.620605       1.63456404    
 -0.494486004      -1.26955199       0.00000000       419.620605       1.63456404    
 -0.495362997      -1.26606500     -0.303519011       419.620605       1.63456404    
 -0.494486004      -1.26955199       0.00000000       363.897369       1.63617587    
 -0.346311986      -1.31449997       0.00000000       363.897369       1.63617587    
 -0.346753001      -1.31307304     -0.303510010       363.897369       1.63617587    
 -0.495362997      -1.26606500     -0.303519011       363.897369       1.63617587    
 -0.346753001      -1.31307304     -0.303510010       8979.60547       1.61805260    
 -0.193608001      -1.34425998     -0.303494990       8979.60547       1.61805260    
 -0.195028007      -1.34579206     -0.606999993       8979.60547       1.61805260    
 -0.348751009      -1.31376004     -0.606999993       8979.60547       1.61805260    
 -0.346753001      -1.31307304     -0.303510010       8956.80664       1.61801541    
 -0.348751009      -1.31376004     -0.606999993       8956.80664       1.61801541    
 -0.499298006      -1.26809204     -0.606999993       8956.80664       1.61801541    
 -0.495362997      -1.26606500     -0.303519011       8956.80664       1.61801541    
 -0.346753001      -1.31307304     -0.303510010       497.444550       1.63204527    
 -0.346311986      -1.31449997       0.00000000       497.444550       1.63204527    
 -0.193381995      -1.34595394       0.00000000       497.444550       1.63204527    
 -0.193608001      -1.34425998     -0.303494990       497.444550       1.63204527    
 -0.193381995      -1.34595394       0.00000000       458.758514       1.63247788    
  -3.75179984E-02  -1.36130500       0.00000000       458.758514       1.63247788    
  -3.73950005E-02  -1.35827899     -0.303512007       458.758514       1.63247788    
 -0.193608001      -1.34425998     -0.303494990       458.758514       1.63247788    
  -3.73950005E-02  -1.35827899     -0.303512007       9024.08008       1.61802983    
  0.119547002      -1.35239303     -0.303498000       9024.08008       1.61802983    
  0.119135000      -1.35326600     -0.606999993       9024.08008       1.61802983    
  -3.82840000E-02  -1.36122894     -0.606998980       9024.08008       1.61802983    
  -3.73950005E-02  -1.35827899     -0.303512007       8994.75391       1.61802328    
  -3.82840000E-02  -1.36122894     -0.606998980       8994.75391       1.61802328    
 -0.195028007      -1.34579206     -0.606999993       8994.75391       1.61802328    
 -0.193608001      -1.34425998     -0.303494990       8994.75391       1.61802328    
  -3.73950005E-02  -1.35827899     -0.303512007       534.178833       1.63095200    
  -3.75179984E-02  -1.36130500       0.00000000       534.178833       1.63095200    
  0.119788997      -1.35320199       0.00000000       534.178833       1.63095200    
  0.119547002      -1.35239303     -0.303498000       534.178833       1.63095200    
  0.119788997      -1.35320199       0.00000000       462.391693       1.63266814    
  0.276576012      -1.33565402       0.00000000       462.391693       1.63266814    
  0.275435001      -1.33191597     -0.303496003       462.391693       1.63266814    
  0.119547002      -1.35239303     -0.303498000       462.391693       1.63266814    
  0.275435001      -1.33191597     -0.303496003       9057.05664       1.61799300    
  0.427076995      -1.28898001     -0.303507000       9057.05664       1.61799300    
  0.427242011      -1.28995001     -0.606999993       9057.05664       1.61799300    
  0.275831014      -1.33588004     -0.606999993       9057.05664       1.61799300    
  0.275435001      -1.33191597     -0.303496003       9038.13477       1.61799943    
  0.275831014      -1.33588004     -0.606999993       9038.13477       1.61799943    
  0.119135000      -1.35326600     -0.606999993       9038.13477       1.61799943    
  0.119547002      -1.35239303     -0.303498000       9038.13477       1.61799943    
  0.275435001      -1.33191597     -0.303496003       486.124817       1.63206351    
  0.276576012      -1.33565402       0.00000000       486.124817       1.63206351    
  0.427509993      -1.28986895       0.00000000       486.124817       1.63206351    
  0.427076995      -1.28898001     -0.303507000       486.124817       1.63206351    
  0.427509993      -1.28986895       0.00000000       768.893066       1.62843645    
  0.574636996      -1.23315501       0.00000000       768.893066       1.62843645    
  0.573706985      -1.23136795     -0.303485990       768.893066       1.62843645    
  0.427076995      -1.28898001     -0.303507000       768.893066       1.62843645    
  0.573706985      -1.23136795     -0.303485990       9106.43652       1.61800122    
  0.712854981      -1.15688002     -0.303496987       9106.43652       1.61800122    
  0.713809013      -1.15876603     -0.606999993       9106.43652       1.61800122    
  0.574283004      -1.23334301     -0.606999993       9106.43652       1.61800122    
  0.573706985      -1.23136795     -0.303485990       9088.85547       1.61802483    
  0.574283004      -1.23334301     -0.606999993       9088.85547       1.61802483    
  0.427242011      -1.28995001     -0.606999993       9088.85547       1.61802483    
  0.427076995      -1.28898001     -0.303507000       9088.85547       1.61802483    
  0.573706985      -1.23136795     -0.303485990       890.675842       1.62757266    
  0.574636996      -1.23315501       0.00000000       890.675842       1.62757266    
  0.713741004      -1.15880203       0.00000000       890.675842       1.62757266    
  0.712854981      -1.15688002     -0.303496987       890.675842       1.62757266    
  0.713741004      -1.15880203       0.00000000       990.126526       1.62710667    
  0.841937006      -1.06636095       0.00000000       990.126526       1.62710667    
  0.841498017      -1.06573403     -0.303485990       990.126526       1.62710667    
  0.712854981      -1.15688002     -0.303496987       990.126526       1.62710667    
  0.841498017      -1.06573403     -0.303485990       9113.24316       1.61795342    
  0.960639000     -0.962104976     -0.303470999       9113.24316       1.61795342    
  0.964356005     -0.965893984     -0.606999993       9113.24316       1.61795342    
  0.841796994      -1.06647599     -0.606999993       9113.24316       1.61795342    
  0.841498017      -1.06573403     -0.303485990       9127.03027       1.61801946    
  0.841796994      -1.06647599     -0.606999993       9127.03027       1.61801946    
  0.713809013      -1.15876603     -0.606999993       9127.03027       1.61801946    
  0.712854981      -1.15688002     -0.303496987       9127.03027       1.61801946    
  0.841498017      -1.06573403     -0.303485990       723.209351       1.62896895    
  0.841937006      -1.06636095       0.00000000       723.209351       1.62896895    
  0.963932991     -0.966242015       0.00000000       723.209351       1.62896895    
  0.960639000     -0.962104976     -0.303470999       723.209351       1.62896895    
  0.963932991     -0.966242015       0.00000000       619.615662       1.63016641    
   1.06506598     -0.843514979       0.00000000       619.615662       1.63016641    
   1.06428695     -0.842682004     -0.303481996       619.615662       1.63016641    
  0.960639000     -0.962104976     -0.303470999       619.615662       1.63016641    
   1.06428695     -0.842682004     -0.303481996       9077.12598       1.61798739    
   1.15591598     -0.714210987     -0.303485006       9077.12598       1.61798739    
   1.15788805     -0.715448976     -0.606999993       9077.12598       1.61798739    
   1.06537795     -0.843134999     -0.606999993       9077.12598       1.61798739    
   1.06428695     -0.842682004     -0.303481996       9106.05078       1.61793101    
   1.06537795     -0.843134999     -0.606999993       9106.05078       1.61793101    
  0.964356005     -0.965893984     -0.606999993       9106.05078       1.61793101    
  0.960639000     -0.962104976     -0.303470999       9106.05078       1.61793101    
   1.06428695     -0.842682004     -0.303481996       654.240479       1.62985682    
   1.06506598     -0.843514979       0.00000000       654.240479       1.62985682    
   1.15792501     -0.715381980       0.00000000       654.240479       1.62985682    
   1.15591598     -0.714210987     -0.303485006       654.240479       1.62985682    
   1.15792501     -0.715381980       0.00000000       516.371765       1.63154364    
   1.23237598     -0.576093972       0.00000000       516.371765       1.63154364    
   1.23120904     -0.575251997     -0.303514004       516.371765       1.63154364    
   1.15591598     -0.714210987     -0.303485006       516.371765       1.63154364    
   1.23120904     -0.575251997     -0.303514004       9050.78125       1.61794221    
   1.28844094     -0.428344995     -0.303512990       9050.78125       1.61794221    
   1.28952503     -0.428642988     -0.606999993       9050.78125       1.61794221    
   1.23252702     -0.575810015     -0.606999993       9050.78125       1.61794221    
   1.23120904     -0.575251997     -0.303514004       9045.25391       1.61793804    
   1.23252702     -0.575810015     -0.606999993       9045.25391       1.61793804    
   1.15788805     -0.715448976     -0.606999993       9045.25391       1.61793804    
   1.15591598     -0.714210987     -0.303485006       9045.25391       1.61793804    
   1.23120904     -0.575251997     -0.303514004       576.082336       1.63129783    
   1.23237598     -0.576093972       0.00000000       576.082336       1.63129783    
   1.28947699     -0.428801000       0.00000000       576.082336       1.63129783    
   1.28844094     -0.428344995     -0.303512990       576.082336       1.63129783    
   1.28947699     -0.428801000       0.00000000       513.075562       1.63270032    
   1.33532202     -0.277671993       0.00000000       513.075562       1.63270032    
   1.33076501     -0.276203990     -0.303492010       513.075562       1.63270032    
   1.28844094     -0.428344995     -0.303512990       513.075562       1.63270032    
   1.33076501     -0.276203990     -0.303492010       9045.63574       1.61787760    
   1.35229194     -0.119709998     -0.303514004       9045.63574       1.61787760    
   1.35321999     -0.119608998     -0.606999993       9045.63574       1.61787760    
   1.33549094     -0.277112991     -0.606999993       9045.63574       1.61787760    
   1.33076501     -0.276203990     -0.303492010       9059.74316       1.61790287    
   1.33549094     -0.277112991     -0.606999993       9059.74316       1.61790287    
   1.28952503     -0.428642988     -0.606999993       9059.74316       1.61790287    
   1.28844094     -0.428344995     -0.303512990       9059.74316       1.61790287    
   1.33076501     -0.276203990     -0.303492010       559.073242       1.63129759    
   1.33532202     -0.277671993       0.00000000       559.073242       1.63129759    
   1.35319102     -0.119900003       0.00000000       559.073242       1.63129759    
   1.35229194     -0.119709998     -0.303514004       559.073242       1.63129759    
   1.35319102     -0.119900003       0.00000000       597.882629       1.63081670    
   1.36124396       3.81390005E-02   0.00000000       597.882629       1.63081670    
   1.35858905       3.79349999E-02 -0.303501010       597.882629       1.63081670    
   1.35229194     -0.119709998     -0.303514004       597.882629       1.63081670    
   1.35858905       3.79349999E-02 -0.303501010       9009.00977       1.61781645    
   1.34464097      0.195331007     -0.303496003       9009.00977       1.61781645    
   1.34573400      0.195616007     -0.606999993       9009.00977       1.61781645    
   1.36126804       3.78950015E-02 -0.606999993       9009.00977       1.61781645    
   1.35858905       3.79349999E-02 -0.303501010       9041.99121       1.61784518    
   1.36126804       3.78950015E-02 -0.606999993       9041.99121       1.61784518    
   1.35321999     -0.119608998     -0.606999993       9041.99121       1.61784518    
   1.35229194     -0.119709998     -0.303514004       9041.99121       1.61784518    
   1.35858905       3.79349999E-02 -0.303501010       465.143677       1.63313580    
   1.36124396       3.81390005E-02   0.00000000       465.143677       1.63313580    
   1.34575403      0.195406005       0.00000000       465.143677       1.63313580    
   1.34464097      0.195331007     -0.303496003       465.143677       1.63313580    
   1.34575403      0.195406005       0.00000000       453.551880       1.63317919    
   1.31339800      0.349945009       0.00000000       453.551880       1.63317919    
   1.31216300      0.349725991     -0.303487003       453.551880       1.63317919    
   1.34464097      0.195331007     -0.303496003       453.551880       1.63317919    
   1.31216300      0.349725991     -0.303487003       8988.16797       1.61777830    
   1.26341999      0.500032008     -0.303494006       8988.16797       1.61777830    
   1.26736605      0.501691997     -0.606999993       8988.16797       1.61777830    
   1.31333196      0.350163996     -0.606999993       8988.16797       1.61777830    
   1.31216300      0.349725991     -0.303487003       8998.49512       1.61782122    
   1.31333196      0.350163996     -0.606999993       8998.49512       1.61782122    
   1.34573400      0.195616007     -0.606999993       8998.49512       1.61782122    
   1.34464097      0.195331007     -0.303496003       8998.49512       1.61782122    
   1.31216300      0.349725991     -0.303487003       260.503998       1.64186931    
   1.31339800      0.349945009       0.00000000       260.503998       1.64186931    
   1.26751196      0.501209974       0.00000000       260.503998       1.64186931    
   1.26341999      0.500032008     -0.303494006       260.503998       1.64186931    
   1.26751196      0.501209974       0.00000000       333.097198       1.63765275    
   1.19658697      0.643051028       0.00000000       333.097198       1.63765275    
   1.19583094      0.642783999     -0.303505003       333.097198       1.63765275    
   1.26341999      0.500032008     -0.303494006       333.097198       1.63765275    
   1.19583094      0.642783999     -0.303505003       9010.25586       1.61781096    
   1.11495602      0.778467000     -0.303483993       9010.25586       1.61781096    
   1.11731696      0.779847026     -0.606999993       9010.25586       1.61781096    
   1.19653296      0.643149972     -0.606999993       9010.25586       1.61781096    
   1.19583094      0.642783999     -0.303505003       9001.76465       1.61778259    
   1.19653296      0.643149972     -0.606999993       9001.76465       1.61778259    
   1.26736605      0.501691997     -0.606999993       9001.76465       1.61778259    
   1.26341999      0.500032008     -0.303494006       9001.76465       1.61778259    
   1.19583094      0.642783999     -0.303505003       442.558533       1.63400006    
   1.19658697      0.643051028       0.00000000       442.558533       1.63400006    
   1.11705506      0.780165970       0.00000000       442.558533       1.63400006    
   1.11495602      0.778467000     -0.303483993       442.558533       1.63400006    
   1.11705506      0.780165970       0.00000000       513.882202       1.63216305    
   1.01674199      0.902397990       0.00000000       513.882202       1.63216305    
   1.01591504      0.901737988     -0.303478003       513.882202       1.63216305    
   1.11495602      0.778467000     -0.303483993       513.882202       1.63216305    
   1.01591504      0.901737988     -0.303478003       9067.40918       1.61787200    
  0.904204011       1.01322901     -0.303456992       9067.40918       1.61787200    
  0.905143023       1.01448905     -0.606999993       9067.40918       1.61787200    
   1.01659799      0.902572989     -0.606999993       9067.40918       1.61787200    
   1.01591504      0.901737988     -0.303478003       9033.47168       1.61782730    
   1.01659799      0.902572989     -0.606999993       9033.47168       1.61782730    
   1.11731696      0.779847026     -0.606999993       9033.47168       1.61782730    
   1.11495602      0.778467000     -0.303483993       9033.47168       1.61782730    
   1.01591504      0.901737988     -0.303478003       700.941284       1.62917960    
   1.01674199      0.902397990       0.00000000       700.941284       1.62917960    
  0.905318975       1.01434398       0.00000000       700.941284       1.62917960    
  0.904204011       1.01322901     -0.303456992       700.941284       1.62917960    
  0.905318975       1.01434398       0.00000000       615.761230       1.63019478    
  0.782918990       1.11479497       0.00000000       615.761230       1.63019478    
  0.780644000       1.11195600     -0.303485006       615.761230       1.63019478    
  0.904204011       1.01322901     -0.303456992       615.761230       1.63019478    
  0.780644000       1.11195600     -0.303485006       9085.80078       1.61787152    
  0.645825028       1.19414902     -0.303514004       9085.80078       1.61787152    
  0.646153986       1.19492805     -0.606999993       9085.80078       1.61787152    
  0.782611012       1.11504900     -0.606999993       9085.80078       1.61787152    
  0.780644000       1.11195600     -0.303485006       9079.36230       1.61785340    
  0.782611012       1.11504900     -0.606999993       9079.36230       1.61785340    
  0.905143023       1.01448905     -0.606999993       9079.36230       1.61785340    
  0.904204011       1.01322901     -0.303456992       9079.36230       1.61785340    
  0.780644000       1.11195600     -0.303485006       625.150635       1.62972629    
  0.782918990       1.11479497       0.00000000       625.150635       1.62972629    
  0.646345019       1.19482601       0.00000000       625.150635       1.62972629    
  0.645825028       1.19414902     -0.303514004       625.150635       1.62972629    
  0.646345019       1.19482601       0.00000000       546.395874       1.62999749    
  0.504974008       1.26637006       0.00000000       546.395874       1.62999749    
  0.503772974       1.26314998     -0.303521991       546.395874       1.62999749    
  0.645825028       1.19414902     -0.303514004       546.395874       1.62999749    
  0.503772974       1.26314998     -0.303521991       9051.05371       1.61784577    
  0.353130996       1.31116498     -0.303510994       9051.05371       1.61784577    
  0.353300005       1.31237996     -0.606999993       9051.05371       1.61784577    
  0.505183995       1.26630700     -0.606999993       9051.05371       1.61784577    
  0.503772974       1.26314998     -0.303521991       9066.58887       1.61785614    
  0.505183995       1.26630700     -0.606999993       9066.58887       1.61785614    
  0.646153986       1.19492805     -0.606999993       9066.58887       1.61785614    
  0.645825028       1.19414902     -0.303514004       9066.58887       1.61785614    
  0.503772974       1.26314998     -0.303521991       468.840179       1.63069463    
  0.504974008       1.26637006       0.00000000       468.840179       1.63069463    
  0.353493989       1.31232095       0.00000000       468.840179       1.63069463    
  0.353130996       1.31116498     -0.303510994       468.840179       1.63069463    
  0.353493989       1.31232095       0.00000000       536.503235       1.62887549    
  0.199064001       1.34539402       0.00000000       536.503235       1.62887549    
  0.198755994       1.34360003     -0.303496003       536.503235       1.62887549    
  0.353130996       1.31116498     -0.303510994       536.503235       1.62887549    
  0.198755994       1.34360003     -0.303496003       9030.60938       1.61784613    
   4.12769988E-02   1.35817802     -0.303508013       9030.60938       1.61784613    
   4.12410013E-02   1.36093795     -0.606999993       9030.60938       1.61784613    
  0.199025005       1.34539795     -0.606999993       9030.60938       1.61784613    
  0.198755994       1.34360003     -0.303496003       9044.86523       1.61788321    
  0.199025005       1.34539795     -0.606999993       9044.86523       1.61788321    
  0.353300005       1.31237996     -0.606999993       9044.86523       1.61788321    
  0.353130996       1.31116498     -0.303510994       9044.86523       1.61788321    
  0.198755994       1.34360003     -0.303496003       404.963165       1.63074994    
  0.199064001       1.34539402       0.00000000       404.963165       1.63074994    
   4.17769998E-02   1.36088502       0.00000000       404.963165       1.63074994    
   4.12769988E-02   1.35817802     -0.303508013       404.963165       1.63074994    
   4.17769998E-02   1.36088502       0.00000000       440.673096       1.62925446    
 -0.116410002       1.35353506       0.00000000       440.673096       1.62925446    
 -0.116471998       1.35271096     -0.303496987       440.673096       1.62925446    
   4.12769988E-02   1.35817802     -0.303508013       440.673096       1.62925446    
 -0.116471998       1.35271096     -0.303496987       9028.55957       1.61791956    
 -0.273027003       1.33229196     -0.303496003       9028.55957       1.61791956    
 -0.273876995       1.33647299     -0.606999993       9028.55957       1.61791956    
 -0.116722003       1.35350394     -0.606999993       9028.55957       1.61791956    
 -0.116471998       1.35271096     -0.303496987       9035.75879       1.61787248    
 -0.116722003       1.35350394     -0.606999993       9035.75879       1.61787248    
   4.12410013E-02   1.36093795     -0.606999993       9035.75879       1.61787248    
   4.12769988E-02   1.35817802     -0.303508013       9035.75879       1.61787248    
 -0.116471998       1.35271096     -0.303496987       313.418030       1.63142097    
 -0.116410002       1.35353506       0.00000000       313.418030       1.63142097    
 -0.274069011       1.33641505       0.00000000       313.418030       1.63142097    
 -0.273027003       1.33229196     -0.303496003       313.418030       1.63142097    
 -0.274069011       1.33641505       0.00000000       341.871643       1.63033056    
 -0.425588995       1.29045200       0.00000000       341.871643       1.63033056    
 -0.425258011       1.28953803     -0.303507000       341.871643       1.63033056    
 -0.273027003       1.33229196     -0.303496003       341.871643       1.63033056    
 -0.425258011       1.28953803     -0.303507000       9093.33398       1.61800730    
 -0.572302997       1.23206902     -0.303485990       9093.33398       1.61800730    
 -0.573064029       1.23399496     -0.606999993       9093.33398       1.61800730    
 -0.425651014       1.29043305     -0.606999993       9093.33398       1.61800730    
 -0.425258011       1.28953803     -0.303507000       9045.37305       1.61793613    
 -0.425651014       1.29043305     -0.606999993       9045.37305       1.61793613    
 -0.273876995       1.33647299     -0.606999993       9045.37305       1.61793613    
 -0.273027003       1.33229196     -0.303496003       9045.37305       1.61793613    
 -0.425258011       1.28953803     -0.303507000       659.065857       1.62686682    
 -0.425588995       1.29045200       0.00000000       659.065857       1.62686682    
 -0.573195994       1.23392498       0.00000000       659.065857       1.62686682    
 -0.572302997       1.23206902     -0.303485990       659.065857       1.62686682    
 -0.573195994       1.23392498       0.00000000       816.689697       1.62647986    
 -0.712655008       1.15938199       0.00000000       816.689697       1.62647986    
 -0.711889029       1.15749002     -0.303496003       816.689697       1.62647986    
 -0.572302997       1.23206902     -0.303485990       816.689697       1.62647986    
 -0.711889029       1.15749002     -0.303496003       9168.00781       1.61805725    
 -0.840825975       1.06629205     -0.303485990       9168.00781       1.61805725    
 -0.841368973       1.06682706     -0.606999993       9168.00781       1.61805725    
 -0.712980986       1.15920806     -0.606999993       9168.00781       1.61805725    
 -0.711889029       1.15749002     -0.303496003       9123.59668       1.61800420    
 -0.712980986       1.15920806     -0.606999993       9123.59668       1.61800420    
 -0.573064029       1.23399496     -0.606999993       9123.59668       1.61800420    
 -0.572302997       1.23206902     -0.303485990       9123.59668       1.61800420    
 -0.711889029       1.15749002     -0.303496003       1014.92975       1.62605119    
 -0.712655008       1.15938199       0.00000000       1014.92975       1.62605119    
 -0.841165006       1.06699395       0.00000000       1014.92975       1.62605119    
 -0.840825975       1.06629205     -0.303485990       1014.92975       1.62605119    
 -0.841165006       1.06699395       0.00000000       879.041016       1.62709832    
 -0.963320017      0.966744006       0.00000000       879.041016       1.62709832    
 -0.960084975      0.962615013     -0.303470999       879.041016       1.62709832    
 -0.840825975       1.06629205     -0.303485990       879.041016       1.62709832    
 -0.960084975      0.962615013     -0.303470999       9174.67188       1.61805487    
  -1.06383705      0.843237996     -0.303481996       9174.67188       1.61805487    
  -1.06481802      0.843816996     -0.606999993       9174.67188       1.61805487    
 -0.963873982      0.966289997     -0.606999993       9174.67188       1.61805487    
 -0.960084975      0.962615013     -0.303470999       9187.21875       1.61805582    
 -0.963873982      0.966289997     -0.606999993       9187.21875       1.61805582    
 -0.841368973       1.06682706     -0.606999993       9187.21875       1.61805582    
 -0.840825975       1.06629205     -0.303485990       9187.21875       1.61805582    
 -0.960084975      0.962615013     -0.303470999       793.960083       1.62811041    
 -0.963320017      0.966744006       0.00000000       793.960083       1.62811041    
  -1.06464398      0.844029009       0.00000000       793.960083       1.62811041    
  -1.06383705      0.843237996     -0.303481996       793.960083       1.62811041    
  -1.06464398      0.844029009       0.00000000       758.643066       1.62845945    
  -1.15769398      0.715813994       0.00000000       758.643066       1.62845945    
  -1.15564799      0.714680016     -0.303483993       758.643066       1.62845945    
  -1.06383705      0.843237996     -0.303481996       758.643066       1.62845945    
  -1.15564799      0.714680016     -0.303483993       9077.71191       1.61804855    
  -1.23108304      0.575536013     -0.303514004       9077.71191       1.61804855    
  -1.23232996      0.576179981     -0.606999993       9077.71191       1.61804855    
  -1.15756094      0.716063023     -0.606999993       9077.71191       1.61804855    
  -1.15564799      0.714680016     -0.303483993       9131.37305       1.61808693    
  -1.15756094      0.716063023     -0.606999993       9131.37305       1.61808693    
  -1.06481802      0.843816996     -0.606999993       9131.37305       1.61808693    
  -1.06383705      0.843237996     -0.303481996       9131.37305       1.61808693    
  -1.15564799      0.714680016     -0.303483993       572.364563       1.63029003    
  -1.15769398      0.715813994       0.00000000       572.364563       1.63029003    
  -1.23224795      0.576331973       0.00000000       572.364563       1.63029003    
  -1.23108304      0.575536013     -0.303514004       572.364563       1.63029003    
  -1.23224795      0.576331973       0.00000000       570.128418       1.63050318    
  -1.28948605      0.428772002       0.00000000       570.128418       1.63050318    
  -1.28842103      0.428404987     -0.303512990       570.128418       1.63050318    
  -1.23108304      0.575536013     -0.303514004       570.128418       1.63050318    
  -1.28842103      0.428404987     -0.303512990       8998.21289       1.61801732    
  -1.33082402      0.275959998     -0.303492010       8998.21289       1.61801732    
  -1.33550000      0.277083993     -0.606999993       8998.21289       1.61801732    