 VARIABLES="X" "Y" "Z" "abs(p) (Pa)" "angle(p) (rad)"
ZONE N=   2720,E =    2069, F=FEPOINT, ET=QUADRILATERAL
 -0.767116010      -1.12776399       0.00000000       17172.7012      -1.56489956    
 -0.769354999      -1.12002099     -0.303523988       17172.7012      -1.56489956    
 -0.896136999      -1.02028203     -0.303463012       17172.7012      -1.56489956    
 -0.894908011      -1.02288902       0.00000000       17172.7012      -1.56489956    
 -0.767116010      -1.12776399       0.00000000       18513.5098      -1.56488729    
 -0.630888999      -1.20308697       0.00000000       18513.5098      -1.56488729    
 -0.635528028      -1.19958198     -0.303541005       18513.5098      -1.56488729    
 -0.769354999      -1.12002099     -0.303523988       18513.5098      -1.56488729    
 -0.635528028      -1.19958198     -0.303541005       13922.6074      -1.56581569    
 -0.495362997      -1.26606500     -0.303519011       13922.6074      -1.56581569    
 -0.499298006      -1.26809204     -0.606999993       13922.6074      -1.56581569    
 -0.640147984      -1.19813800     -0.606998026       13922.6074      -1.56581569    
 -0.635528028      -1.19958198     -0.303541005       13085.8369      -1.56581259    
 -0.640147984      -1.19813800     -0.606998026       13085.8369      -1.56581259    
 -0.777105987      -1.11956596     -0.606999993       13085.8369      -1.56581259    
 -0.769354999      -1.12002099     -0.303523988       13085.8369      -1.56581259    
 -0.635528028      -1.19958198     -0.303541005       19571.3066      -1.56485367    
 -0.630888999      -1.20308697       0.00000000       19571.3066      -1.56485367    
 -0.494486004      -1.26955199       0.00000000       19571.3066      -1.56485367    
 -0.495362997      -1.26606500     -0.303519011       19571.3066      -1.56485367    
 -0.494486004      -1.26955199       0.00000000       20499.1836      -1.56484544    
 -0.346311986      -1.31449997       0.00000000       20499.1836      -1.56484544    
 -0.346753001      -1.31307304     -0.303510010       20499.1836      -1.56484544    
 -0.495362997      -1.26606500     -0.303519011       20499.1836      -1.56484544    
 -0.346753001      -1.31307304     -0.303510010       15033.1035      -1.56582797    
 -0.193608001      -1.34425998     -0.303494990       15033.1035      -1.56582797    
 -0.195028007      -1.34579206     -0.606999993       15033.1035      -1.56582797    
 -0.348751009      -1.31376004     -0.606999993       15033.1035      -1.56582797    
 -0.346753001      -1.31307304     -0.303510010       14562.1885      -1.56582177    
 -0.348751009      -1.31376004     -0.606999993       14562.1885      -1.56582177    
 -0.499298006      -1.26809204     -0.606999993       14562.1885      -1.56582177    
 -0.495362997      -1.26606500     -0.303519011       14562.1885      -1.56582177    
 -0.346753001      -1.31307304     -0.303510010       21278.4258      -1.56483746    
 -0.346311986      -1.31449997       0.00000000       21278.4258      -1.56483746    
 -0.193381995      -1.34595394       0.00000000       21278.4258      -1.56483746    
 -0.193608001      -1.34425998     -0.303494990       21278.4258      -1.56483746    
 -0.193381995      -1.34595394       0.00000000       21765.0879      -1.56484866    
  -3.75179984E-02  -1.36130500       0.00000000       21765.0879      -1.56484866    
  -3.73950005E-02  -1.35827899     -0.303512007       21765.0879      -1.56484866    
 -0.193608001      -1.34425998     -0.303494990       21765.0879      -1.56484866    
  -3.73950005E-02  -1.35827899     -0.303512007       15281.1611      -1.56582344    
  0.119547002      -1.35239303     -0.303498000       15281.1611      -1.56582344    
  0.119135000      -1.35326600     -0.606999993       15281.1611      -1.56582344    
  -3.82840000E-02  -1.36122894     -0.606998980       15281.1611      -1.56582344    
  -3.73950005E-02  -1.35827899     -0.303512007       15286.8662      -1.56583273    
  -3.82840000E-02  -1.36122894     -0.606998980       15286.8662      -1.56583273    
 -0.195028007      -1.34579206     -0.606999993       15286.8662      -1.56583273    
 -0.193608001      -1.34425998     -0.303494990       15286.8662      -1.56583273    
  -3.73950005E-02  -1.35827899     -0.303512007       21646.4219      -1.56485784    
  -3.75179984E-02  -1.36130500       0.00000000       21646.4219      -1.56485784    
  0.119788997      -1.35320199       0.00000000       21646.4219      -1.56485784    
  0.119547002      -1.35239303     -0.303498000       21646.4219      -1.56485784    
  0.119788997      -1.35320199       0.00000000       21211.9863      -1.56487358    
  0.276576012      -1.33565402       0.00000000       21211.9863      -1.56487358    
  0.275435001      -1.33191597     -0.303496003       21211.9863      -1.56487358    
  0.119547002      -1.35239303     -0.303498000       21211.9863      -1.56487358    
  0.275435001      -1.33191597     -0.303496003       14906.3350      -1.56587899    
  0.427076995      -1.28898001     -0.303507000       14906.3350      -1.56587899    
  0.427242011      -1.28995001     -0.606999993       14906.3350      -1.56587899    
  0.275831014      -1.33588004     -0.606999993       14906.3350      -1.56587899    
  0.275435001      -1.33191597     -0.303496003       15300.9746      -1.56588769    
  0.275831014      -1.33588004     -0.606999993       15300.9746      -1.56588769    
  0.119135000      -1.35326600     -0.606999993       15300.9746      -1.56588769    
  0.119547002      -1.35239303     -0.303498000       15300.9746      -1.56588769    
  0.275435001      -1.33191597     -0.303496003       20490.2832      -1.56490040    
  0.276576012      -1.33565402       0.00000000       20490.2832      -1.56490040    
  0.427509993      -1.28986895       0.00000000       20490.2832      -1.56490040    
  0.427076995      -1.28898001     -0.303507000       20490.2832      -1.56490040    
  0.427509993      -1.28986895       0.00000000       19497.8281      -1.56493616    
  0.574636996      -1.23315501       0.00000000       19497.8281      -1.56493616    
  0.573706985      -1.23136795     -0.303485990       19497.8281      -1.56493616    
  0.427076995      -1.28898001     -0.303507000       19497.8281      -1.56493616    
  0.573706985      -1.23136795     -0.303485990       13545.8447      -1.56585002    
  0.712854981      -1.15688002     -0.303496987       13545.8447      -1.56585002    
  0.713809013      -1.15876603     -0.606999993       13545.8447      -1.56585002    
  0.574283004      -1.23334301     -0.606999993       13545.8447      -1.56585002    
  0.573706985      -1.23136795     -0.303485990       14322.9014      -1.56586790    
  0.574283004      -1.23334301     -0.606999993       14322.9014      -1.56586790    
  0.427242011      -1.28995001     -0.606999993       14322.9014      -1.56586790    
  0.427076995      -1.28898001     -0.303507000       14322.9014      -1.56586790    
  0.573706985      -1.23136795     -0.303485990       18351.1719      -1.56494796    
  0.574636996      -1.23315501       0.00000000       18351.1719      -1.56494796    
  0.713741004      -1.15880203       0.00000000       18351.1719      -1.56494796    
  0.712854981      -1.15688002     -0.303496987       18351.1719      -1.56494796    
  0.713741004      -1.15880203       0.00000000       17098.6953      -1.56496203    
  0.841937006      -1.06636095       0.00000000       17098.6953      -1.56496203    
  0.841498017      -1.06573403     -0.303485990       17098.6953      -1.56496203    
  0.712854981      -1.15688002     -0.303496987       17098.6953      -1.56496203    
  0.841498017      -1.06573403     -0.303485990       11555.9082      -1.56586146    
  0.960639000     -0.962104976     -0.303470999       11555.9082      -1.56586146    
  0.964356005     -0.965893984     -0.606999993       11555.9082      -1.56586146    
  0.841796994      -1.06647599     -0.606999993       11555.9082      -1.56586146    
  0.841498017      -1.06573403     -0.303485990       12636.3438      -1.56584680    
  0.841796994      -1.06647599     -0.606999993       12636.3438      -1.56584680    
  0.713809013      -1.15876603     -0.606999993       12636.3438      -1.56584680    
  0.712854981      -1.15688002     -0.303496987       12636.3438      -1.56584680    
  0.841498017      -1.06573403     -0.303485990       15929.7930      -1.56499028    
  0.841937006      -1.06636095       0.00000000       15929.7930      -1.56499028    
  0.963932991     -0.966242015       0.00000000       15929.7930      -1.56499028    
  0.960639000     -0.962104976     -0.303470999       15929.7930      -1.56499028    
  0.963932991     -0.966242015       0.00000000       14376.0957      -1.56498158    
   1.06506598     -0.843514979       0.00000000       14376.0957      -1.56498158    
   1.06428695     -0.842682004     -0.303481996       14376.0957      -1.56498158    
  0.960639000     -0.962104976     -0.303470999       14376.0957      -1.56498158    
   1.06428695     -0.842682004     -0.303481996       9328.07422      -1.56616390    
   1.15591598     -0.714210987     -0.303485006       9328.07422      -1.56616390    
   1.15788805     -0.715448976     -0.606999993       9328.07422      -1.56616390    
   1.06537795     -0.843134999     -0.606999993       9328.07422      -1.56616390    
   1.06428695     -0.842682004     -0.303481996       10369.3115      -1.56589901    
   1.06537795     -0.843134999     -0.606999993       10369.3115      -1.56589901    
  0.964356005     -0.965893984     -0.606999993       10369.3115      -1.56589901    
  0.960639000     -0.962104976     -0.303470999       10369.3115      -1.56589901    
   1.06428695     -0.842682004     -0.303481996       12338.9189      -1.56496859    
   1.06506598     -0.843514979       0.00000000       12338.9189      -1.56496859    
   1.15792501     -0.715381980       0.00000000       12338.9189      -1.56496859    
   1.15591598     -0.714210987     -0.303485006       12338.9189      -1.56496859    
   1.15792501     -0.715381980       0.00000000       10313.9287      -1.56496620    
   1.23237598     -0.576093972       0.00000000       10313.9287      -1.56496620    
   1.23120904     -0.575251997     -0.303514004       10313.9287      -1.56496620    
   1.15591598     -0.714210987     -0.303485006       10313.9287      -1.56496620    
   1.23120904     -0.575251997     -0.303514004       6263.01465      -1.56645668    
   1.28844094     -0.428344995     -0.303512990       6263.01465      -1.56645668    
   1.28952503     -0.428642988     -0.606999993       6263.01465      -1.56645668    
   1.23252702     -0.575810015     -0.606999993       6263.01465      -1.56645668    
   1.23120904     -0.575251997     -0.303514004       7844.76221      -1.56628323    
   1.23252702     -0.575810015     -0.606999993       7844.76221      -1.56628323    
   1.15788805     -0.715448976     -0.606999993       7844.76221      -1.56628323    
   1.15591598     -0.714210987     -0.303485006       7844.76221      -1.56628323    
   1.23120904     -0.575251997     -0.303514004       8538.50098      -1.56530249    
   1.23237598     -0.576093972       0.00000000       8538.50098      -1.56530249    
   1.28947699     -0.428801000       0.00000000       8538.50098      -1.56530249    
   1.28844094     -0.428344995     -0.303512990       8538.50098      -1.56530249    
   1.28947699     -0.428801000       0.00000000       6105.67383      -1.56541848    
   1.33532202     -0.277671993       0.00000000       6105.67383      -1.56541848    
   1.33076501     -0.276203990     -0.303492010       6105.67383      -1.56541848    
   1.28844094     -0.428344995     -0.303512990       6105.67383      -1.56541848    
   1.33076501     -0.276203990     -0.303492010       3047.18604      -1.56733274    
   1.35229194     -0.119709998     -0.303514004       3047.18604      -1.56733274    
   1.35321999     -0.119608998     -0.606999993       3047.18604      -1.56733274    
   1.33549094     -0.277112991     -0.606999993       3047.18604      -1.56733274    
   1.33076501     -0.276203990     -0.303492010       4613.23633      -1.56675196    
   1.33549094     -0.277112991     -0.606999993       4613.23633      -1.56675196    
   1.28952503     -0.428642988     -0.606999993       4613.23633      -1.56675196    
   1.28844094     -0.428344995     -0.303512990       4613.23633      -1.56675196    
   1.33076501     -0.276203990     -0.303492010       3423.05054      -1.56539714    
   1.33532202     -0.277671993       0.00000000       3423.05054      -1.56539714    
   1.35319102     -0.119900003       0.00000000       3423.05054      -1.56539714    
   1.35229194     -0.119709998     -0.303514004       3423.05054      -1.56539714    
   1.35319102     -0.119900003       0.00000000       923.918823      -1.56810296    
   1.36124396       3.81390005E-02   0.00000000       923.918823      -1.56810296    
   1.35858905       3.79349999E-02 -0.303501010       923.918823      -1.56810296    
   1.35229194     -0.119709998     -0.303514004       923.918823      -1.56810296    
   1.35858905       3.79349999E-02 -0.303501010       767.347900       1.57893813    
   1.34464097      0.195331007     -0.303496003       767.347900       1.57893813    
   1.34573400      0.195616007     -0.606999993       767.347900       1.57893813    
   1.36126804       3.78950015E-02 -0.606999993       767.347900       1.57893813    
   1.35858905       3.79349999E-02 -0.303501010       932.307922      -1.56845546    
   1.36126804       3.78950015E-02 -0.606999993       932.307922      -1.56845546    
   1.35321999     -0.119608998     -0.606999993       932.307922      -1.56845546    
   1.35229194     -0.119709998     -0.303514004       932.307922      -1.56845546    
   1.35858905       3.79349999E-02 -0.303501010       1390.04651       1.58009398    
   1.36124396       3.81390005E-02   0.00000000       1390.04651       1.58009398    
   1.34575403      0.195406005       0.00000000       1390.04651       1.58009398    
   1.34464097      0.195331007     -0.303496003       1390.04651       1.58009398    
   1.34575403      0.195406005       0.00000000       3819.16309       1.57822824    
   1.31339800      0.349945009       0.00000000       3819.16309       1.57822824    
   1.31216300      0.349725991     -0.303487003       3819.16309       1.57822824    
   1.34464097      0.195331007     -0.303496003       3819.16309       1.57822824    
   1.31216300      0.349725991     -0.303487003       4310.37598       1.57628834    
   1.26341999      0.500032008     -0.303494006       4310.37598       1.57628834    
   1.26736605      0.501691997     -0.606999993       4310.37598       1.57628834    
   1.31333196      0.350163996     -0.606999993       4310.37598       1.57628834    
   1.31216300      0.349725991     -0.303487003       2485.93481       1.57676697    
   1.31333196      0.350163996     -0.606999993       2485.93481       1.57676697    
   1.34573400      0.195616007     -0.606999993       2485.93481       1.57676697    
   1.34464097      0.195331007     -0.303496003       2485.93481       1.57676697    
   1.31216300      0.349725991     -0.303487003       6203.63135       1.57780385    
   1.31339800      0.349945009       0.00000000       6203.63135       1.57780385    
   1.26751196      0.501209974       0.00000000       6203.63135       1.57780385    
   1.26341999      0.500032008     -0.303494006       6203.63135       1.57780385    
   1.26751196      0.501209974       0.00000000       8563.00977       1.57752597    
   1.19658697      0.643051028       0.00000000       8563.00977       1.57752597    
   1.19583094      0.642783999     -0.303505003       8563.00977       1.57752597    
   1.26341999      0.500032008     -0.303494006       8563.00977       1.57752597    
   1.19583094      0.642783999     -0.303505003       7514.98633       1.57618463    
   1.11495602      0.778467000     -0.303483993       7514.98633       1.57618463    
   1.11731696      0.779847026     -0.606999993       7514.98633       1.57618463    
   1.19653296      0.643149972     -0.606999993       7514.98633       1.57618463    
   1.19583094      0.642783999     -0.303505003       5893.99365       1.57624745    
   1.19653296      0.643149972     -0.606999993       5893.99365       1.57624745    
   1.26736605      0.501691997     -0.606999993       5893.99365       1.57624745    
   1.26341999      0.500032008     -0.303494006       5893.99365       1.57624745    
   1.19583094      0.642783999     -0.303505003       10682.0566       1.57740998    
   1.19658697      0.643051028       0.00000000       10682.0566       1.57740998    
   1.11705506      0.780165970       0.00000000       10682.0566       1.57740998    
   1.11495602      0.778467000     -0.303483993       10682.0566       1.57740998    
   1.11705506      0.780165970       0.00000000       12526.3604       1.57733417    
   1.01674199      0.902397990       0.00000000       12526.3604       1.57733417    
   1.01591504      0.901737988     -0.303478003       12526.3604       1.57733417    
   1.11495602      0.778467000     -0.303483993       12526.3604       1.57733417    
   1.01591504      0.901737988     -0.303478003       10258.9531       1.57621002    
  0.904204011       1.01322901     -0.303456992       10258.9531       1.57621002    
  0.905143023       1.01448905     -0.606999993       10258.9531       1.57621002    
   1.01659799      0.902572989     -0.606999993       10258.9531       1.57621002    
   1.01591504      0.901737988     -0.303478003       8989.30762       1.57618201    
   1.01659799      0.902572989     -0.606999993       8989.30762       1.57618201    
   1.11731696      0.779847026     -0.606999993       8989.30762       1.57618201    
   1.11495602      0.778467000     -0.303483993       8989.30762       1.57618201    
   1.01591504      0.901737988     -0.303478003       14194.3848       1.57728767    
   1.01674199      0.902397990       0.00000000       14194.3848       1.57728767    
  0.905318975       1.01434398       0.00000000       14194.3848       1.57728767    
  0.904204011       1.01322901     -0.303456992       14194.3848       1.57728767    
  0.905318975       1.01434398       0.00000000       15886.6729       1.57727158    
  0.782918990       1.11479497       0.00000000       15886.6729       1.57727158    
  0.780644000       1.11195600     -0.303485006       15886.6729       1.57727158    
  0.904204011       1.01322901     -0.303456992       15886.6729       1.57727158    
  0.780644000       1.11195600     -0.303485006       12337.9697       1.57622743    
  0.645825028       1.19414902     -0.303514004       12337.9697       1.57622743    
  0.646153986       1.19492805     -0.606999993       12337.9697       1.57622743    
  0.782611012       1.11504900     -0.606999993       12337.9697       1.57622743    
  0.780644000       1.11195600     -0.303485006       11377.7051       1.57622719    
  0.782611012       1.11504900     -0.606999993       11377.7051       1.57622719    
  0.905143023       1.01448905     -0.606999993       11377.7051       1.57622719    
  0.904204011       1.01322901     -0.303456992       11377.7051       1.57622719    
  0.780644000       1.11195600     -0.303485006       17179.3008       1.57730842    
  0.782918990       1.11479497       0.00000000       17179.3008       1.57730842    
  0.646345019       1.19482601       0.00000000       17179.3008       1.57730842    
  0.645825028       1.19414902     -0.303514004       17179.3008       1.57730842    
  0.646345019       1.19482601       0.00000000       18338.0234       1.57737195    
  0.504974008       1.26637006       0.00000000       18338.0234       1.57737195    
  0.503772974       1.26314998     -0.303521991       18338.0234       1.57737195    
  0.645825028       1.19414902     -0.303514004       18338.0234       1.57737195    
  0.503772974       1.26314998     -0.303521991       13846.8330       1.57618463    
  0.353130996       1.31116498     -0.303510994       13846.8330       1.57618463    
  0.353300005       1.31237996     -0.606999993       13846.8330       1.57618463    
  0.505183995       1.26630700     -0.606999993       13846.8330       1.57618463    
  0.503772974       1.26314998     -0.303521991       13182.6729       1.57621098    
  0.505183995       1.26630700     -0.606999993       13182.6729       1.57621098    
  0.646153986       1.19492805     -0.606999993       13182.6729       1.57621098    
  0.645825028       1.19414902     -0.303514004       13182.6729       1.57621098    
  0.503772974       1.26314998     -0.303521991       19230.2129       1.57738936    
  0.504974008       1.26637006       0.00000000       19230.2129       1.57738936    
  0.353493989       1.31232095       0.00000000       19230.2129       1.57738936    
  0.353130996       1.31116498     -0.303510994       19230.2129       1.57738936    
  0.353493989       1.31232095       0.00000000       19910.7500       1.57739294    
  0.199064001       1.34539402       0.00000000       19910.7500       1.57739294    
  0.198755994       1.34360003     -0.303496003       19910.7500       1.57739294    
  0.353130996       1.31116498     -0.303510994       19910.7500       1.57739294    
  0.198755994       1.34360003     -0.303496003       14545.6172       1.57620239    
   4.12769988E-02   1.35817802     -0.303508013       14545.6172       1.57620239    
   4.12410013E-02   1.36093795     -0.606999993       14545.6172       1.57620239    
  0.199025005       1.34539795     -0.606999993       14545.6172       1.57620239    
  0.198755994       1.34360003     -0.303496003       14337.8223       1.57617152    
  0.199025005       1.34539795     -0.606999993       14337.8223       1.57617152    
  0.353300005       1.31237996     -0.606999993       14337.8223       1.57617152    
  0.353130996       1.31116498     -0.303510994       14337.8223       1.57617152    
  0.198755994       1.34360003     -0.303496003       20398.6289       1.57740545    
  0.199064001       1.34539402       0.00000000       20398.6289       1.57740545    
   4.17769998E-02   1.36088502       0.00000000       20398.6289       1.57740545    
   4.12769988E-02   1.35817802     -0.303508013       20398.6289       1.57740545    
   4.17769998E-02   1.36088502       0.00000000       20778.8730       1.57736802    
 -0.116410002       1.35353506       0.00000000       20778.8730       1.57736802    
 -0.116471998       1.35271096     -0.303496987       20778.8730       1.57736802    
   4.12769988E-02   1.35817802     -0.303508013       20778.8730       1.57736802    
 -0.116471998       1.35271096     -0.303496987       14719.8184       1.57612145    
 -0.273027003       1.33229196     -0.303496003       14719.8184       1.57612145    
 -0.273876995       1.33647299     -0.606999993       14719.8184       1.57612145    
 -0.116722003       1.35350394     -0.606999993       14719.8184       1.57612145    
 -0.116471998       1.35271096     -0.303496987       14657.0381       1.57619071    
 -0.116722003       1.35350394     -0.606999993       14657.0381       1.57619071    
   4.12410013E-02   1.36093795     -0.606999993       14657.0381       1.57619071    
   4.12769988E-02   1.35817802     -0.303508013       14657.0381       1.57619071    
 -0.116471998       1.35271096     -0.303496987       20848.4121       1.57734191    
 -0.116410002       1.35353506       0.00000000       20848.4121       1.57734191    
 -0.274069011       1.33641505       0.00000000       20848.4121       1.57734191    
 -0.273027003       1.33229196     -0.303496003       20848.4121       1.57734191    
 -0.274069011       1.33641505       0.00000000       20372.1621       1.57728672    
 -0.425588995       1.29045200       0.00000000       20372.1621       1.57728672    
 -0.425258011       1.28953803     -0.303507000       20372.1621       1.57728672    
 -0.273027003       1.33229196     -0.303496003       20372.1621       1.57728672    
 -0.425258011       1.28953803     -0.303507000       13859.3105       1.57607186    
 -0.572302997       1.23206902     -0.303485990       13859.3105       1.57607186    
 -0.573064029       1.23399496     -0.606999993       13859.3105       1.57607186    
 -0.425651014       1.29043305     -0.606999993       13859.3105       1.57607186    
 -0.425258011       1.28953803     -0.303507000       14403.4297       1.57610273    
 -0.425651014       1.29043305     -0.606999993       14403.4297       1.57610273    
 -0.273876995       1.33647299     -0.606999993       14403.4297       1.57610273    
 -0.273027003       1.33229196     -0.303496003       14403.4297       1.57610273    
 -0.425258011       1.28953803     -0.303507000       19335.0156       1.57721126    
 -0.425588995       1.29045200       0.00000000       19335.0156       1.57721126    
 -0.573195994       1.23392498       0.00000000       19335.0156       1.57721126    
 -0.572302997       1.23206902     -0.303485990       19335.0156       1.57721126    
 -0.573195994       1.23392498       0.00000000       18072.2656       1.57715487    
 -0.712655008       1.15938199       0.00000000       18072.2656       1.57715487    
 -0.711889029       1.15749002     -0.303496003       18072.2656       1.57715487    
 -0.572302997       1.23206902     -0.303485990       18072.2656       1.57715487    
 -0.711889029       1.15749002     -0.303496003       12182.8418       1.57598579    
 -0.840825975       1.06629205     -0.303485990       12182.8418       1.57598579    
 -0.841368973       1.06682706     -0.606999993       12182.8418       1.57598579    
 -0.712980986       1.15920806     -0.606999993       12182.8418       1.57598579    
 -0.711889029       1.15749002     -0.303496003       13097.9424       1.57603788    
 -0.712980986       1.15920806     -0.606999993       13097.9424       1.57603788    
 -0.573064029       1.23399496     -0.606999993       13097.9424       1.57603788    
 -0.572302997       1.23206902     -0.303485990       13097.9424       1.57603788    
 -0.711889029       1.15749002     -0.303496003       16574.3711       1.57707405    
 -0.712655008       1.15938199       0.00000000       16574.3711       1.57707405    
 -0.841165006       1.06699395       0.00000000       16574.3711       1.57707405    
 -0.840825975       1.06629205     -0.303485990       16574.3711       1.57707405    
 -0.841165006       1.06699395       0.00000000       15030.7617       1.57701075    
 -0.963320017      0.966744006       0.00000000       15030.7617       1.57701075    
 -0.960084975      0.962615013     -0.303470999       15030.7617       1.57701075    
 -0.840825975       1.06629205     -0.303485990       15030.7617       1.57701075    
 -0.960084975      0.962615013     -0.303470999       9868.91992       1.57586777    
  -1.06383705      0.843237996     -0.303481996       9868.91992       1.57586777    
  -1.06481802      0.843816996     -0.606999993       9868.91992       1.57586777    
 -0.963873982      0.966289997     -0.606999993       9868.91992       1.57586777    
 -0.960084975      0.962615013     -0.303470999       11070.8350       1.57592821    
 -0.963873982      0.966289997     -0.606999993       11070.8350       1.57592821    
 -0.841368973       1.06682706     -0.606999993       11070.8350       1.57592821    
 -0.840825975       1.06629205     -0.303485990       11070.8350       1.57592821    
 -0.960084975      0.962615013     -0.303470999       13449.8398       1.57696438    
 -0.963320017      0.966744006       0.00000000       13449.8398       1.57696438    
  -1.06464398      0.844029009       0.00000000       13449.8398       1.57696438    
  -1.06383705      0.843237996     -0.303481996       13449.8398       1.57696438    
  -1.06464398      0.844029009       0.00000000       11581.5889       1.57694602    
  -1.15769398      0.715813994       0.00000000       11581.5889       1.57694602    
  -1.15564799      0.714680016     -0.303483993       11581.5889       1.57694602    
  -1.06383705      0.843237996     -0.303481996       11581.5889       1.57694602    
  -1.15564799      0.714680016     -0.303483993       7118.75342       1.57564092    
  -1.23108304      0.575536013     -0.303514004       7118.75342       1.57564092    
  -1.23232996      0.576179981     -0.606999993       7118.75342       1.57564092    
  -1.15756094      0.716063023     -0.606999993       7118.75342       1.57564092    
  -1.15564799      0.714680016     -0.303483993       8537.72363       1.57577133    
  -1.15756094      0.716063023     -0.606999993       8537.72363       1.57577133    
  -1.06481802      0.843816996     -0.606999993       8537.72363       1.57577133    
  -1.06383705      0.843237996     -0.303481996       8537.72363       1.57577133    
  -1.15564799      0.714680016     -0.303483993       9708.91406       1.57694542    
  -1.15769398      0.715813994       0.00000000       9708.91406       1.57694542    
  -1.23224795      0.576331973       0.00000000       9708.91406       1.57694542    
  -1.23108304      0.575536013     -0.303514004       9708.91406       1.57694542    
  -1.23224795      0.576331973       0.00000000       7600.24023       1.57692266    
  -1.28948605      0.428772002       0.00000000       7600.24023       1.57692266    
  -1.28842103      0.428404987     -0.303512990       7600.24023       1.57692266    
  -1.23108304      0.575536013     -0.303514004       7600.24023       1.57692266    
  -1.28842103      0.428404987     -0.303512990       3813.23828       1.57534802    
  -1.33082402      0.275959998     -0.303492010       3813.23828       1.57534802    
  -1.33550000      0.277083993     -0.606999993       3813.23828       1.57534802    