 VARIABLES="X" "Y" "Z" "abs(p) (Pa)" "angle(p) (rad)"
ZONE N=   2720,E =    2069, F=FEPOINT, ET=QUADRILATERAL
 -0.767116010      -1.12776399       0.00000000       1385.67505      -1.60398030    
 -0.769354999      -1.12002099     -0.303523988       1385.67505      -1.60398030    
 -0.896136999      -1.02028203     -0.303463012       1385.67505      -1.60398030    
 -0.894908011      -1.02288902       0.00000000       1385.67505      -1.60398030    
 -0.767116010      -1.12776399       0.00000000       1164.03540      -1.60426986    
 -0.630888999      -1.20308697       0.00000000       1164.03540      -1.60426986    
 -0.635528028      -1.19958198     -0.303541005       1164.03540      -1.60426986    
 -0.769354999      -1.12002099     -0.303523988       1164.03540      -1.60426986    
 -0.635528028      -1.19958198     -0.303541005       725.364502      -1.61531496    
 -0.495362997      -1.26606500     -0.303519011       725.364502      -1.61531496    
 -0.499298006      -1.26809204     -0.606999993       725.364502      -1.61531496    
 -0.640147984      -1.19813800     -0.606998026       725.364502      -1.61531496    
 -0.635528028      -1.19958198     -0.303541005       898.119202      -1.61564839    
 -0.640147984      -1.19813800     -0.606998026       898.119202      -1.61564839    
 -0.777105987      -1.11956596     -0.606999993       898.119202      -1.61564839    
 -0.769354999      -1.12002099     -0.303523988       898.119202      -1.61564839    
 -0.635528028      -1.19958198     -0.303541005       939.545776      -1.60337758    
 -0.630888999      -1.20308697       0.00000000       939.545776      -1.60337758    
 -0.494486004      -1.26955199       0.00000000       939.545776      -1.60337758    
 -0.495362997      -1.26606500     -0.303519011       939.545776      -1.60337758    
 -0.494486004      -1.26955199       0.00000000       697.877869      -1.60368800    
 -0.346311986      -1.31449997       0.00000000       697.877869      -1.60368800    
 -0.346753001      -1.31307304     -0.303510010       697.877869      -1.60368800    
 -0.495362997      -1.26606500     -0.303519011       697.877869      -1.60368800    
 -0.346753001      -1.31307304     -0.303510010       346.065521      -1.61543131    
 -0.193608001      -1.34425998     -0.303494990       346.065521      -1.61543131    
 -0.195028007      -1.34579206     -0.606999993       346.065521      -1.61543131    
 -0.348751009      -1.31376004     -0.606999993       346.065521      -1.61543131    
 -0.346753001      -1.31307304     -0.303510010       536.938354      -1.61577415    
 -0.348751009      -1.31376004     -0.606999993       536.938354      -1.61577415    
 -0.499298006      -1.26809204     -0.606999993       536.938354      -1.61577415    
 -0.495362997      -1.26606500     -0.303519011       536.938354      -1.61577415    
 -0.346753001      -1.31307304     -0.303510010       449.234619      -1.60356021    
 -0.346311986      -1.31449997       0.00000000       449.234619      -1.60356021    
 -0.193381995      -1.34595394       0.00000000       449.234619      -1.60356021    
 -0.193608001      -1.34425998     -0.303494990       449.234619      -1.60356021    
 -0.193381995      -1.34595394       0.00000000       192.703400      -1.60728407    
  -3.75179984E-02  -1.36130500       0.00000000       192.703400      -1.60728407    
  -3.73950005E-02  -1.35827899     -0.303512007       192.703400      -1.60728407    
 -0.193608001      -1.34425998     -0.303494990       192.703400      -1.60728407    
  -3.73950005E-02  -1.35827899     -0.303512007       52.5021706       1.52589417    
  0.119547002      -1.35239303     -0.303498000       52.5021706       1.52589417    
  0.119135000      -1.35326600     -0.606999993       52.5021706       1.52589417    
  -3.82840000E-02  -1.36122894     -0.606998980       52.5021706       1.52589417    
  -3.73950005E-02  -1.35827899     -0.303512007       149.401642      -1.61416972    
  -3.82840000E-02  -1.36122894     -0.606998980       149.401642      -1.61416972    
 -0.195028007      -1.34579206     -0.606999993       149.401642      -1.61416972    
 -0.193608001      -1.34425998     -0.303494990       149.401642      -1.61416972    
  -3.73950005E-02  -1.35827899     -0.303512007       68.4177704       1.55057061    
  -3.75179984E-02  -1.36130500       0.00000000       68.4177704       1.55057061    
  0.119788997      -1.35320199       0.00000000       68.4177704       1.55057061    
  0.119547002      -1.35239303     -0.303498000       68.4177704       1.55057061    
  0.119788997      -1.35320199       0.00000000       324.901581       1.53960657    
  0.276576012      -1.33565402       0.00000000       324.901581       1.53960657    
  0.275435001      -1.33191597     -0.303496003       324.901581       1.53960657    
  0.119547002      -1.35239303     -0.303498000       324.901581       1.53960657    
  0.275435001      -1.33191597     -0.303496003       450.114044       1.52736819    
  0.427076995      -1.28898001     -0.303507000       450.114044       1.52736819    
  0.427242011      -1.28995001     -0.606999993       450.114044       1.52736819    
  0.275831014      -1.33588004     -0.606999993       450.114044       1.52736819    
  0.275435001      -1.33191597     -0.303496003       248.697937       1.52667844    
  0.275831014      -1.33588004     -0.606999993       248.697937       1.52667844    
  0.119135000      -1.35326600     -0.606999993       248.697937       1.52667844    
  0.119547002      -1.35239303     -0.303498000       248.697937       1.52667844    
  0.275435001      -1.33191597     -0.303496003       584.310974       1.53950989    
  0.276576012      -1.33565402       0.00000000       584.310974       1.53950989    
  0.427509993      -1.28986895       0.00000000       584.310974       1.53950989    
  0.427076995      -1.28898001     -0.303507000       584.310974       1.53950989    
  0.427509993      -1.28986895       0.00000000       830.173035       1.53913307    
  0.574636996      -1.23315501       0.00000000       830.173035       1.53913307    
  0.573706985      -1.23136795     -0.303485990       830.173035       1.53913307    
  0.427076995      -1.28898001     -0.303507000       830.173035       1.53913307    
  0.573706985      -1.23136795     -0.303485990       819.834473       1.52651167    
  0.712854981      -1.15688002     -0.303496987       819.834473       1.52651167    
  0.713809013      -1.15876603     -0.606999993       819.834473       1.52651167    
  0.574283004      -1.23334301     -0.606999993       819.834473       1.52651167    
  0.573706985      -1.23136795     -0.303485990       637.911072       1.52667224    
  0.574283004      -1.23334301     -0.606999993       637.911072       1.52667224    
  0.427242011      -1.28995001     -0.606999993       637.911072       1.52667224    
  0.427076995      -1.28898001     -0.303507000       637.911072       1.52667224    
  0.573706985      -1.23136795     -0.303485990       1068.72473       1.53898323    
  0.574636996      -1.23315501       0.00000000       1068.72473       1.53898323    
  0.713741004      -1.15880203       0.00000000       1068.72473       1.53898323    
  0.712854981      -1.15688002     -0.303496987       1068.72473       1.53898323    
  0.713741004      -1.15880203       0.00000000       1292.10925       1.53889179    
  0.841937006      -1.06636095       0.00000000       1292.10925       1.53889179    
  0.841498017      -1.06573403     -0.303485990       1292.10925       1.53889179    
  0.712854981      -1.15688002     -0.303496987       1292.10925       1.53889179    
  0.841498017      -1.06573403     -0.303485990       1145.32288       1.52622354    
  0.960639000     -0.962104976     -0.303470999       1145.32288       1.52622354    
  0.964356005     -0.965893984     -0.606999993       1145.32288       1.52622354    
  0.841796994      -1.06647599     -0.606999993       1145.32288       1.52622354    
  0.841498017      -1.06573403     -0.303485990       991.782043       1.52663219    
  0.841796994      -1.06647599     -0.606999993       991.782043       1.52663219    
  0.713809013      -1.15876603     -0.606999993       991.782043       1.52663219    
  0.712854981      -1.15688002     -0.303496987       991.782043       1.52663219    
  0.841498017      -1.06573403     -0.303485990       1494.65564       1.53835511    
  0.841937006      -1.06636095       0.00000000       1494.65564       1.53835511    
  0.963932991     -0.966242015       0.00000000       1494.65564       1.53835511    
  0.960639000     -0.962104976     -0.303470999       1494.65564       1.53835511    
  0.963932991     -0.966242015       0.00000000       1681.93384       1.53843582    
   1.06506598     -0.843514979       0.00000000       1681.93384       1.53843582    
   1.06428695     -0.842682004     -0.303481996       1681.93384       1.53843582    
  0.960639000     -0.962104976     -0.303470999       1681.93384       1.53843582    
   1.06428695     -0.842682004     -0.303481996       1414.84668       1.52603090    
   1.15591598     -0.714210987     -0.303485006       1414.84668       1.52603090    
   1.15788805     -0.715448976     -0.606999993       1414.84668       1.52603090    
   1.06537795     -0.843134999     -0.606999993       1414.84668       1.52603090    
   1.06428695     -0.842682004     -0.303481996       1290.98804       1.52641511    
   1.06537795     -0.843134999     -0.606999993       1290.98804       1.52641511    
  0.964356005     -0.965893984     -0.606999993       1290.98804       1.52641511    
  0.960639000     -0.962104976     -0.303470999       1290.98804       1.52641511    
   1.06428695     -0.842682004     -0.303481996       1839.04016       1.53833270    
   1.06506598     -0.843514979       0.00000000       1839.04016       1.53833270    
   1.15792501     -0.715381980       0.00000000       1839.04016       1.53833270    
   1.15591598     -0.714210987     -0.303485006       1839.04016       1.53833270    
   1.15792501     -0.715381980       0.00000000       1977.02161       1.53821278    
   1.23237598     -0.576093972       0.00000000       1977.02161       1.53821278    
   1.23120904     -0.575251997     -0.303514004       1977.02161       1.53821278    
   1.15591598     -0.714210987     -0.303485006       1977.02161       1.53821278    
   1.23120904     -0.575251997     -0.303514004       1607.15356       1.52606142    
   1.28844094     -0.428344995     -0.303512990       1607.15356       1.52606142    
   1.28952503     -0.428642988     -0.606999993       1607.15356       1.52606142    
   1.23252702     -0.575810015     -0.606999993       1607.15356       1.52606142    
   1.23120904     -0.575251997     -0.303514004       1521.13184       1.52601492    
   1.23252702     -0.575810015     -0.606999993       1521.13184       1.52601492    
   1.15788805     -0.715448976     -0.606999993       1521.13184       1.52601492    
   1.15591598     -0.714210987     -0.303485006       1521.13184       1.52601492    
   1.23120904     -0.575251997     -0.303514004       2089.46338       1.53797066    
   1.23237598     -0.576093972       0.00000000       2089.46338       1.53797066    
   1.28947699     -0.428801000       0.00000000       2089.46338       1.53797066    
   1.28844094     -0.428344995     -0.303512990       2089.46338       1.53797066    
   1.28947699     -0.428801000       0.00000000       2177.67896       1.53814101    
   1.33532202     -0.277671993       0.00000000       2177.67896       1.53814101    
   1.33076501     -0.276203990     -0.303492010       2177.67896       1.53814101    
   1.28844094     -0.428344995     -0.303512990       2177.67896       1.53814101    
   1.33076501     -0.276203990     -0.303492010       1712.13232       1.52563810    
   1.35229194     -0.119709998     -0.303514004       1712.13232       1.52563810    
   1.35321999     -0.119608998     -0.606999993       1712.13232       1.52563810    
   1.33549094     -0.277112991     -0.606999993       1712.13232       1.52563810    
   1.33076501     -0.276203990     -0.303492010       1670.27356       1.52598310    
   1.33549094     -0.277112991     -0.606999993       1670.27356       1.52598310    
   1.28952503     -0.428642988     -0.606999993       1670.27356       1.52598310    
   1.28844094     -0.428344995     -0.303512990       1670.27356       1.52598310    
   1.33076501     -0.276203990     -0.303492010       2233.66528       1.53841460    
   1.33532202     -0.277671993       0.00000000       2233.66528       1.53841460    
   1.35319102     -0.119900003       0.00000000       2233.66528       1.53841460    
   1.35229194     -0.119709998     -0.303514004       2233.66528       1.53841460    
   1.35319102     -0.119900003       0.00000000       2255.64331       1.53838825    
   1.36124396       3.81390005E-02   0.00000000       2255.64331       1.53838825    
   1.35858905       3.79349999E-02 -0.303501010       2255.64331       1.53838825    
   1.35229194     -0.119709998     -0.303514004       2255.64331       1.53838825    
   1.35858905       3.79349999E-02 -0.303501010       1724.52881       1.52588248    
   1.34464097      0.195331007     -0.303496003       1724.52881       1.52588248    
   1.34573400      0.195616007     -0.606999993       1724.52881       1.52588248    
   1.36126804       3.78950015E-02 -0.606999993       1724.52881       1.52588248    
   1.35858905       3.79349999E-02 -0.303501010       1730.21191       1.52591228    
   1.36126804       3.78950015E-02 -0.606999993       1730.21191       1.52591228    
   1.35321999     -0.119608998     -0.606999993       1730.21191       1.52591228    
   1.35229194     -0.119709998     -0.303514004       1730.21191       1.52591228    
   1.35858905       3.79349999E-02 -0.303501010       2248.35083       1.53804779    
   1.36124396       3.81390005E-02   0.00000000       2248.35083       1.53804779    
   1.34575403      0.195406005       0.00000000       2248.35083       1.53804779    
   1.34464097      0.195331007     -0.303496003       2248.35083       1.53804779    
   1.34575403      0.195406005       0.00000000       2209.00293       1.53801847    
   1.31339800      0.349945009       0.00000000       2209.00293       1.53801847    
   1.31216300      0.349725991     -0.303487003       2209.00293       1.53801847    
   1.34464097      0.195331007     -0.303496003       2209.00293       1.53801847    
   1.31216300      0.349725991     -0.303487003       1642.24158       1.52604103    
   1.26341999      0.500032008     -0.303494006       1642.24158       1.52604103    
   1.26736605      0.501691997     -0.606999993       1642.24158       1.52604103    
   1.31333196      0.350163996     -0.606999993       1642.24158       1.52604103    
   1.31216300      0.349725991     -0.303487003       1695.31445       1.52590919    
   1.31333196      0.350163996     -0.606999993       1695.31445       1.52590919    
   1.34573400      0.195616007     -0.606999993       1695.31445       1.52590919    
   1.34464097      0.195331007     -0.303496003       1695.31445       1.52590919    
   1.31216300      0.349725991     -0.303487003       2140.61328       1.53793788    
   1.31339800      0.349945009       0.00000000       2140.61328       1.53793788    
   1.26751196      0.501209974       0.00000000       2140.61328       1.53793788    
   1.26341999      0.500032008     -0.303494006       2140.61328       1.53793788    
   1.26751196      0.501209974       0.00000000       2045.52881       1.53831446    
   1.19658697      0.643051028       0.00000000       2045.52881       1.53831446    
   1.19583094      0.642783999     -0.303505003       2045.52881       1.53831446    
   1.26341999      0.500032008     -0.303494006       2045.52881       1.53831446    
   1.19583094      0.642783999     -0.303505003       1473.89893       1.52569354    
   1.11495602      0.778467000     -0.303483993       1473.89893       1.52569354    
   1.11731696      0.779847026     -0.606999993       1473.89893       1.52569354    
   1.19653296      0.643149972     -0.606999993       1473.89893       1.52569354    
   1.19583094      0.642783999     -0.303505003       1567.00720       1.52602065    
   1.19653296      0.643149972     -0.606999993       1567.00720       1.52602065    
   1.26736605      0.501691997     -0.606999993       1567.00720       1.52602065    
   1.26341999      0.500032008     -0.303494006       1567.00720       1.52602065    
   1.19583094      0.642783999     -0.303505003       1923.02539       1.53854096    
   1.19658697      0.643051028       0.00000000       1923.02539       1.53854096    
   1.11705506      0.780165970       0.00000000       1923.02539       1.53854096    
   1.11495602      0.778467000     -0.303483993       1923.02539       1.53854096    
   1.11705506      0.780165970       0.00000000       1769.70398       1.53858244    
   1.01674199      0.902397990       0.00000000       1769.70398       1.53858244    
   1.01591504      0.901737988     -0.303478003       1769.70398       1.53858244    
   1.11495602      0.778467000     -0.303483993       1769.70398       1.53858244    
   1.01591504      0.901737988     -0.303478003       1223.52075       1.52613378    
  0.904204011       1.01322901     -0.303456992       1223.52075       1.52613378    
  0.905143023       1.01448905     -0.606999993       1223.52075       1.52613378    
   1.01659799      0.902572989     -0.606999993       1223.52075       1.52613378    
   1.01591504      0.901737988     -0.303478003       1356.38721       1.52599692    
   1.01659799      0.902572989     -0.606999993       1356.38721       1.52599692    
   1.11731696      0.779847026     -0.606999993       1356.38721       1.52599692    
   1.11495602      0.778467000     -0.303483993       1356.38721       1.52599692    
   1.01591504      0.901737988     -0.303478003       1593.36194       1.53872871    
   1.01674199      0.902397990       0.00000000       1593.36194       1.53872871    
  0.905318975       1.01434398       0.00000000       1593.36194       1.53872871    
  0.904204011       1.01322901     -0.303456992       1593.36194       1.53872871    
  0.905318975       1.01434398       0.00000000       1399.64600       1.53833580    
  0.782918990       1.11479497       0.00000000       1399.64600       1.53833580    
  0.780644000       1.11195600     -0.303485006       1399.64600       1.53833580    
  0.904204011       1.01322901     -0.303456992       1399.64600       1.53833580    
  0.780644000       1.11195600     -0.303485006       907.234131       1.52608895    
  0.645825028       1.19414902     -0.303514004       907.234131       1.52608895    
  0.646153986       1.19492805     -0.606999993       907.234131       1.52608895    
  0.782611012       1.11504900     -0.606999993       907.234131       1.52608895    
  0.780644000       1.11195600     -0.303485006       1073.94604       1.52620339    
  0.782611012       1.11504900     -0.606999993       1073.94604       1.52620339    
  0.905143023       1.01448905     -0.606999993       1073.94604       1.52620339    
  0.904204011       1.01322901     -0.303456992       1073.94604       1.52620339    
  0.780644000       1.11195600     -0.303485006       1183.07996       1.53820086    
  0.782918990       1.11479497       0.00000000       1183.07996       1.53820086    
  0.646345019       1.19482601       0.00000000       1183.07996       1.53820086    
  0.645825028       1.19414902     -0.303514004       1183.07996       1.53820086    
  0.646345019       1.19482601       0.00000000       955.135559       1.53919625    
  0.504974008       1.26637006       0.00000000       955.135559       1.53919625    
  0.503772974       1.26314998     -0.303521991       955.135559       1.53919625    
  0.645825028       1.19414902     -0.303514004       955.135559       1.53919625    
  0.503772974       1.26314998     -0.303521991       542.049927       1.52592528    
  0.353130996       1.31116498     -0.303510994       542.049927       1.52592528    
  0.353300005       1.31237996     -0.606999993       542.049927       1.52592528    
  0.505183995       1.26630700     -0.606999993       542.049927       1.52592528    
  0.503772974       1.26314998     -0.303521991       733.463501       1.52645707    
  0.505183995       1.26630700     -0.606999993       733.463501       1.52645707    
  0.646153986       1.19492805     -0.606999993       733.463501       1.52645707    
  0.645825028       1.19414902     -0.303514004       733.463501       1.52645707    
  0.503772974       1.26314998     -0.303521991       707.510986       1.53917348    
  0.504974008       1.26637006       0.00000000       707.510986       1.53917348    
  0.353493989       1.31232095       0.00000000       707.510986       1.53917348    
  0.353130996       1.31116498     -0.303510994       707.510986       1.53917348    
  0.353493989       1.31232095       0.00000000       455.478119       1.54012668    
  0.199064001       1.34539402       0.00000000       455.478119       1.54012668    
  0.198755994       1.34360003     -0.303496003       455.478119       1.54012668    
  0.353130996       1.31116498     -0.303510994       455.478119       1.54012668    
  0.198755994       1.34360003     -0.303496003       152.117188       1.53242075    
   4.12769988E-02   1.35817802     -0.303508013       152.117188       1.53242075    
   4.12410013E-02   1.36093795     -0.606999993       152.117188       1.53242075    
  0.199025005       1.34539795     -0.606999993       152.117188       1.53242075    
  0.198755994       1.34360003     -0.303496003       349.865234       1.52646339    
  0.199025005       1.34539795     -0.606999993       349.865234       1.52646339    
  0.353300005       1.31237996     -0.606999993       349.865234       1.52646339    
  0.353130996       1.31116498     -0.303510994       349.865234       1.52646339    
  0.198755994       1.34360003     -0.303496003       196.953201       1.54314196    
  0.199064001       1.34539402       0.00000000       196.953201       1.54314196    
   4.17769998E-02   1.36088502       0.00000000       196.953201       1.54314196    
   4.12769988E-02   1.35817802     -0.303508013       196.953201       1.54314196    
   4.17769998E-02   1.36088502       0.00000000       65.5332489      -1.61769950    
 -0.116410002       1.35353506       0.00000000       65.5332489      -1.61769950    
 -0.116471998       1.35271096     -0.303496987       65.5332489      -1.61769950    
   4.12769988E-02   1.35817802     -0.303508013       65.5332489      -1.61769950    
 -0.116471998       1.35271096     -0.303496987       246.733612      -1.62180471    
 -0.273027003       1.33229196     -0.303496003       246.733612      -1.62180471    
 -0.273876995       1.33647299     -0.606999993       246.733612      -1.62180471    
 -0.116722003       1.35350394     -0.606999993       246.733612      -1.62180471    
 -0.116471998       1.35271096     -0.303496987       50.4790955      -1.63255894    
 -0.116722003       1.35350394     -0.606999993       50.4790955      -1.63255894    
   4.12410013E-02   1.36093795     -0.606999993       50.4790955      -1.63255894    
   4.12769988E-02   1.35817802     -0.303508013       50.4790955      -1.63255894    
 -0.116471998       1.35271096     -0.303496987       323.983032      -1.60719812    
 -0.116410002       1.35353506       0.00000000       323.983032      -1.60719812    
 -0.274069011       1.33641505       0.00000000       323.983032      -1.60719812    
 -0.273027003       1.33229196     -0.303496003       323.983032      -1.60719812    
 -0.274069011       1.33641505       0.00000000       584.644775      -1.60500669    
 -0.425588995       1.29045200       0.00000000       584.644775      -1.60500669    
 -0.425258011       1.28953803     -0.303507000       584.644775      -1.60500669    
 -0.273027003       1.33229196     -0.303496003       584.644775      -1.60500669    
 -0.425258011       1.28953803     -0.303507000       637.137329      -1.61764157    
 -0.572302997       1.23206902     -0.303485990       637.137329      -1.61764157    
 -0.573064029       1.23399496     -0.606999993       637.137329      -1.61764157    
 -0.425651014       1.29043305     -0.606999993       637.137329      -1.61764157    
 -0.425258011       1.28953803     -0.303507000       448.575195      -1.61808372    
 -0.425651014       1.29043305     -0.606999993       448.575195      -1.61808372    
 -0.273876995       1.33647299     -0.606999993       448.575195      -1.61808372    
 -0.273027003       1.33229196     -0.303496003       448.575195      -1.61808372    
 -0.425258011       1.28953803     -0.303507000       831.445740      -1.60463881    
 -0.425588995       1.29045200       0.00000000       831.445740      -1.60463881    
 -0.573195994       1.23392498       0.00000000       831.445740      -1.60463881    
 -0.572302997       1.23206902     -0.303485990       831.445740      -1.60463881    
 -0.573195994       1.23392498       0.00000000       1070.92920      -1.60425699    
 -0.712655008       1.15938199       0.00000000       1070.92920      -1.60425699    
 -0.711889029       1.15749002     -0.303496003       1070.92920      -1.60425699    
 -0.572302997       1.23206902     -0.303485990       1070.92920      -1.60425699    
 -0.711889029       1.15749002     -0.303496003       992.637329      -1.61662674    
 -0.840825975       1.06629205     -0.303485990       992.637329      -1.61662674    
 -0.841368973       1.06682706     -0.606999993       992.637329      -1.61662674    
 -0.712980986       1.15920806     -0.606999993       992.637329      -1.61662674    
 -0.711889029       1.15749002     -0.303496003       819.932556      -1.61700916    
 -0.712980986       1.15920806     -0.606999993       819.932556      -1.61700916    
 -0.573064029       1.23399496     -0.606999993       819.932556      -1.61700916    
 -0.572302997       1.23206902     -0.303485990       819.932556      -1.61700916    
 -0.711889029       1.15749002     -0.303496003       1294.08386      -1.60397243    
 -0.712655008       1.15938199       0.00000000       1294.08386      -1.60397243    
 -0.841165006       1.06699395       0.00000000       1294.08386      -1.60397243    
 -0.840825975       1.06629205     -0.303485990       1294.08386      -1.60397243    
 -0.841165006       1.06699395       0.00000000       1498.00269      -1.60402668    
 -0.963320017      0.966744006       0.00000000       1498.00269      -1.60402668    
 -0.960084975      0.962615013     -0.303470999       1498.00269      -1.60402668    
 -0.840825975       1.06629205     -0.303485990       1498.00269      -1.60402668    
 -0.960084975      0.962615013     -0.303470999       1294.57288      -1.61632442    
  -1.06383705      0.843237996     -0.303481996       1294.57288      -1.61632442    
  -1.06481802      0.843816996     -0.606999993       1294.57288      -1.61632442    
 -0.963873982      0.966289997     -0.606999993       1294.57288      -1.61632442    
 -0.960084975      0.962615013     -0.303470999       1148.30237      -1.61669624    
 -0.963873982      0.966289997     -0.606999993       1148.30237      -1.61669624    
 -0.841368973       1.06682706     -0.606999993       1148.30237      -1.61669624    
 -0.840825975       1.06629205     -0.303485990       1148.30237      -1.61669624    
 -0.960084975      0.962615013     -0.303470999       1686.85535      -1.60391247    
 -0.963320017      0.966744006       0.00000000       1686.85535      -1.60391247    
  -1.06464398      0.844029009       0.00000000       1686.85535      -1.60391247    
  -1.06383705      0.843237996     -0.303481996       1686.85535      -1.60391247    
  -1.06464398      0.844029009       0.00000000       1847.06470      -1.60398746    
  -1.15769398      0.715813994       0.00000000       1847.06470      -1.60398746    
  -1.15564799      0.714680016     -0.303483993       1847.06470      -1.60398746    
  -1.06383705      0.843237996     -0.303481996       1847.06470      -1.60398746    
  -1.15564799      0.714680016     -0.303483993       1524.61890      -1.61637616    
  -1.23108304      0.575536013     -0.303514004       1524.61890      -1.61637616    
  -1.23232996      0.576179981     -0.606999993       1524.61890      -1.61637616    
  -1.15756094      0.716063023     -0.606999993       1524.61890      -1.61637616    
  -1.15564799      0.714680016     -0.303483993       1417.74377      -1.61636174    
  -1.15756094      0.716063023     -0.606999993       1417.74377      -1.61636174    
  -1.06481802      0.843816996     -0.606999993       1417.74377      -1.61636174    
  -1.06383705      0.843237996     -0.303481996       1417.74377      -1.61636174    
  -1.15564799      0.714680016     -0.303483993       1988.50891      -1.60406578    
  -1.15769398      0.715813994       0.00000000       1988.50891      -1.60406578    
  -1.23224795      0.576331973       0.00000000       1988.50891      -1.60406578    
  -1.23108304      0.575536013     -0.303514004       1988.50891      -1.60406578    
  -1.23224795      0.576331973       0.00000000       2098.92188      -1.60412610    
  -1.28948605      0.428772002       0.00000000       2098.92188      -1.60412610    
  -1.28842103      0.428404987     -0.303512990       2098.92188      -1.60412610    
  -1.23108304      0.575536013     -0.303514004       2098.92188      -1.60412610    
  -1.28842103      0.428404987     -0.303512990       1670.83655      -1.61610126    
  -1.33082402      0.275959998     -0.303492010       1670.83655      -1.61610126    
  -1.33550000      0.277083993     -0.606999993       1670.83655      -1.61610126    