 VARIABLES="X" "Y" "Z" "abs(p) (Pa)" "angle(p) (rad)"
ZONE N=   2720,E =    2069, F=FEPOINT, ET=QUADRILATERAL
 -0.767116010      -1.12776399       0.00000000      0.561201751      -1.57128572    
 -0.769354999      -1.12002099     -0.303523988      0.561201751      -1.57128572    
 -0.896136999      -1.02028203     -0.303463012      0.561201751      -1.57128572    
 -0.894908011      -1.02288902       0.00000000      0.561201751      -1.57128572    
 -0.767116010      -1.12776399       0.00000000      0.609343588       1.57124710    
 -0.630888999      -1.20308697       0.00000000      0.609343588       1.57124710    
 -0.635528028      -1.19958198     -0.303541005      0.609343588       1.57124710    
 -0.769354999      -1.12002099     -0.303523988      0.609343588       1.57124710    
 -0.635528028      -1.19958198     -0.303541005      0.573998332      -1.57127452    
 -0.495362997      -1.26606500     -0.303519011      0.573998332      -1.57127452    
 -0.499298006      -1.26809204     -0.606999993      0.573998332      -1.57127452    
 -0.640147984      -1.19813800     -0.606998026      0.573998332      -1.57127452    
 -0.635528028      -1.19958198     -0.303541005      0.491085559       1.57135522    
 -0.640147984      -1.19813800     -0.606998026      0.491085559       1.57135522    
 -0.777105987      -1.11956596     -0.606999993      0.491085559       1.57135522    
 -0.769354999      -1.12002099     -0.303523988      0.491085559       1.57135522    
 -0.635528028      -1.19958198     -0.303541005      0.506295264      -1.57133877    
 -0.630888999      -1.20308697       0.00000000      0.506295264      -1.57133877    
 -0.494486004      -1.26955199       0.00000000      0.506295264      -1.57133877    
 -0.495362997      -1.26606500     -0.303519011      0.506295264      -1.57133877    
 -0.494486004      -1.26955199       0.00000000      0.474382967       1.57137537    
 -0.346311986      -1.31449997       0.00000000      0.474382967       1.57137537    
 -0.346753001      -1.31307304     -0.303510010      0.474382967       1.57137537    
 -0.495362997      -1.26606500     -0.303519011      0.474382967       1.57137537    
 -0.346753001      -1.31307304     -0.303510010       2.48753261E-02  -1.58182955    
 -0.193608001      -1.34425998     -0.303494990       2.48753261E-02  -1.58182955    
 -0.195028007      -1.34579206     -0.606999993       2.48753261E-02  -1.58182955    
 -0.348751009      -1.31376004     -0.606999993       2.48753261E-02  -1.58182955    
 -0.346753001      -1.31307304     -0.303510010      0.505014658       1.57133985    
 -0.348751009      -1.31376004     -0.606999993      0.505014658       1.57133985    
 -0.499298006      -1.26809204     -0.606999993      0.505014658       1.57133985    
 -0.495362997      -1.26606500     -0.303519011      0.505014658       1.57133985    
 -0.346753001      -1.31307304     -0.303510010       1.76158547E-02  -1.58638847    
 -0.346311986      -1.31449997       0.00000000       1.76158547E-02  -1.58638847    
 -0.193381995      -1.34595394       0.00000000       1.76158547E-02  -1.58638847    
 -0.193608001      -1.34425998     -0.303494990       1.76158547E-02  -1.58638847    
 -0.193381995      -1.34595394       0.00000000      0.311347097      -1.57167852    
  -3.75179984E-02  -1.36130500       0.00000000      0.311347097      -1.57167852    
  -3.73950005E-02  -1.35827899     -0.303512007      0.311347097      -1.57167852    
 -0.193608001      -1.34425998     -0.303494990      0.311347097      -1.57167852    
  -3.73950005E-02  -1.35827899     -0.303512007      0.285953999       1.57175612    
  0.119547002      -1.35239303     -0.303498000      0.285953999       1.57175612    
  0.119135000      -1.35326600     -0.606999993      0.285953999       1.57175612    
  -3.82840000E-02  -1.36122894     -0.606998980      0.285953999       1.57175612    
  -3.73950005E-02  -1.35827899     -0.303512007      0.280089140      -1.57177615    
  -3.82840000E-02  -1.36122894     -0.606998980      0.280089140      -1.57177615    
 -0.195028007      -1.34579206     -0.606999993      0.280089140      -1.57177615    
 -0.193608001      -1.34425998     -0.303494990      0.280089140      -1.57177615    
  -3.73950005E-02  -1.35827899     -0.303512007      0.269424319       1.57181561    
  -3.75179984E-02  -1.36130500       0.00000000      0.269424319       1.57181561    
  0.119788997      -1.35320199       0.00000000      0.269424319       1.57181561    
  0.119547002      -1.35239303     -0.303498000      0.269424319       1.57181561    
  0.119788997      -1.35320199       0.00000000      0.810523093      -1.57113516    
  0.276576012      -1.33565402       0.00000000      0.810523093      -1.57113516    
  0.275435001      -1.33191597     -0.303496003      0.810523093      -1.57113516    
  0.119547002      -1.35239303     -0.303498000      0.810523093      -1.57113516    
  0.275435001      -1.33191597     -0.303496003      0.736271024       1.57116902    
  0.427076995      -1.28898001     -0.303507000      0.736271024       1.57116902    
  0.427242011      -1.28995001     -0.606999993      0.736271024       1.57116902    
  0.275831014      -1.33588004     -0.606999993      0.736271024       1.57116902    
  0.275435001      -1.33191597     -0.303496003      0.793911695      -1.57114196    
  0.275831014      -1.33588004     -0.606999993      0.793911695      -1.57114196    
  0.119135000      -1.35326600     -0.606999993      0.793911695      -1.57114196    
  0.119547002      -1.35239303     -0.303498000      0.793911695      -1.57114196    
  0.275435001      -1.33191597     -0.303496003      0.738846362       1.57116807    
  0.276576012      -1.33565402       0.00000000      0.738846362       1.57116807    
  0.427509993      -1.28986895       0.00000000      0.738846362       1.57116807    
  0.427076995      -1.28898001     -0.303507000      0.738846362       1.57116807    
  0.427509993      -1.28986895       0.00000000      0.114271745      -1.57319927    
  0.574636996      -1.23315501       0.00000000      0.114271745      -1.57319927    
  0.573706985      -1.23136795     -0.303485990      0.114271745      -1.57319927    
  0.427076995      -1.28898001     -0.303507000      0.114271745      -1.57319927    
  0.573706985      -1.23136795     -0.303485990      0.101934455      -1.57348812    
  0.712854981      -1.15688002     -0.303496987      0.101934455      -1.57348812    
  0.713809013      -1.15876603     -0.606999993      0.101934455      -1.57348812    
  0.574283004      -1.23334301     -0.606999993      0.101934455      -1.57348812    
  0.573706985      -1.23136795     -0.303485990      0.121243447      -1.57305920    
  0.574283004      -1.23334301     -0.606999993      0.121243447      -1.57305920    
  0.427242011      -1.28995001     -0.606999993      0.121243447      -1.57305920    
  0.427076995      -1.28898001     -0.303507000      0.121243447      -1.57305920    
  0.573706985      -1.23136795     -0.303485990      0.109981008      -1.57329285    
  0.574636996      -1.23315501       0.00000000      0.109981008      -1.57329285    
  0.713741004      -1.15880203       0.00000000      0.109981008      -1.57329285    
  0.712854981      -1.15688002     -0.303496987      0.109981008      -1.57329285    
  0.713741004      -1.15880203       0.00000000      0.181968227       1.57230544    
  0.841937006      -1.06636095       0.00000000      0.181968227       1.57230544    
  0.841498017      -1.06573403     -0.303485990      0.181968227       1.57230544    
  0.712854981      -1.15688002     -0.303496987      0.181968227       1.57230544    
  0.841498017      -1.06573403     -0.303485990      0.765082359      -1.57115495    
  0.960639000     -0.962104976     -0.303470999      0.765082359      -1.57115495    
  0.964356005     -0.965893984     -0.606999993      0.765082359      -1.57115495    
  0.841796994      -1.06647599     -0.606999993      0.765082359      -1.57115495    
  0.841498017      -1.06573403     -0.303485990      0.195121005       1.57220256    
  0.841796994      -1.06647599     -0.606999993      0.195121005       1.57220256    
  0.713809013      -1.15876603     -0.606999993      0.195121005       1.57220256    
  0.712854981      -1.15688002     -0.303496987      0.195121005       1.57220256    
  0.841498017      -1.06573403     -0.303485990      0.775586486      -1.57115042    
  0.841937006      -1.06636095       0.00000000      0.775586486      -1.57115042    
  0.963932991     -0.966242015       0.00000000      0.775586486      -1.57115042    
  0.960639000     -0.962104976     -0.303470999      0.775586486      -1.57115042    
  0.963932991     -0.966242015       0.00000000      0.851353347       1.57111883    
   1.06506598     -0.843514979       0.00000000      0.851353347       1.57111883    
   1.06428695     -0.842682004     -0.303481996      0.851353347       1.57111883    
  0.960639000     -0.962104976     -0.303470999      0.851353347       1.57111883    
   1.06428695     -0.842682004     -0.303481996      0.240814596      -1.57193518    
   1.15591598     -0.714210987     -0.303485006      0.240814596      -1.57193518    
   1.15788805     -0.715448976     -0.606999993      0.240814596      -1.57193518    
   1.06537795     -0.843134999     -0.606999993      0.240814596      -1.57193518    
   1.06428695     -0.842682004     -0.303481996      0.835082591       1.57112491    
   1.06537795     -0.843134999     -0.606999993      0.835082591       1.57112491    
  0.964356005     -0.965893984     -0.606999993      0.835082591       1.57112491    
  0.960639000     -0.962104976     -0.303470999      0.835082591       1.57112491    
   1.06428695     -0.842682004     -0.303481996      0.228438303      -1.57199764    
   1.06506598     -0.843514979       0.00000000      0.228438303      -1.57199764    
   1.15792501     -0.715381980       0.00000000      0.228438303      -1.57199764    
   1.15591598     -0.714210987     -0.303485006      0.228438303      -1.57199764    
   1.15792501     -0.715381980       0.00000000       7.16547072E-02   1.57462645    
   1.23237598     -0.576093972       0.00000000       7.16547072E-02   1.57462645    
   1.23120904     -0.575251997     -0.303514004       7.16547072E-02   1.57462645    
   1.15591598     -0.714210987     -0.303485006       7.16547072E-02   1.57462645    
   1.23120904     -0.575251997     -0.303514004      0.215116829       1.57207119    
   1.28844094     -0.428344995     -0.303512990      0.215116829       1.57207119    
   1.28952503     -0.428642988     -0.606999993      0.215116829       1.57207119    
   1.23252702     -0.575810015     -0.606999993      0.215116829       1.57207119    
   1.23120904     -0.575251997     -0.303514004       6.46093115E-02   1.57504189    
   1.23252702     -0.575810015     -0.606999993       6.46093115E-02   1.57504189    
   1.15788805     -0.715448976     -0.606999993       6.46093115E-02   1.57504189    
   1.15591598     -0.714210987     -0.303485006       6.46093115E-02   1.57504189    
   1.23120904     -0.575251997     -0.303514004      0.213447973       1.57208204    
   1.23237598     -0.576093972       0.00000000      0.213447973       1.57208204    
   1.28947699     -0.428801000       0.00000000      0.213447973       1.57208204    
   1.28844094     -0.428344995     -0.303512990      0.213447973       1.57208204    
   1.28947699     -0.428801000       0.00000000      0.611006796      -1.57124543    
   1.33532202     -0.277671993       0.00000000      0.611006796      -1.57124543    
   1.33076501     -0.276203990     -0.303492010      0.611006796      -1.57124543    
   1.28844094     -0.428344995     -0.303512990      0.611006796      -1.57124543    
   1.33076501     -0.276203990     -0.303492010      0.663460255       1.57120955    
   1.35229194     -0.119709998     -0.303514004      0.663460255       1.57120955    
   1.35321999     -0.119608998     -0.606999993      0.663460255       1.57120955    
   1.33549094     -0.277112991     -0.606999993      0.663460255       1.57120955    
   1.33076501     -0.276203990     -0.303492010      0.609781325      -1.57124603    
   1.33549094     -0.277112991     -0.606999993      0.609781325      -1.57124603    
   1.28952503     -0.428642988     -0.606999993      0.609781325      -1.57124603    
   1.28844094     -0.428344995     -0.303512990      0.609781325      -1.57124603    
   1.33076501     -0.276203990     -0.303492010      0.674734712       1.57120299    
   1.33532202     -0.277671993       0.00000000      0.674734712       1.57120299    
   1.35319102     -0.119900003       0.00000000      0.674734712       1.57120299    
   1.35229194     -0.119709998     -0.303514004      0.674734712       1.57120299    
   1.35319102     -0.119900003       0.00000000      0.387285709      -1.57150495    
   1.36124396       3.81390005E-02   0.00000000      0.387285709      -1.57150495    
   1.35858905       3.79349999E-02 -0.303501010      0.387285709      -1.57150495    
   1.35229194     -0.119709998     -0.303514004      0.387285709      -1.57150495    
   1.35858905       3.79349999E-02 -0.303501010      0.237621292       1.57194984    
   1.34464097      0.195331007     -0.303496003      0.237621292       1.57194984    
   1.34573400      0.195616007     -0.606999993      0.237621292       1.57194984    
   1.36126804       3.78950015E-02 -0.606999993      0.237621292       1.57194984    
   1.35858905       3.79349999E-02 -0.303501010      0.396797627      -1.57148743    
   1.36126804       3.78950015E-02 -0.606999993      0.396797627      -1.57148743    
   1.35321999     -0.119608998     -0.606999993      0.396797627      -1.57148743    
   1.35229194     -0.119709998     -0.303514004      0.396797627      -1.57148743    
   1.35858905       3.79349999E-02 -0.303501010      0.249188229       1.57189739    
   1.36124396       3.81390005E-02   0.00000000      0.249188229       1.57189739    
   1.34575403      0.195406005       0.00000000      0.249188229       1.57189739    
   1.34464097      0.195331007     -0.303496003      0.249188229       1.57189739    
   1.34575403      0.195406005       0.00000000      0.142262697       1.57272518    
   1.31339800      0.349945009       0.00000000      0.142262697       1.57272518    
   1.31216300      0.349725991     -0.303487003      0.142262697       1.57272518    
   1.34464097      0.195331007     -0.303496003      0.142262697       1.57272518    
   1.31216300      0.349725991     -0.303487003      0.447364777      -1.57140911    
   1.26341999      0.500032008     -0.303494006      0.447364777      -1.57140911    
   1.26736605      0.501691997     -0.606999993      0.447364777      -1.57140911    
   1.31333196      0.350163996     -0.606999993      0.447364777      -1.57140911    
   1.31216300      0.349725991     -0.303487003      0.138042703       1.57278228    
   1.31333196      0.350163996     -0.606999993      0.138042703       1.57278228    
   1.34573400      0.195616007     -0.606999993      0.138042703       1.57278228    
   1.34464097      0.195331007     -0.303496003      0.138042703       1.57278228    
   1.31216300      0.349725991     -0.303487003      0.450279683      -1.57140553    
   1.31339800      0.349945009       0.00000000      0.450279683      -1.57140553    
   1.26751196      0.501209974       0.00000000      0.450279683      -1.57140553    
   1.26341999      0.500032008     -0.303494006      0.450279683      -1.57140553    
   1.26751196      0.501209974       0.00000000      0.478420556       1.57136965    
   1.19658697      0.643051028       0.00000000      0.478420556       1.57136965    
   1.19583094      0.642783999     -0.303505003      0.478420556       1.57136965    
   1.26341999      0.500032008     -0.303494006      0.478420556       1.57136965    
   1.19583094      0.642783999     -0.303505003      0.580599189      -1.57126832    
   1.11495602      0.778467000     -0.303483993      0.580599189      -1.57126832    
   1.11731696      0.779847026     -0.606999993      0.580599189      -1.57126832    
   1.19653296      0.643149972     -0.606999993      0.580599189      -1.57126832    
   1.19583094      0.642783999     -0.303505003      0.483162075       1.57136357    
   1.19653296      0.643149972     -0.606999993      0.483162075       1.57136357    
   1.26736605      0.501691997     -0.606999993      0.483162075       1.57136357    
   1.26341999      0.500032008     -0.303494006      0.483162075       1.57136357    
   1.19583094      0.642783999     -0.303505003      0.584508061      -1.57126570    
   1.19658697      0.643051028       0.00000000      0.584508061      -1.57126570    
   1.11705506      0.780165970       0.00000000      0.584508061      -1.57126570    
   1.11495602      0.778467000     -0.303483993      0.584508061      -1.57126570    
   1.11705506      0.780165970       0.00000000      0.478629470       1.57136929    
   1.01674199      0.902397990       0.00000000      0.478629470       1.57136929    
   1.01591504      0.901737988     -0.303478003      0.478629470       1.57136929    
   1.11495602      0.778467000     -0.303483993      0.478629470       1.57136929    
   1.01591504      0.901737988     -0.303478003       7.37461522E-02   1.57451212    
  0.904204011       1.01322901     -0.303456992       7.37461522E-02   1.57451212    
  0.905143023       1.01448905     -0.606999993       7.37461522E-02   1.57451212    
   1.01659799      0.902572989     -0.606999993       7.37461522E-02   1.57451212    
   1.01591504      0.901737988     -0.303478003      0.467782885       1.57138216    
   1.01659799      0.902572989     -0.606999993      0.467782885       1.57138216    
   1.11731696      0.779847026     -0.606999993      0.467782885       1.57138216    
   1.11495602      0.778467000     -0.303483993      0.467782885       1.57138216    
   1.01591504      0.901737988     -0.303478003       8.02508965E-02   1.57421422    
   1.01674199      0.902397990       0.00000000       8.02508965E-02   1.57421422    
  0.905318975       1.01434398       0.00000000       8.02508965E-02   1.57421422    
  0.904204011       1.01322901     -0.303456992       8.02508965E-02   1.57421422    
  0.905318975       1.01434398       0.00000000      0.324352652      -1.57164180    
  0.782918990       1.11479497       0.00000000      0.324352652      -1.57164180    
  0.780644000       1.11195600     -0.303485006      0.324352652      -1.57164180    
  0.904204011       1.01322901     -0.303456992      0.324352652      -1.57164180    
  0.780644000       1.11195600     -0.303485006      0.369102329       1.57153869    
  0.645825028       1.19414902     -0.303514004      0.369102329       1.57153869    
  0.646153986       1.19492805     -0.606999993      0.369102329       1.57153869    
  0.782611012       1.11504900     -0.606999993      0.369102329       1.57153869    
  0.780644000       1.11195600     -0.303485006      0.320648611      -1.57165074    
  0.782611012       1.11504900     -0.606999993      0.320648611      -1.57165074    
  0.905143023       1.01448905     -0.606999993      0.320648611      -1.57165074    
  0.904204011       1.01322901     -0.303456992      0.320648611      -1.57165074    
  0.780644000       1.11195600     -0.303485006      0.358074307       1.57156205    
  0.782918990       1.11479497       0.00000000      0.358074307       1.57156205    
  0.646345019       1.19482601       0.00000000      0.358074307       1.57156205    
  0.645825028       1.19414902     -0.303514004      0.358074307       1.57156205    
  0.646345019       1.19482601       0.00000000      0.707338393      -1.57118404    
  0.504974008       1.26637006       0.00000000      0.707338393      -1.57118404    
  0.503772974       1.26314998     -0.303521991      0.707338393      -1.57118404    
  0.645825028       1.19414902     -0.303514004      0.707338393      -1.57118404    
  0.503772974       1.26314998     -0.303521991      0.626940191       1.57123339    
  0.353130996       1.31116498     -0.303510994      0.626940191       1.57123339    
  0.353300005       1.31237996     -0.606999993      0.626940191       1.57123339    
  0.505183995       1.26630700     -0.606999993      0.626940191       1.57123339    
  0.503772974       1.26314998     -0.303521991      0.694842875      -1.57119071    
  0.505183995       1.26630700     -0.606999993      0.694842875      -1.57119071    
  0.646153986       1.19492805     -0.606999993      0.694842875      -1.57119071    
  0.645825028       1.19414902     -0.303514004      0.694842875      -1.57119071    
  0.503772974       1.26314998     -0.303521991      0.635994792       1.57122755    
  0.504974008       1.26637006       0.00000000      0.635994792       1.57122755    
  0.353493989       1.31232095       0.00000000      0.635994792       1.57122755    
  0.353130996       1.31116498     -0.303510994      0.635994792       1.57122755    
  0.353493989       1.31232095       0.00000000       6.51734695E-02  -1.57500398    
  0.199064001       1.34539402       0.00000000       6.51734695E-02  -1.57500398    
  0.198755994       1.34360003     -0.303496003       6.51734695E-02  -1.57500398    
  0.353130996       1.31116498     -0.303510994       6.51734695E-02  -1.57500398    
  0.198755994       1.34360003     -0.303496003      0.234055072      -1.57196701    
   4.12769988E-02   1.35817802     -0.303508013      0.234055072      -1.57196701    
   4.12410013E-02   1.36093795     -0.606999993      0.234055072      -1.57196701    
  0.199025005       1.34539795     -0.606999993      0.234055072      -1.57196701    
  0.198755994       1.34360003     -0.303496003       6.61135614E-02  -1.57494044    
  0.199025005       1.34539795     -0.606999993       6.61135614E-02  -1.57494044    
  0.353300005       1.31237996     -0.606999993       6.61135614E-02  -1.57494044    
  0.353130996       1.31116498     -0.303510994       6.61135614E-02  -1.57494044    
  0.198755994       1.34360003     -0.303496003      0.246624753      -1.57190835    
  0.199064001       1.34539402       0.00000000      0.246624753      -1.57190835    
   4.17769998E-02   1.36088502       0.00000000      0.246624753      -1.57190835    
   4.12769988E-02   1.35817802     -0.303508013      0.246624753      -1.57190835    
   4.17769998E-02   1.36088502       0.00000000      0.233439729       1.57197118    
 -0.116410002       1.35353506       0.00000000      0.233439729       1.57197118    
 -0.116471998       1.35271096     -0.303496987      0.233439729       1.57197118    
   4.12769988E-02   1.35817802     -0.303508013      0.233439729       1.57197118    
 -0.116471998       1.35271096     -0.303496987      0.790988028      -1.57114279    
 -0.273027003       1.33229196     -0.303496003      0.790988028      -1.57114279    
 -0.273876995       1.33647299     -0.606999993      0.790988028      -1.57114279    
 -0.116722003       1.35350394     -0.606999993      0.790988028      -1.57114279    
 -0.116471998       1.35271096     -0.303496987      0.259920895       1.57185042    
 -0.116722003       1.35350394     -0.606999993      0.259920895       1.57185042    
   4.12410013E-02   1.36093795     -0.606999993      0.259920895       1.57185042    
   4.12769988E-02   1.35817802     -0.303508013      0.259920895       1.57185042    
 -0.116471998       1.35271096     -0.303496987      0.813956022      -1.57113326    
 -0.116410002       1.35353506       0.00000000      0.813956022      -1.57113326    
 -0.274069011       1.33641505       0.00000000      0.813956022      -1.57113326    
 -0.273027003       1.33229196     -0.303496003      0.813956022      -1.57113326    
 -0.274069011       1.33641505       0.00000000      0.756488264       1.57115889    
 -0.425588995       1.29045200       0.00000000      0.756488264       1.57115889    
 -0.425258011       1.28953803     -0.303507000      0.756488264       1.57115889    
 -0.273027003       1.33229196     -0.303496003      0.756488264       1.57115889    
 -0.425258011       1.28953803     -0.303507000      0.137713760      -1.57278621    
 -0.572302997       1.23206902     -0.303485990      0.137713760      -1.57278621    
 -0.573064029       1.23399496     -0.606999993      0.137713760      -1.57278621    
 -0.425651014       1.29043305     -0.606999993      0.137713760      -1.57278621    
 -0.425258011       1.28953803     -0.303507000      0.747380435       1.57116294    
 -0.425651014       1.29043305     -0.606999993      0.747380435       1.57116294    
 -0.273876995       1.33647299     -0.606999993      0.747380435       1.57116294    
 -0.273027003       1.33229196     -0.303496003      0.747380435       1.57116294    
 -0.425258011       1.28953803     -0.303507000      0.130479828      -1.57289863    
 -0.425588995       1.29045200       0.00000000      0.130479828      -1.57289863    
 -0.573195994       1.23392498       0.00000000      0.130479828      -1.57289863    
 -0.572302997       1.23206902     -0.303485990      0.130479828      -1.57289863    
 -0.573195994       1.23392498       0.00000000       8.68810341E-02  -1.57395339    
 -0.712655008       1.15938199       0.00000000       8.68810341E-02  -1.57395339    
 -0.711889029       1.15749002     -0.303496003       8.68810341E-02  -1.57395339    
 -0.572302997       1.23206902     -0.303485990       8.68810341E-02  -1.57395339    
 -0.711889029       1.15749002     -0.303496003      0.195907384       1.57219553    
 -0.840825975       1.06629205     -0.303485990      0.195907384       1.57219553    
 -0.841368973       1.06682706     -0.606999993      0.195907384       1.57219553    
 -0.712980986       1.15920806     -0.606999993      0.195907384       1.57219553    
 -0.711889029       1.15749002     -0.303496003       8.36369172E-02  -1.57407308    
 -0.712980986       1.15920806     -0.606999993       8.36369172E-02  -1.57407308    
 -0.573064029       1.23399496     -0.606999993       8.36369172E-02  -1.57407308    
 -0.572302997       1.23206902     -0.303485990       8.36369172E-02  -1.57407308    
 -0.711889029       1.15749002     -0.303496003      0.182260856       1.57230139    
 -0.712655008       1.15938199       0.00000000      0.182260856       1.57230139    
 -0.841165006       1.06699395       0.00000000      0.182260856       1.57230139    
 -0.840825975       1.06629205     -0.303485990      0.182260856       1.57230139    
 -0.841165006       1.06699395       0.00000000      0.764777899      -1.57115507    
 -0.963320017      0.966744006       0.00000000      0.764777899      -1.57115507    
 -0.960084975      0.962615013     -0.303470999      0.764777899      -1.57115507    
 -0.840825975       1.06629205     -0.303485990      0.764777899      -1.57115507    
 -0.960084975      0.962615013     -0.303470999      0.832981408       1.57112539    
  -1.06383705      0.843237996     -0.303481996      0.832981408       1.57112539    
  -1.06481802      0.843816996     -0.606999993      0.832981408       1.57112539    
 -0.963873982      0.966289997     -0.606999993      0.832981408       1.57112539    
 -0.960084975      0.962615013     -0.303470999      0.757449031      -1.57115817    
 -0.963873982      0.966289997     -0.606999993      0.757449031      -1.57115817    
 -0.841368973       1.06682706     -0.606999993      0.757449031      -1.57115817    
 -0.840825975       1.06629205     -0.303485990      0.757449031      -1.57115817    
 -0.960084975      0.962615013     -0.303470999      0.847034931       1.57112014    
 -0.963320017      0.966744006       0.00000000      0.847034931       1.57112014    
  -1.06464398      0.844029009       0.00000000      0.847034931       1.57112014    
  -1.06383705      0.843237996     -0.303481996      0.847034931       1.57112014    
  -1.06464398      0.844029009       0.00000000      0.242008373      -1.57193017    
  -1.15769398      0.715813994       0.00000000      0.242008373      -1.57193017    
  -1.15564799      0.714680016     -0.303483993      0.242008373      -1.57193017    
  -1.06383705      0.843237996     -0.303481996      0.242008373      -1.57193017    
  -1.15564799      0.714680016     -0.303483993       7.01512620E-02   1.57470453    
  -1.23108304      0.575536013     -0.303514004       7.01512620E-02   1.57470453    
  -1.23232996      0.576179981     -0.606999993       7.01512620E-02   1.57470453    
  -1.15756094      0.716063023     -0.606999993       7.01512620E-02   1.57470453    
  -1.15564799      0.714680016     -0.303483993      0.255233198      -1.57187045    
  -1.15756094      0.716063023     -0.606999993      0.255233198      -1.57187045    
  -1.06481802      0.843816996     -0.606999993      0.255233198      -1.57187045    
  -1.06383705      0.843237996     -0.303481996      0.255233198      -1.57187045    
  -1.15564799      0.714680016     -0.303483993       7.53179938E-02   1.57443917    
  -1.15769398      0.715813994       0.00000000       7.53179938E-02   1.57443917    
  -1.23224795      0.576331973       0.00000000       7.53179938E-02   1.57443917    
  -1.23108304      0.575536013     -0.303514004       7.53179938E-02   1.57443917    
  -1.23224795      0.576331973       0.00000000      0.211808577       1.57209206    
  -1.28948605      0.428772002       0.00000000      0.211808577       1.57209206    
  -1.28842103      0.428404987     -0.303512990      0.211808577       1.57209206    
  -1.23108304      0.575536013     -0.303514004      0.211808577       1.57209206    
  -1.28842103      0.428404987     -0.303512990      0.606435895      -1.57124853    
  -1.33082402      0.275959998     -0.303492010      0.606435895      -1.57124853    
  -1.33550000      0.277083993     -0.606999993      0.606435895      -1.57124853    