 VARIABLES="X" "Y" "Z" "abs(p) (Pa)" "angle(p) (rad)"
ZONE N=   2720,E =    2069, F=FEPOINT, ET=QUADRILATERAL
 -0.767116010      -1.12776399       0.00000000       15.6007738      -1.34405625    
 -0.769354999      -1.12002099     -0.303523988       15.6007738      -1.34405625    
 -0.896136999      -1.02028203     -0.303463012       15.6007738      -1.34405625    
 -0.894908011      -1.02288902       0.00000000       15.6007738      -1.34405625    
 -0.767116010      -1.12776399       0.00000000       16.7867241      -1.35991192    
 -0.630888999      -1.20308697       0.00000000       16.7867241      -1.35991192    
 -0.635528028      -1.19958198     -0.303541005       16.7867241      -1.35991192    
 -0.769354999      -1.12002099     -0.303523988       16.7867241      -1.35991192    
 -0.635528028      -1.19958198     -0.303541005       110.318947       1.56764007    
 -0.495362997      -1.26606500     -0.303519011       110.318947       1.56764007    
 -0.499298006      -1.26809204     -0.606999993       110.318947       1.56764007    
 -0.640147984      -1.19813800     -0.606998026       110.318947       1.56764007    
 -0.635528028      -1.19958198     -0.303541005       110.414124       1.56689870    
 -0.640147984      -1.19813800     -0.606998026       110.414124       1.56689870    
 -0.777105987      -1.11956596     -0.606999993       110.414124       1.56689870    
 -0.769354999      -1.12002099     -0.303523988       110.414124       1.56689870    
 -0.635528028      -1.19958198     -0.303541005       45.8331947       1.49456179    
 -0.630888999      -1.20308697       0.00000000       45.8331947       1.49456179    
 -0.494486004      -1.26955199       0.00000000       45.8331947       1.49456179    
 -0.495362997      -1.26606500     -0.303519011       45.8331947       1.49456179    
 -0.494486004      -1.26955199       0.00000000       40.5884132       1.48440087    
 -0.346311986      -1.31449997       0.00000000       40.5884132       1.48440087    
 -0.346753001      -1.31307304     -0.303510010       40.5884132       1.48440087    
 -0.495362997      -1.26606500     -0.303519011       40.5884132       1.48440087    
 -0.346753001      -1.31307304     -0.303510010       111.106430       1.56870389    
 -0.193608001      -1.34425998     -0.303494990       111.106430       1.56870389    
 -0.195028007      -1.34579206     -0.606999993       111.106430       1.56870389    
 -0.348751009      -1.31376004     -0.606999993       111.106430       1.56870389    
 -0.346753001      -1.31307304     -0.303510010       110.354713       1.56824398    
 -0.348751009      -1.31376004     -0.606999993       110.354713       1.56824398    
 -0.499298006      -1.26809204     -0.606999993       110.354713       1.56824398    
 -0.495362997      -1.26606500     -0.303519011       110.354713       1.56824398    
 -0.346753001      -1.31307304     -0.303510010       35.6631508       1.47382498    
 -0.346311986      -1.31449997       0.00000000       35.6631508       1.47382498    
 -0.193381995      -1.34595394       0.00000000       35.6631508       1.47382498    
 -0.193608001      -1.34425998     -0.303494990       35.6631508       1.47382498    
 -0.193381995      -1.34595394       0.00000000       34.3243179      -1.47051704    
  -3.75179984E-02  -1.36130500       0.00000000       34.3243179      -1.47051704    
  -3.73950005E-02  -1.35827899     -0.303512007       34.3243179      -1.47051704    
 -0.193608001      -1.34425998     -0.303494990       34.3243179      -1.47051704    
  -3.73950005E-02  -1.35827899     -0.303512007       108.576363       1.56886303    
  0.119547002      -1.35239303     -0.303498000       108.576363       1.56886303    
  0.119135000      -1.35326600     -0.606999993       108.576363       1.56886303    
  -3.82840000E-02  -1.36122894     -0.606998980       108.576363       1.56886303    
  -3.73950005E-02  -1.35827899     -0.303512007       100.237061       1.56863737    
  -3.82840000E-02  -1.36122894     -0.606998980       100.237061       1.56863737    
 -0.195028007      -1.34579206     -0.606999993       100.237061       1.56863737    
 -0.193608001      -1.34425998     -0.303494990       100.237061       1.56863737    
  -3.73950005E-02  -1.35827899     -0.303512007       37.0627937      -1.48030484    
  -3.75179984E-02  -1.36130500       0.00000000       37.0627937      -1.48030484    
  0.119788997      -1.35320199       0.00000000       37.0627937      -1.48030484    
  0.119547002      -1.35239303     -0.303498000       37.0627937      -1.48030484    
  0.119788997      -1.35320199       0.00000000       50.7420807      -1.50507843    
  0.276576012      -1.33565402       0.00000000       50.7420807      -1.50507843    
  0.275435001      -1.33191597     -0.303496003       50.7420807      -1.50507843    
  0.119547002      -1.35239303     -0.303498000       50.7420807      -1.50507843    
  0.275435001      -1.33191597     -0.303496003       21.5935135       1.56166351    
  0.427076995      -1.28898001     -0.303507000       21.5935135       1.56166351    
  0.427242011      -1.28995001     -0.606999993       21.5935135       1.56166351    
  0.275831014      -1.33588004     -0.606999993       21.5935135       1.56166351    
  0.275435001      -1.33191597     -0.303496003       19.8847885       1.56027138    
  0.275831014      -1.33588004     -0.606999993       19.8847885       1.56027138    
  0.119135000      -1.35326600     -0.606999993       19.8847885       1.56027138    
  0.119547002      -1.35239303     -0.303498000       19.8847885       1.56027138    
  0.275435001      -1.33191597     -0.303496003       51.1905785      -1.50605941    
  0.276576012      -1.33565402       0.00000000       51.1905785      -1.50605941    
  0.427509993      -1.28986895       0.00000000       51.1905785      -1.50605941    
  0.427076995      -1.28898001     -0.303507000       51.1905785      -1.50605941    
  0.427509993      -1.28986895       0.00000000       37.6532440      -1.48457217    
  0.574636996      -1.23315501       0.00000000       37.6532440      -1.48457217    
  0.573706985      -1.23136795     -0.303485990       37.6532440      -1.48457217    
  0.427076995      -1.28898001     -0.303507000       37.6532440      -1.48457217    
  0.573706985      -1.23136795     -0.303485990       29.2933598       1.56566107    
  0.712854981      -1.15688002     -0.303496987       29.2933598       1.56566107    
  0.713809013      -1.15876603     -0.606999993       29.2933598       1.56566107    
  0.574283004      -1.23334301     -0.606999993       29.2933598       1.56566107    
  0.573706985      -1.23136795     -0.303485990       23.5497055       1.56357586    
  0.574283004      -1.23334301     -0.606999993       23.5497055       1.56357586    
  0.427242011      -1.28995001     -0.606999993       23.5497055       1.56357586    
  0.427076995      -1.28898001     -0.303507000       23.5497055       1.56357586    
  0.573706985      -1.23136795     -0.303485990       28.9301701      -1.45722437    
  0.574636996      -1.23315501       0.00000000       28.9301701      -1.45722437    
  0.713741004      -1.15880203       0.00000000       28.9301701      -1.45722437    
  0.712854981      -1.15688002     -0.303496987       28.9301701      -1.45722437    
  0.713741004      -1.15880203       0.00000000       29.4737167      -1.45729244    
  0.841937006      -1.06636095       0.00000000       29.4737167      -1.45729244    
  0.841498017      -1.06573403     -0.303485990       29.4737167      -1.45729244    
  0.712854981      -1.15688002     -0.303496987       29.4737167      -1.45729244    
  0.841498017      -1.06573403     -0.303485990       42.6174011       1.56635165    
  0.960639000     -0.962104976     -0.303470999       42.6174011       1.56635165    
  0.964356005     -0.965893984     -0.606999993       42.6174011       1.56635165    
  0.841796994      -1.06647599     -0.606999993       42.6174011       1.56635165    
  0.841498017      -1.06573403     -0.303485990       41.7642136       1.56732929    
  0.841796994      -1.06647599     -0.606999993       41.7642136       1.56732929    
  0.713809013      -1.15876603     -0.606999993       41.7642136       1.56732929    
  0.712854981      -1.15688002     -0.303496987       41.7642136       1.56732929    
  0.841498017      -1.06573403     -0.303485990       60.2533150      -1.51197600    
  0.841937006      -1.06636095       0.00000000       60.2533150      -1.51197600    
  0.963932991     -0.966242015       0.00000000       60.2533150      -1.51197600    
  0.960639000     -0.962104976     -0.303470999       60.2533150      -1.51197600    
  0.963932991     -0.966242015       0.00000000       69.0352097      -1.51841366    
   1.06506598     -0.843514979       0.00000000       69.0352097      -1.51841366    
   1.06428695     -0.842682004     -0.303481996       69.0352097      -1.51841366    
  0.960639000     -0.962104976     -0.303470999       69.0352097      -1.51841366    
   1.06428695     -0.842682004     -0.303481996       50.5528641      -1.56309056    
   1.15591598     -0.714210987     -0.303485006       50.5528641      -1.56309056    
   1.15788805     -0.715448976     -0.606999993       50.5528641      -1.56309056    
   1.06537795     -0.843134999     -0.606999993       50.5528641      -1.56309056    
   1.06428695     -0.842682004     -0.303481996       42.2101593       1.56439996    
   1.06537795     -0.843134999     -0.606999993       42.2101593       1.56439996    
  0.964356005     -0.965893984     -0.606999993       42.2101593       1.56439996    
  0.960639000     -0.962104976     -0.303470999       42.2101593       1.56439996    
   1.06428695     -0.842682004     -0.303481996       71.7474823      -1.52152395    
   1.06506598     -0.843514979       0.00000000       71.7474823      -1.52152395    
   1.15792501     -0.715381980       0.00000000       71.7474823      -1.52152395    
   1.15591598     -0.714210987     -0.303485006       71.7474823      -1.52152395    
   1.15792501     -0.715381980       0.00000000       75.3475800      -1.52410054    
   1.23237598     -0.576093972       0.00000000       75.3475800      -1.52410054    
   1.23120904     -0.575251997     -0.303514004       75.3475800      -1.52410054    
   1.15591598     -0.714210987     -0.303485006       75.3475800      -1.52410054    
   1.23120904     -0.575251997     -0.303514004       51.8436852      -1.55824828    
   1.28844094     -0.428344995     -0.303512990       51.8436852      -1.55824828    
   1.28952503     -0.428642988     -0.606999993       51.8436852      -1.55824828    
   1.23252702     -0.575810015     -0.606999993       51.8436852      -1.55824828    
   1.23120904     -0.575251997     -0.303514004       50.8494530      -1.56035662    
   1.23252702     -0.575810015     -0.606999993       50.8494530      -1.56035662    
   1.15788805     -0.715448976     -0.606999993       50.8494530      -1.56035662    
   1.15591598     -0.714210987     -0.303485006       50.8494530      -1.56035662    
   1.23120904     -0.575251997     -0.303514004       170.141068      -1.55067790    
   1.23237598     -0.576093972       0.00000000       170.141068      -1.55067790    
   1.28947699     -0.428801000       0.00000000       170.141068      -1.55067790    
   1.28844094     -0.428344995     -0.303512990       170.141068      -1.55067790    
   1.28947699     -0.428801000       0.00000000       140.375656      -1.54682708    
   1.33532202     -0.277671993       0.00000000       140.375656      -1.54682708    
   1.33076501     -0.276203990     -0.303492010       140.375656      -1.54682708    
   1.28844094     -0.428344995     -0.303512990       140.375656      -1.54682708    
   1.33076501     -0.276203990     -0.303492010       189.049042      -1.56676757    
   1.35229194     -0.119709998     -0.303514004       189.049042      -1.56676757    
   1.35321999     -0.119608998     -0.606999993       189.049042      -1.56676757    
   1.33549094     -0.277112991     -0.606999993       189.049042      -1.56676757    
   1.33076501     -0.276203990     -0.303492010       60.9907188      -1.55881906    
   1.33549094     -0.277112991     -0.606999993       60.9907188      -1.55881906    
   1.28952503     -0.428642988     -0.606999993       60.9907188      -1.55881906    
   1.28844094     -0.428344995     -0.303512990       60.9907188      -1.55881906    
   1.33076501     -0.276203990     -0.303492010       40.5713539      -1.49013042    
   1.33532202     -0.277671993       0.00000000       40.5713539      -1.49013042    
   1.35319102     -0.119900003       0.00000000       40.5713539      -1.49013042    
   1.35229194     -0.119709998     -0.303514004       40.5713539      -1.49013042    
   1.35319102     -0.119900003       0.00000000       32.7949753      -1.47477615    
   1.36124396       3.81390005E-02   0.00000000       32.7949753      -1.47477615    
   1.35858905       3.79349999E-02 -0.303501010       32.7949753      -1.47477615    
   1.35229194     -0.119709998     -0.303514004       32.7949753      -1.47477615    
   1.35858905       3.79349999E-02 -0.303501010       99.7442017      -1.56380975    
   1.34464097      0.195331007     -0.303496003       99.7442017      -1.56380975    
   1.34573400      0.195616007     -0.606999993       99.7442017      -1.56380975    
   1.36126804       3.78950015E-02 -0.606999993       99.7442017      -1.56380975    
   1.35858905       3.79349999E-02 -0.303501010       94.2224503      -1.56290305    
   1.36126804       3.78950015E-02 -0.606999993       94.2224503      -1.56290305    
   1.35321999     -0.119608998     -0.606999993       94.2224503      -1.56290305    
   1.35229194     -0.119709998     -0.303514004       94.2224503      -1.56290305    
   1.35858905       3.79349999E-02 -0.303501010       153.994827      -1.55118883    
   1.36124396       3.81390005E-02   0.00000000       153.994827      -1.55118883    
   1.34575403      0.195406005       0.00000000       153.994827      -1.55118883    
   1.34464097      0.195331007     -0.303496003       153.994827      -1.55118883    
   1.34575403      0.195406005       0.00000000       140.943665      -1.55096757    
   1.31339800      0.349945009       0.00000000       140.943665      -1.55096757    
   1.31216300      0.349725991     -0.303487003       140.943665      -1.55096757    
   1.34464097      0.195331007     -0.303496003       140.943665      -1.55096757    
   1.31216300      0.349725991     -0.303487003       78.0945892      -1.56358540    
   1.26341999      0.500032008     -0.303494006       78.0945892      -1.56358540    
   1.26736605      0.501691997     -0.606999993       78.0945892      -1.56358540    
   1.31333196      0.350163996     -0.606999993       78.0945892      -1.56358540    
   1.31216300      0.349725991     -0.303487003       101.631119      -1.56458950    
   1.31333196      0.350163996     -0.606999993       101.631119      -1.56458950    
   1.34573400      0.195616007     -0.606999993       101.631119      -1.56458950    
   1.34464097      0.195331007     -0.303496003       101.631119      -1.56458950    
   1.31216300      0.349725991     -0.303487003       127.842560      -1.55117512    
   1.31339800      0.349945009       0.00000000       127.842560      -1.55117512    
   1.26751196      0.501209974       0.00000000       127.842560      -1.55117512    
   1.26341999      0.500032008     -0.303494006       127.842560      -1.55117512    
   1.26751196      0.501209974       0.00000000       11.7369509       1.39045668    
   1.19658697      0.643051028       0.00000000       11.7369509       1.39045668    
   1.19583094      0.642783999     -0.303505003       11.7369509       1.39045668    
   1.26341999      0.500032008     -0.303494006       11.7369509       1.39045668    
   1.19583094      0.642783999     -0.303505003       17.8434067      -1.54695630    
   1.11495602      0.778467000     -0.303483993       17.8434067      -1.54695630    
   1.11731696      0.779847026     -0.606999993       17.8434067      -1.54695630    
   1.19653296      0.643149972     -0.606999993       17.8434067      -1.54695630    
   1.19583094      0.642783999     -0.303505003       79.4494171      -1.56451225    
   1.19653296      0.643149972     -0.606999993       79.4494171      -1.56451225    
   1.26736605      0.501691997     -0.606999993       79.4494171      -1.56451225    
   1.26341999      0.500032008     -0.303494006       79.4494171      -1.56451225    
   1.19583094      0.642783999     -0.303505003       20.1574802       1.49134743    
   1.19658697      0.643051028       0.00000000       20.1574802       1.49134743    
   1.11705506      0.780165970       0.00000000       20.1574802       1.49134743    
   1.11495602      0.778467000     -0.303483993       20.1574802       1.49134743    
   1.11705506      0.780165970       0.00000000       26.3337574       1.52856541    
   1.01674199      0.902397990       0.00000000       26.3337574       1.52856541    
   1.01591504      0.901737988     -0.303478003       26.3337574       1.52856541    
   1.11495602      0.778467000     -0.303483993       26.3337574       1.52856541    
   1.01591504      0.901737988     -0.303478003       89.9454269       1.56866515    
  0.904204011       1.01322901     -0.303456992       89.9454269       1.56866515    
  0.905143023       1.01448905     -0.606999993       89.9454269       1.56866515    
   1.01659799      0.902572989     -0.606999993       89.9454269       1.56866515    
   1.01591504      0.901737988     -0.303478003       91.4682007       1.56717038    
   1.01659799      0.902572989     -0.606999993       91.4682007       1.56717038    
   1.11731696      0.779847026     -0.606999993       91.4682007       1.56717038    
   1.11495602      0.778467000     -0.303483993       91.4682007       1.56717038    
   1.01591504      0.901737988     -0.303478003       31.8643665       1.55062461    
   1.01674199      0.902397990       0.00000000       31.8643665       1.55062461    
  0.905318975       1.01434398       0.00000000       31.8643665       1.55062461    
  0.904204011       1.01322901     -0.303456992       31.8643665       1.55062461    
  0.905318975       1.01434398       0.00000000       101.113068       1.56813931    
  0.782918990       1.11479497       0.00000000       101.113068       1.56813931    
  0.780644000       1.11195600     -0.303485006       101.113068       1.56813931    
  0.904204011       1.01322901     -0.303456992       101.113068       1.56813931    
  0.780644000       1.11195600     -0.303485006       86.8138351       1.57275021    
  0.645825028       1.19414902     -0.303514004       86.8138351       1.57275021    
  0.646153986       1.19492805     -0.606999993       86.8138351       1.57275021    
  0.782611012       1.11504900     -0.606999993       86.8138351       1.57275021    
  0.780644000       1.11195600     -0.303485006       88.4120560       1.57059479    
  0.782611012       1.11504900     -0.606999993       88.4120560       1.57059479    
  0.905143023       1.01448905     -0.606999993       88.4120560       1.57059479    
  0.904204011       1.01322901     -0.303456992       88.4120560       1.57059479    
  0.780644000       1.11195600     -0.303485006       89.9309921       1.57119906    
  0.782918990       1.11479497       0.00000000       89.9309921       1.57119906    
  0.646345019       1.19482601       0.00000000       89.9309921       1.57119906    
  0.645825028       1.19414902     -0.303514004       89.9309921       1.57119906    
  0.646345019       1.19482601       0.00000000       34.7295341       1.57981396    
  0.504974008       1.26637006       0.00000000       34.7295341       1.57981396    
  0.503772974       1.26314998     -0.303521991       34.7295341       1.57981396    
  0.645825028       1.19414902     -0.303514004       34.7295341       1.57981396    
  0.503772974       1.26314998     -0.303521991       96.7056961       1.57568312    
  0.353130996       1.31116498     -0.303510994       96.7056961       1.57568312    
  0.353300005       1.31237996     -0.606999993       96.7056961       1.57568312    
  0.505183995       1.26630700     -0.606999993       96.7056961       1.57568312    
  0.503772974       1.26314998     -0.303521991       89.3407364       1.57470095    
  0.505183995       1.26630700     -0.606999993       89.3407364       1.57470095    
  0.646153986       1.19492805     -0.606999993       89.3407364       1.57470095    
  0.645825028       1.19414902     -0.303514004       89.3407364       1.57470095    
  0.503772974       1.26314998     -0.303521991       40.8720093       1.58445144    
  0.504974008       1.26637006       0.00000000       40.8720093       1.58445144    
  0.353493989       1.31232095       0.00000000       40.8720093       1.58445144    
  0.353130996       1.31116498     -0.303510994       40.8720093       1.58445144    
  0.353493989       1.31232095       0.00000000       48.0372200       1.58777463    
  0.199064001       1.34539402       0.00000000       48.0372200       1.58777463    
  0.198755994       1.34360003     -0.303496003       48.0372200       1.58777463    
  0.353130996       1.31116498     -0.303510994       48.0372200       1.58777463    
  0.198755994       1.34360003     -0.303496003       29.7518463       1.58761275    
   4.12769988E-02   1.35817802     -0.303508013       29.7518463       1.58761275    
   4.12410013E-02   1.36093795     -0.606999993       29.7518463       1.58761275    
  0.199025005       1.34539795     -0.606999993       29.7518463       1.58761275    
  0.198755994       1.34360003     -0.303496003       95.3557510       1.57632053    
  0.199025005       1.34539795     -0.606999993       95.3557510       1.57632053    
  0.353300005       1.31237996     -0.606999993       95.3557510       1.57632053    
  0.353130996       1.31116498     -0.303510994       95.3557510       1.57632053    
  0.198755994       1.34360003     -0.303496003       54.9948273       1.59063089    
  0.199064001       1.34539402       0.00000000       54.9948273       1.59063089    
   4.17769998E-02   1.36088502       0.00000000       54.9948273       1.59063089    
   4.12769988E-02   1.35817802     -0.303508013       54.9948273       1.59063089    
   4.17769998E-02   1.36088502       0.00000000       73.9645615       1.58892930    
 -0.116410002       1.35353506       0.00000000       73.9645615       1.58892930    
 -0.116471998       1.35271096     -0.303496987       73.9645615       1.58892930    
   4.12769988E-02   1.35817802     -0.303508013       73.9645615       1.58892930    
 -0.116471998       1.35271096     -0.303496987       56.2275848       1.57546389    
 -0.273027003       1.33229196     -0.303496003       56.2275848       1.57546389    
 -0.273876995       1.33647299     -0.606999993       56.2275848       1.57546389    
 -0.116722003       1.35350394     -0.606999993       56.2275848       1.57546389    
 -0.116471998       1.35271096     -0.303496987       26.6861134       1.58581293    
 -0.116722003       1.35350394     -0.606999993       26.6861134       1.58581293    
   4.12410013E-02   1.36093795     -0.606999993       26.6861134       1.58581293    
   4.12769988E-02   1.35817802     -0.303508013       26.6861134       1.58581293    
 -0.116471998       1.35271096     -0.303496987       81.1045074       1.59014845    
 -0.116410002       1.35353506       0.00000000       81.1045074       1.59014845    
 -0.274069011       1.33641505       0.00000000       81.1045074       1.59014845    
 -0.273027003       1.33229196     -0.303496003       81.1045074       1.59014845    
 -0.274069011       1.33641505       0.00000000       85.0431519       1.59044445    
 -0.425588995       1.29045200       0.00000000       85.0431519       1.59044445    
 -0.425258011       1.28953803     -0.303507000       85.0431519       1.59044445    
 -0.273027003       1.33229196     -0.303496003       85.0431519       1.59044445    
 -0.425258011       1.28953803     -0.303507000       56.2036209       1.57043803    
 -0.572302997       1.23206902     -0.303485990       56.2036209       1.57043803    
 -0.573064029       1.23399496     -0.606999993       56.2036209       1.57043803    
 -0.425651014       1.29043305     -0.606999993       56.2036209       1.57043803    
 -0.425258011       1.28953803     -0.303507000       55.4261360       1.57287121    
 -0.425651014       1.29043305     -0.606999993       55.4261360       1.57287121    
 -0.273876995       1.33647299     -0.606999993       55.4261360       1.57287121    
 -0.273027003       1.33229196     -0.303496003       55.4261360       1.57287121    
 -0.425258011       1.28953803     -0.303507000       82.0688019       1.59044278    
 -0.425588995       1.29045200       0.00000000       82.0688019       1.59044278    
 -0.573195994       1.23392498       0.00000000       82.0688019       1.59044278    
 -0.572302997       1.23206902     -0.303485990       82.0688019       1.59044278    
 -0.573195994       1.23392498       0.00000000       72.9668503       1.59066296    
 -0.712655008       1.15938199       0.00000000       72.9668503       1.59066296    
 -0.711889029       1.15749002     -0.303496003       72.9668503       1.59066296    
 -0.572302997       1.23206902     -0.303485990       72.9668503       1.59066296    
 -0.711889029       1.15749002     -0.303496003       51.2212982       1.56720626    
 -0.840825975       1.06629205     -0.303485990       51.2212982       1.56720626    
 -0.841368973       1.06682706     -0.606999993       51.2212982       1.56720626    
 -0.712980986       1.15920806     -0.606999993       51.2212982       1.56720626    
 -0.711889029       1.15749002     -0.303496003       47.0348167       1.56826007    
 -0.712980986       1.15920806     -0.606999993       47.0348167       1.56826007    
 -0.573064029       1.23399496     -0.606999993       47.0348167       1.56826007    
 -0.572302997       1.23206902     -0.303485990       47.0348167       1.56826007    
 -0.711889029       1.15749002     -0.303496003       75.7375946       1.58626413    
 -0.712655008       1.15938199       0.00000000       75.7375946       1.58626413    
 -0.841165006       1.06699395       0.00000000       75.7375946       1.58626413    
 -0.840825975       1.06629205     -0.303485990       75.7375946       1.58626413    
 -0.841165006       1.06699395       0.00000000       71.4426575       1.58242977    
 -0.963320017      0.966744006       0.00000000       71.4426575       1.58242977    
 -0.960084975      0.962615013     -0.303470999       71.4426575       1.58242977    
 -0.840825975       1.06629205     -0.303485990       71.4426575       1.58242977    
 -0.960084975      0.962615013     -0.303470999       52.1058083       1.56602216    
  -1.06383705      0.843237996     -0.303481996       52.1058083       1.56602216    
  -1.06481802      0.843816996     -0.606999993       52.1058083       1.56602216    
 -0.963873982      0.966289997     -0.606999993       52.1058083       1.56602216    
 -0.960084975      0.962615013     -0.303470999       53.4059982       1.56660473    
 -0.963873982      0.966289997     -0.606999993       53.4059982       1.56660473    
 -0.841368973       1.06682706     -0.606999993       53.4059982       1.56660473    
 -0.840825975       1.06629205     -0.303485990       53.4059982       1.56660473    
 -0.960084975      0.962615013     -0.303470999       76.8928757       1.57655120    
 -0.963320017      0.966744006       0.00000000       76.8928757       1.57655120    
  -1.06464398      0.844029009       0.00000000       76.8928757       1.57655120    
  -1.06383705      0.843237996     -0.303481996       76.8928757       1.57655120    
  -1.06464398      0.844029009       0.00000000       68.5471268       1.57049596    
  -1.15769398      0.715813994       0.00000000       68.5471268       1.57049596    
  -1.15564799      0.714680016     -0.303483993       68.5471268       1.57049596    
  -1.06383705      0.843237996     -0.303481996       68.5471268       1.57049596    
  -1.15564799      0.714680016     -0.303483993       85.9340668       1.56727707    
  -1.23108304      0.575536013     -0.303514004       85.9340668       1.56727707    
  -1.23232996      0.576179981     -0.606999993       85.9340668       1.56727707    
  -1.15756094      0.716063023     -0.606999993       85.9340668       1.56727707    
  -1.15564799      0.714680016     -0.303483993       60.0197525       1.56618166    
  -1.15756094      0.716063023     -0.606999993       60.0197525       1.56618166    
  -1.06481802      0.843816996     -0.606999993       60.0197525       1.56618166    
  -1.06383705      0.843237996     -0.303481996       60.0197525       1.56618166    
  -1.15564799      0.714680016     -0.303483993       59.4638252       1.56235194    
  -1.15769398      0.715813994       0.00000000       59.4638252       1.56235194    
  -1.23224795      0.576331973       0.00000000       59.4638252       1.56235194    
  -1.23108304      0.575536013     -0.303514004       59.4638252       1.56235194    
  -1.23224795      0.576331973       0.00000000       48.9491043       1.55035412    
  -1.28948605      0.428772002       0.00000000       48.9491043       1.55035412    
  -1.28842103      0.428404987     -0.303512990       48.9491043       1.55035412    
  -1.23108304      0.575536013     -0.303514004       48.9491043       1.55035412    
  -1.28842103      0.428404987     -0.303512990       17.1180496      -1.55088222    
  -1.33082402      0.275959998     -0.303492010       17.1180496      -1.55088222    
  -1.33550000      0.277083993     -0.606999993       17.1180496      -1.55088222    