 VARIABLES="X" "Y" "Z" "abs(p) (Pa)" "angle(p) (rad)"
ZONE N=   2720,E =    2069, F=FEPOINT, ET=QUADRILATERAL
 -0.767116010      -1.12776399       0.00000000       1594.58130      -1.60761976    
 -0.769354999      -1.12002099     -0.303523988       1594.58130      -1.60761976    
 -0.896136999      -1.02028203     -0.303463012       1594.58130      -1.60761976    
 -0.894908011      -1.02288902       0.00000000       1594.58130      -1.60761976    
 -0.767116010      -1.12776399       0.00000000       1728.01843      -1.60758460    
 -0.630888999      -1.20308697       0.00000000       1728.01843      -1.60758460    
 -0.635528028      -1.19958198     -0.303541005       1728.01843      -1.60758460    
 -0.769354999      -1.12002099     -0.303523988       1728.01843      -1.60758460    
 -0.635528028      -1.19958198     -0.303541005       1409.32471      -1.62180829    
 -0.495362997      -1.26606500     -0.303519011       1409.32471      -1.62180829    
 -0.499298006      -1.26809204     -0.606999993       1409.32471      -1.62180829    
 -0.640147984      -1.19813800     -0.606998026       1409.32471      -1.62180829    
 -0.635528028      -1.19958198     -0.303541005       1326.80200      -1.62170696    
 -0.640147984      -1.19813800     -0.606998026       1326.80200      -1.62170696    
 -0.777105987      -1.11956596     -0.606999993       1326.80200      -1.62170696    
 -0.769354999      -1.12002099     -0.303523988       1326.80200      -1.62170696    
 -0.635528028      -1.19958198     -0.303541005       1833.80298      -1.60761082    
 -0.630888999      -1.20308697       0.00000000       1833.80298      -1.60761082    
 -0.494486004      -1.26955199       0.00000000       1833.80298      -1.60761082    
 -0.495362997      -1.26606500     -0.303519011       1833.80298      -1.60761082    
 -0.494486004      -1.26955199       0.00000000       1917.90076      -1.60759330    
 -0.346311986      -1.31449997       0.00000000       1917.90076      -1.60759330    
 -0.346753001      -1.31307304     -0.303510010       1917.90076      -1.60759330    
 -0.495362997      -1.26606500     -0.303519011       1917.90076      -1.60759330    
 -0.346753001      -1.31307304     -0.303510010       1522.51306      -1.62165475    
 -0.193608001      -1.34425998     -0.303494990       1522.51306      -1.62165475    
 -0.195028007      -1.34579206     -0.606999993       1522.51306      -1.62165475    
 -0.348751009      -1.31376004     -0.606999993       1522.51306      -1.62165475    
 -0.346753001      -1.31307304     -0.303510010       1476.42993      -1.62170768    
 -0.348751009      -1.31376004     -0.606999993       1476.42993      -1.62170768    
 -0.499298006      -1.26809204     -0.606999993       1476.42993      -1.62170768    
 -0.495362997      -1.26606500     -0.303519011       1476.42993      -1.62170768    
 -0.346753001      -1.31307304     -0.303510010       1978.56152      -1.60753977    
 -0.346311986      -1.31449997       0.00000000       1978.56152      -1.60753977    
 -0.193381995      -1.34595394       0.00000000       1978.56152      -1.60753977    
 -0.193608001      -1.34425998     -0.303494990       1978.56152      -1.60753977    
 -0.193381995      -1.34595394       0.00000000       2013.94495      -1.60751224    
  -3.75179984E-02  -1.36130500       0.00000000       2013.94495      -1.60751224    
  -3.73950005E-02  -1.35827899     -0.303512007       2013.94495      -1.60751224    
 -0.193608001      -1.34425998     -0.303494990       2013.94495      -1.60751224    
  -3.73950005E-02  -1.35827899     -0.303512007       1553.33374      -1.62161982    
  0.119547002      -1.35239303     -0.303498000       1553.33374      -1.62161982    
  0.119135000      -1.35326600     -0.606999993       1553.33374      -1.62161982    
  -3.82840000E-02  -1.36122894     -0.606998980       1553.33374      -1.62161982    
  -3.73950005E-02  -1.35827899     -0.303512007       1548.32288      -1.62167645    
  -3.82840000E-02  -1.36122894     -0.606998980       1548.32288      -1.62167645    
 -0.195028007      -1.34579206     -0.606999993       1548.32288      -1.62167645    
 -0.193608001      -1.34425998     -0.303494990       1548.32288      -1.62167645    
  -3.73950005E-02  -1.35827899     -0.303512007       2018.08057      -1.60749662    
  -3.75179984E-02  -1.36130500       0.00000000       2018.08057      -1.60749662    
  0.119788997      -1.35320199       0.00000000       2018.08057      -1.60749662    
  0.119547002      -1.35239303     -0.303498000       2018.08057      -1.60749662    
  0.119788997      -1.35320199       0.00000000       1995.16675      -1.60754895    
  0.276576012      -1.33565402       0.00000000       1995.16675      -1.60754895    
  0.275435001      -1.33191597     -0.303496003       1995.16675      -1.60754895    
  0.119547002      -1.35239303     -0.303498000       1995.16675      -1.60754895    
  0.275435001      -1.33191597     -0.303496003       1499.50085      -1.62199450    
  0.427076995      -1.28898001     -0.303507000       1499.50085      -1.62199450    
  0.427242011      -1.28995001     -0.606999993       1499.50085      -1.62199450    
  0.275831014      -1.33588004     -0.606999993       1499.50085      -1.62199450    
  0.275435001      -1.33191597     -0.303496003       1537.54517      -1.62190402    
  0.275831014      -1.33588004     -0.606999993       1537.54517      -1.62190402    
  0.119135000      -1.35326600     -0.606999993       1537.54517      -1.62190402    
  0.119547002      -1.35239303     -0.303498000       1537.54517      -1.62190402    
  0.275435001      -1.33191597     -0.303496003       1943.85388      -1.60763907    
  0.276576012      -1.33565402       0.00000000       1943.85388      -1.60763907    
  0.427509993      -1.28986895       0.00000000       1943.85388      -1.60763907    
  0.427076995      -1.28898001     -0.303507000       1943.85388      -1.60763907    
  0.427509993      -1.28986895       0.00000000       1869.60425      -1.60753572    
  0.574636996      -1.23315501       0.00000000       1869.60425      -1.60753572    
  0.573706985      -1.23136795     -0.303485990       1869.60425      -1.60753572    
  0.427076995      -1.28898001     -0.303507000       1869.60425      -1.60753572    
  0.573706985      -1.23136795     -0.303485990       1366.99561      -1.62195420    
  0.712854981      -1.15688002     -0.303496987       1366.99561      -1.62195420    
  0.713809013      -1.15876603     -0.606999993       1366.99561      -1.62195420    
  0.574283004      -1.23334301     -0.606999993       1366.99561      -1.62195420    
  0.573706985      -1.23136795     -0.303485990       1443.37842      -1.62190413    
  0.574283004      -1.23334301     -0.606999993       1443.37842      -1.62190413    
  0.427242011      -1.28995001     -0.606999993       1443.37842      -1.62190413    
  0.427076995      -1.28898001     -0.303507000       1443.37842      -1.62190413    
  0.573706985      -1.23136795     -0.303485990       1773.46521      -1.60742831    
  0.574636996      -1.23315501       0.00000000       1773.46521      -1.60742831    
  0.713741004      -1.15880203       0.00000000       1773.46521      -1.60742831    
  0.712854981      -1.15688002     -0.303496987       1773.46521      -1.60742831    
  0.713741004      -1.15880203       0.00000000       1651.22876      -1.60739422    
  0.841937006      -1.06636095       0.00000000       1651.22876      -1.60739422    
  0.841498017      -1.06573403     -0.303485990       1651.22876      -1.60739422    
  0.712854981      -1.15688002     -0.303496987       1651.22876      -1.60739422    
  0.841498017      -1.06573403     -0.303485990       1161.07861      -1.62199914    
  0.960639000     -0.962104976     -0.303470999       1161.07861      -1.62199914    
  0.964356005     -0.965893984     -0.606999993       1161.07861      -1.62199914    
  0.841796994      -1.06647599     -0.606999993       1161.07861      -1.62199914    
  0.841498017      -1.06573403     -0.303485990       1272.17151      -1.62198365    
  0.841796994      -1.06647599     -0.606999993       1272.17151      -1.62198365    
  0.713809013      -1.15876603     -0.606999993       1272.17151      -1.62198365    
  0.712854981      -1.15688002     -0.303496987       1272.17151      -1.62198365    
  0.841498017      -1.06573403     -0.303485990       1508.20874      -1.60766089    
  0.841937006      -1.06636095       0.00000000       1508.20874      -1.60766089    
  0.963932991     -0.966242015       0.00000000       1508.20874      -1.60766089    
  0.960639000     -0.962104976     -0.303470999       1508.20874      -1.60766089    
  0.963932991     -0.966242015       0.00000000       1340.21777      -1.60792947    
   1.06506598     -0.843514979       0.00000000       1340.21777      -1.60792947    
   1.06428695     -0.842682004     -0.303481996       1340.21777      -1.60792947    
  0.960639000     -0.962104976     -0.303470999       1340.21777      -1.60792947    
   1.06428695     -0.842682004     -0.303481996       892.477905      -1.62240732    
   1.15591598     -0.714210987     -0.303485006       892.477905      -1.62240732    
   1.15788805     -0.715448976     -0.606999993       892.477905      -1.62240732    
   1.06537795     -0.843134999     -0.606999993       892.477905      -1.62240732    
   1.06428695     -0.842682004     -0.303481996       1030.09363      -1.62237203    
   1.06537795     -0.843134999     -0.606999993       1030.09363      -1.62237203    
  0.964356005     -0.965893984     -0.606999993       1030.09363      -1.62237203    
  0.960639000     -0.962104976     -0.303470999       1030.09363      -1.62237203    
   1.06428695     -0.842682004     -0.303481996       1156.81921      -1.60781419    
   1.06506598     -0.843514979       0.00000000       1156.81921      -1.60781419    
   1.15792501     -0.715381980       0.00000000       1156.81921      -1.60781419    
   1.15591598     -0.714210987     -0.303485006       1156.81921      -1.60781419    
   1.15792501     -0.715381980       0.00000000       956.730713      -1.60804832    
   1.23237598     -0.576093972       0.00000000       956.730713      -1.60804832    
   1.23120904     -0.575251997     -0.303514004       956.730713      -1.60804832    
   1.15591598     -0.714210987     -0.303485006       956.730713      -1.60804832    
   1.23120904     -0.575251997     -0.303514004       574.743530      -1.62296903    
   1.28844094     -0.428344995     -0.303512990       574.743530      -1.62296903    
   1.28952503     -0.428642988     -0.606999993       574.743530      -1.62296903    
   1.23252702     -0.575810015     -0.606999993       574.743530      -1.62296903    
   1.23120904     -0.575251997     -0.303514004       738.338135      -1.62269247    
   1.23252702     -0.575810015     -0.606999993       738.338135      -1.62269247    
   1.15788805     -0.715448976     -0.606999993       738.338135      -1.62269247    
   1.15591598     -0.714210987     -0.303485006       738.338135      -1.62269247    
   1.23120904     -0.575251997     -0.303514004       744.352539      -1.60873115    
   1.23237598     -0.576093972       0.00000000       744.352539      -1.60873115    
   1.28947699     -0.428801000       0.00000000       744.352539      -1.60873115    
   1.28844094     -0.428344995     -0.303512990       744.352539      -1.60873115    
   1.28947699     -0.428801000       0.00000000       526.042969      -1.60808027    
   1.33532202     -0.277671993       0.00000000       526.042969      -1.60808027    
   1.33076501     -0.276203990     -0.303492010       526.042969      -1.60808027    
   1.28844094     -0.428344995     -0.303512990       526.042969      -1.60808027    
   1.33076501     -0.276203990     -0.303492010       225.344330      -1.62546539    
   1.35229194     -0.119709998     -0.303514004       225.344330      -1.62546539    
   1.35321999     -0.119608998     -0.606999993       225.344330      -1.62546539    
   1.33549094     -0.277112991     -0.606999993       225.344330      -1.62546539    
   1.33076501     -0.276203990     -0.303492010       406.103943      -1.62302768    
   1.33549094     -0.277112991     -0.606999993       406.103943      -1.62302768    
   1.28952503     -0.428642988     -0.606999993       406.103943      -1.62302768    
   1.28844094     -0.428344995     -0.303512990       406.103943      -1.62302768    
   1.33076501     -0.276203990     -0.303492010       294.355530      -1.60817397    
   1.33532202     -0.277671993       0.00000000       294.355530      -1.60817397    
   1.35319102     -0.119900003       0.00000000       294.355530      -1.60817397    
   1.35229194     -0.119709998     -0.303514004       294.355530      -1.60817397    
   1.35319102     -0.119900003       0.00000000       63.1986313      -1.60629654    
   1.36124396       3.81390005E-02   0.00000000       63.1986313      -1.60629654    
   1.35858905       3.79349999E-02 -0.303501010       63.1986313      -1.60629654    
   1.35229194     -0.119709998     -0.303514004       63.1986313      -1.60629654    
   1.35858905       3.79349999E-02 -0.303501010       133.302704       1.52272117    
   1.34464097      0.195331007     -0.303496003       133.302704       1.52272117    
   1.34573400      0.195616007     -0.606999993       133.302704       1.52272117    
   1.36126804       3.78950015E-02 -0.606999993       133.302704       1.52272117    
   1.35858905       3.79349999E-02 -0.303501010       49.0187340      -1.62548411    
   1.36126804       3.78950015E-02 -0.606999993       49.0187340      -1.62548411    
   1.35321999     -0.119608998     -0.606999993       49.0187340      -1.62548411    
   1.35229194     -0.119709998     -0.303514004       49.0187340      -1.62548411    
   1.35858905       3.79349999E-02 -0.303501010       172.466248       1.53397346    
   1.36124396       3.81390005E-02   0.00000000       172.466248       1.53397346    
   1.34575403      0.195406005       0.00000000       172.466248       1.53397346    
   1.34464097      0.195331007     -0.303496003       172.466248       1.53397346    
   1.34575403      0.195406005       0.00000000       403.369659       1.53383577    
   1.31339800      0.349945009       0.00000000       403.369659       1.53383577    
   1.31216300      0.349725991     -0.303487003       403.369659       1.53383577    
   1.34464097      0.195331007     -0.303496003       403.369659       1.53383577    
   1.31216300      0.349725991     -0.303487003       483.296326       1.51932263    
   1.26341999      0.500032008     -0.303494006       483.296326       1.51932263    
   1.26736605      0.501691997     -0.606999993       483.296326       1.51932263    
   1.31333196      0.350163996     -0.606999993       483.296326       1.51932263    
   1.31216300      0.349725991     -0.303487003       311.560333       1.52099860    
   1.31333196      0.350163996     -0.606999993       311.560333       1.52099860    
   1.34573400      0.195616007     -0.606999993       311.560333       1.52099860    
   1.34464097      0.195331007     -0.303496003       311.560333       1.52099860    
   1.31216300      0.349725991     -0.303487003       627.702393       1.53359723    
   1.31339800      0.349945009       0.00000000       627.702393       1.53359723    
   1.26751196      0.501209974       0.00000000       627.702393       1.53359723    
   1.26341999      0.500032008     -0.303494006       627.702393       1.53359723    
   1.26751196      0.501209974       0.00000000       848.215698       1.53404438    
   1.19658697      0.643051028       0.00000000       848.215698       1.53404438    
   1.19583094      0.642783999     -0.303505003       848.215698       1.53404438    
   1.26341999      0.500032008     -0.303494006       848.215698       1.53404438    
   1.19583094      0.642783999     -0.303505003       810.482483       1.51953232    
   1.11495602      0.778467000     -0.303483993       810.482483       1.51953232    
   1.11731696      0.779847026     -0.606999993       810.482483       1.51953232    
   1.19653296      0.643149972     -0.606999993       810.482483       1.51953232    
   1.19583094      0.642783999     -0.303505003       653.744629       1.51986253    
   1.19653296      0.643149972     -0.606999993       653.744629       1.51986253    
   1.26736605      0.501691997     -0.606999993       653.744629       1.51986253    
   1.26341999      0.500032008     -0.303494006       653.744629       1.51986253    
   1.19583094      0.642783999     -0.303505003       1053.48621       1.53395271    
   1.19658697      0.643051028       0.00000000       1053.48621       1.53395271    
   1.11705506      0.780165970       0.00000000       1053.48621       1.53395271    
   1.11495602      0.778467000     -0.303483993       1053.48621       1.53395271    
   1.11705506      0.780165970       0.00000000       1247.21021       1.53415322    
   1.01674199      0.902397990       0.00000000       1247.21021       1.53415322    
   1.01591504      0.901737988     -0.303478003       1247.21021       1.53415322    
   1.11495602      0.778467000     -0.303483993       1247.21021       1.53415322    
   1.01591504      0.901737988     -0.303478003       1094.95447       1.51977658    
  0.904204011       1.01322901     -0.303456992       1094.95447       1.51977658    
  0.905143023       1.01448905     -0.606999993       1094.95447       1.51977658    
   1.01659799      0.902572989     -0.606999993       1094.95447       1.51977658    
   1.01591504      0.901737988     -0.303478003       960.744141       1.51977277    
   1.01659799      0.902572989     -0.606999993       960.744141       1.51977277    
   1.11731696      0.779847026     -0.606999993       960.744141       1.51977277    
   1.11495602      0.778467000     -0.303483993       960.744141       1.51977277    
   1.01591504      0.901737988     -0.303478003       1419.80273       1.53413332    
   1.01674199      0.902397990       0.00000000       1419.80273       1.53413332    
  0.905318975       1.01434398       0.00000000       1419.80273       1.53413332    
  0.904204011       1.01322901     -0.303456992       1419.80273       1.53413332    
  0.905318975       1.01434398       0.00000000       1576.71594       1.53408241    
  0.782918990       1.11479497       0.00000000       1576.71594       1.53408241    
  0.780644000       1.11195600     -0.303485006       1576.71594       1.53408241    
  0.904204011       1.01322901     -0.303456992       1576.71594       1.53408241    
  0.780644000       1.11195600     -0.303485006       1319.20667       1.51983571    
  0.645825028       1.19414902     -0.303514004       1319.20667       1.51983571    
  0.646153986       1.19492805     -0.606999993       1319.20667       1.51983571    
  0.782611012       1.11504900     -0.606999993       1319.20667       1.51983571    
  0.780644000       1.11195600     -0.303485006       1214.11255       1.51969540    
  0.782611012       1.11504900     -0.606999993       1214.11255       1.51969540    
  0.905143023       1.01448905     -0.606999993       1214.11255       1.51969540    
  0.904204011       1.01322901     -0.303456992       1214.11255       1.51969540    
  0.780644000       1.11195600     -0.303485006       1711.10095       1.53406239    
  0.782918990       1.11479497       0.00000000       1711.10095       1.53406239    
  0.646345019       1.19482601       0.00000000       1711.10095       1.53406239    
  0.645825028       1.19414902     -0.303514004       1711.10095       1.53406239    
  0.646345019       1.19482601       0.00000000       1821.67908       1.53397954    
  0.504974008       1.26637006       0.00000000       1821.67908       1.53397954    
  0.503772974       1.26314998     -0.303521991       1821.67908       1.53397954    
  0.645825028       1.19414902     -0.303514004       1821.67908       1.53397954    
  0.503772974       1.26314998     -0.303521991       1471.66821       1.51977456    
  0.353130996       1.31116498     -0.303510994       1471.66821       1.51977456    
  0.353300005       1.31237996     -0.606999993       1471.66821       1.51977456    
  0.505183995       1.26630700     -0.606999993       1471.66821       1.51977456    
  0.503772974       1.26314998     -0.303521991       1403.61731       1.51971471    
  0.505183995       1.26630700     -0.606999993       1403.61731       1.51971471    
  0.646153986       1.19492805     -0.606999993       1403.61731       1.51971471    
  0.645825028       1.19414902     -0.303514004       1403.61731       1.51971471    
  0.503772974       1.26314998     -0.303521991       1908.45691       1.53399646    
  0.504974008       1.26637006       0.00000000       1908.45691       1.53399646    
  0.353493989       1.31232095       0.00000000       1908.45691       1.53399646    
  0.353130996       1.31116498     -0.303510994       1908.45691       1.53399646    
  0.353493989       1.31232095       0.00000000       1967.77795       1.53399205    
  0.199064001       1.34539402       0.00000000       1967.77795       1.53399205    
  0.198755994       1.34360003     -0.303496003       1967.77795       1.53399205    
  0.353130996       1.31116498     -0.303510994       1967.77795       1.53399205    
  0.198755994       1.34360003     -0.303496003       1543.91211       1.51975989    
   4.12769988E-02   1.35817802     -0.303508013       1543.91211       1.51975989    
   4.12410013E-02   1.36093795     -0.606999993       1543.91211       1.51975989    
  0.199025005       1.34539795     -0.606999993       1543.91211       1.51975989    
  0.198755994       1.34360003     -0.303496003       1518.13647       1.51979792    
  0.199025005       1.34539795     -0.606999993       1518.13647       1.51979792    
  0.353300005       1.31237996     -0.606999993       1518.13647       1.51979792    
  0.353130996       1.31116498     -0.303510994       1518.13647       1.51979792    
  0.198755994       1.34360003     -0.303496003       2003.65942       1.53399384    
  0.199064001       1.34539402       0.00000000       2003.65942       1.53399384    
   4.17769998E-02   1.36088502       0.00000000       2003.65942       1.53399384    
   4.12769988E-02   1.35817802     -0.303508013       2003.65942       1.53399384    
   4.17769998E-02   1.36088502       0.00000000       2013.46790       1.53398967    
 -0.116410002       1.35353506       0.00000000       2013.46790       1.53398967    
 -0.116471998       1.35271096     -0.303496987       2013.46790       1.53398967    
   4.12769988E-02   1.35817802     -0.303508013       2013.46790       1.53398967    
 -0.116471998       1.35271096     -0.303496987       1534.71216       1.51949668    
 -0.273027003       1.33229196     -0.303496003       1534.71216       1.51949668    
 -0.273876995       1.33647299     -0.606999993       1534.71216       1.51949668    
 -0.116722003       1.35350394     -0.606999993       1534.71216       1.51949668    
 -0.116471998       1.35271096     -0.303496987       1550.05493       1.51980627    
 -0.116722003       1.35350394     -0.606999993       1550.05493       1.51980627    
   4.12410013E-02   1.36093795     -0.606999993       1550.05493       1.51980627    
   4.12769988E-02   1.35817802     -0.303508013       1550.05493       1.51980627    
 -0.116471998       1.35271096     -0.303496987       1996.54895       1.53394663    
 -0.116410002       1.35353506       0.00000000       1996.54895       1.53394663    
 -0.274069011       1.33641505       0.00000000       1996.54895       1.53394663    
 -0.273027003       1.33229196     -0.303496003       1996.54895       1.53394663    
 -0.274069011       1.33641505       0.00000000       1948.69495       1.53389263    
 -0.425588995       1.29045200       0.00000000       1948.69495       1.53389263    
 -0.425258011       1.28953803     -0.303507000       1948.69495       1.53389263    
 -0.273027003       1.33229196     -0.303496003       1948.69495       1.53389263    
 -0.425258011       1.28953803     -0.303507000       1443.71692       1.51962531    
 -0.572302997       1.23206902     -0.303485990       1443.71692       1.51962531    
 -0.573064029       1.23399496     -0.606999993       1443.71692       1.51962531    
 -0.425651014       1.29043305     -0.606999993       1443.71692       1.51962531    
 -0.425258011       1.28953803     -0.303507000       1497.84094       1.51944005    
 -0.425651014       1.29043305     -0.606999993       1497.84094       1.51944005    
 -0.273876995       1.33647299     -0.606999993       1497.84094       1.51944005    
 -0.273027003       1.33229196     -0.303496003       1497.84094       1.51944005    
 -0.425258011       1.28953803     -0.303507000       1875.75854       1.53406894    
 -0.425588995       1.29045200       0.00000000       1875.75854       1.53406894    
 -0.573195994       1.23392498       0.00000000       1875.75854       1.53406894    
 -0.572302997       1.23206902     -0.303485990       1875.75854       1.53406894    
 -0.573195994       1.23392498       0.00000000       1779.38586       1.53422821    
 -0.712655008       1.15938199       0.00000000       1779.38586       1.53422821    
 -0.711889029       1.15749002     -0.303496003       1779.38586       1.53422821    
 -0.572302997       1.23206902     -0.303485990       1779.38586       1.53422821    
 -0.711889029       1.15749002     -0.303496003       1273.29871       1.51963544    
 -0.840825975       1.06629205     -0.303485990       1273.29871       1.51963544    
 -0.841368973       1.06682706     -0.606999993       1273.29871       1.51963544    
 -0.712980986       1.15920806     -0.606999993       1273.29871       1.51963544    
 -0.711889029       1.15749002     -0.303496003       1367.80420       1.51961005    
 -0.712980986       1.15920806     -0.606999993       1367.80420       1.51961005    
 -0.573064029       1.23399496     -0.606999993       1367.80420       1.51961005    
 -0.572302997       1.23206902     -0.303485990       1367.80420       1.51961005    
 -0.711889029       1.15749002     -0.303496003       1655.50220       1.53439367    
 -0.712655008       1.15938199       0.00000000       1655.50220       1.53439367    
 -0.841165006       1.06699395       0.00000000       1655.50220       1.53439367    
 -0.840825975       1.06629205     -0.303485990       1655.50220       1.53439367    
 -0.841165006       1.06699395       0.00000000       1512.05994       1.53449249    
 -0.963320017      0.966744006       0.00000000       1512.05994       1.53449249    
 -0.960084975      0.962615013     -0.303470999       1512.05994       1.53449249    
 -0.840825975       1.06629205     -0.303485990       1512.05994       1.53449249    
 -0.960084975      0.962615013     -0.303470999       1032.04443       1.51940084    
  -1.06383705      0.843237996     -0.303481996       1032.04443       1.51940084    
  -1.06481802      0.843816996     -0.606999993       1032.04443       1.51940084    
 -0.963873982      0.966289997     -0.606999993       1032.04443       1.51940084    
 -0.960084975      0.962615013     -0.303470999       1163.52075       1.51974368    
 -0.963873982      0.966289997     -0.606999993       1163.52075       1.51974368    
 -0.841368973       1.06682706     -0.606999993       1163.52075       1.51974368    
 -0.840825975       1.06629205     -0.303485990       1163.52075       1.51974368    
 -0.960084975      0.962615013     -0.303470999       1343.18896       1.53429711    
 -0.963320017      0.966744006       0.00000000       1343.18896       1.53429711    
  -1.06464398      0.844029009       0.00000000       1343.18896       1.53429711    
  -1.06383705      0.843237996     -0.303481996       1343.18896       1.53429711    
  -1.06464398      0.844029009       0.00000000       1159.56079       1.53442180    
  -1.15769398      0.715813994       0.00000000       1159.56079       1.53442180    
  -1.15564799      0.714680016     -0.303483993       1159.56079       1.53442180    
  -1.06383705      0.843237996     -0.303481996       1159.56079       1.53442180    
  -1.15564799      0.714680016     -0.303483993       738.650574       1.51947212    
  -1.23108304      0.575536013     -0.303514004       738.650574       1.51947212    
  -1.23232996      0.576179981     -0.606999993       738.650574       1.51947212    
  -1.15756094      0.716063023     -0.606999993       738.650574       1.51947212    
  -1.15564799      0.714680016     -0.303483993       893.109253       1.51961005    
  -1.15756094      0.716063023     -0.606999993       893.109253       1.51961005    
  -1.06481802      0.843816996     -0.606999993       893.109253       1.51961005    
  -1.06383705      0.843237996     -0.303481996       893.109253       1.51961005    
  -1.15564799      0.714680016     -0.303483993       959.941345       1.53426182    
  -1.15769398      0.715813994       0.00000000       959.941345       1.53426182    
  -1.23224795      0.576331973       0.00000000       959.941345       1.53426182    
  -1.23108304      0.575536013     -0.303514004       959.941345       1.53426182    
  -1.23224795      0.576331973       0.00000000       746.319519       1.53411531    
  -1.28948605      0.428772002       0.00000000       746.319519       1.53411531    
  -1.28842103      0.428404987     -0.303512990       746.319519       1.53411531    
  -1.23108304      0.575536013     -0.303514004       746.319519       1.53411531    
  -1.28842103      0.428404987     -0.303512990       404.621490       1.51915419    
  -1.33082402      0.275959998     -0.303492010       404.621490       1.51915419    
  -1.33550000      0.277083993     -0.606999993       404.621490       1.51915419    