 VARIABLES="X" "Y" "Z" "abs(p) (Pa)" "angle(p) (rad)"
ZONE N=   2720,E =    2069, F=FEPOINT, ET=QUADRILATERAL
 -0.767116010      -1.12776399       0.00000000       1778.80994      -1.60374892    
 -0.769354999      -1.12002099     -0.303523988       1778.80994      -1.60374892    
 -0.896136999      -1.02028203     -0.303463012       1778.80994      -1.60374892    
 -0.894908011      -1.02288902       0.00000000       1778.80994      -1.60374892    
 -0.767116010      -1.12776399       0.00000000       1927.53479      -1.60371757    
 -0.630888999      -1.20308697       0.00000000       1927.53479      -1.60371757    
 -0.635528028      -1.19958198     -0.303541005       1927.53479      -1.60371757    
 -0.769354999      -1.12002099     -0.303523988       1927.53479      -1.60371757    
 -0.635528028      -1.19958198     -0.303541005       1566.00464      -1.61589885    
 -0.495362997      -1.26606500     -0.303519011       1566.00464      -1.61589885    
 -0.499298006      -1.26809204     -0.606999993       1566.00464      -1.61589885    
 -0.640147984      -1.19813800     -0.606998026       1566.00464      -1.61589885    
 -0.635528028      -1.19958198     -0.303541005       1474.28979      -1.61581004    
 -0.640147984      -1.19813800     -0.606998026       1474.28979      -1.61581004    
 -0.777105987      -1.11956596     -0.606999993       1474.28979      -1.61581004    
 -0.769354999      -1.12002099     -0.303523988       1474.28979      -1.61581004    
 -0.635528028      -1.19958198     -0.303541005       2045.49438      -1.60374141    
 -0.630888999      -1.20308697       0.00000000       2045.49438      -1.60374141    
 -0.494486004      -1.26955199       0.00000000       2045.49438      -1.60374141    
 -0.495362997      -1.26606500     -0.303519011       2045.49438      -1.60374141    
 -0.494486004      -1.26955199       0.00000000       2139.23706      -1.60372853    
 -0.346311986      -1.31449997       0.00000000       2139.23706      -1.60372853    
 -0.346753001      -1.31307304     -0.303510010       2139.23706      -1.60372853    
 -0.495362997      -1.26606500     -0.303519011       2139.23706      -1.60372853    
 -0.346753001      -1.31307304     -0.303510010       1691.70190      -1.61576247    
 -0.193608001      -1.34425998     -0.303494990       1691.70190      -1.61576247    
 -0.195028007      -1.34579206     -0.606999993       1691.70190      -1.61576247    
 -0.348751009      -1.31376004     -0.606999993       1691.70190      -1.61576247    
 -0.346753001      -1.31307304     -0.303510010       1640.51648      -1.61581135    
 -0.348751009      -1.31376004     -0.606999993       1640.51648      -1.61581135    
 -0.499298006      -1.26809204     -0.606999993       1640.51648      -1.61581135    
 -0.495362997      -1.26606500     -0.303519011       1640.51648      -1.61581135    
 -0.346753001      -1.31307304     -0.303510010       2207.22119      -1.60367608    
 -0.346311986      -1.31449997       0.00000000       2207.22119      -1.60367608    
 -0.193381995      -1.34595394       0.00000000       2207.22119      -1.60367608    
 -0.193608001      -1.34425998     -0.303494990       2207.22119      -1.60367608    
 -0.193381995      -1.34595394       0.00000000       2246.63062      -1.60364783    
  -3.75179984E-02  -1.36130500       0.00000000       2246.63062      -1.60364783    
  -3.73950005E-02  -1.35827899     -0.303512007       2246.63062      -1.60364783    
 -0.193608001      -1.34425998     -0.303494990       2246.63062      -1.60364783    
  -3.73950005E-02  -1.35827899     -0.303512007       1725.73230      -1.61573172    
  0.119547002      -1.35239303     -0.303498000       1725.73230      -1.61573172    
  0.119135000      -1.35326600     -0.606999993       1725.73230      -1.61573172    
  -3.82840000E-02  -1.36122894     -0.606998980       1725.73230      -1.61573172    
  -3.73950005E-02  -1.35827899     -0.303512007       1720.30994      -1.61578155    
  -3.82840000E-02  -1.36122894     -0.606998980       1720.30994      -1.61578155    
 -0.195028007      -1.34579206     -0.606999993       1720.30994      -1.61578155    
 -0.193608001      -1.34425998     -0.303494990       1720.30994      -1.61578155    
  -3.73950005E-02  -1.35827899     -0.303512007       2250.65039      -1.60362959    
  -3.75179984E-02  -1.36130500       0.00000000       2250.65039      -1.60362959    
  0.119788997      -1.35320199       0.00000000       2250.65039      -1.60362959    
  0.119547002      -1.35239303     -0.303498000       2250.65039      -1.60362959    
  0.119788997      -1.35320199       0.00000000       2224.43213      -1.60368049    
  0.276576012      -1.33565402       0.00000000       2224.43213      -1.60368049    
  0.275435001      -1.33191597     -0.303496003       2224.43213      -1.60368049    
  0.119547002      -1.35239303     -0.303498000       2224.43213      -1.60368049    
  0.275435001      -1.33191597     -0.303496003       1665.62817      -1.61605597    
  0.427076995      -1.28898001     -0.303507000       1665.62817      -1.61605597    
  0.427242011      -1.28995001     -0.606999993       1665.62817      -1.61605597    
  0.275831014      -1.33588004     -0.606999993       1665.62817      -1.61605597    
  0.275435001      -1.33191597     -0.303496003       1708.04895      -1.61597669    
  0.275831014      -1.33588004     -0.606999993       1708.04895      -1.61597669    
  0.119135000      -1.35326600     -0.606999993       1708.04895      -1.61597669    
  0.119547002      -1.35239303     -0.303498000       1708.04895      -1.61597669    
  0.275435001      -1.33191597     -0.303496003       2166.63599      -1.60376251    
  0.276576012      -1.33565402       0.00000000       2166.63599      -1.60376251    
  0.427509993      -1.28986895       0.00000000       2166.63599      -1.60376251    
  0.427076995      -1.28898001     -0.303507000       2166.63599      -1.60376251    
  0.427509993      -1.28986895       0.00000000       2083.33911      -1.60366082    
  0.574636996      -1.23315501       0.00000000       2083.33911      -1.60366082    
  0.573706985      -1.23136795     -0.303485990       2083.33911      -1.60366082    
  0.427076995      -1.28898001     -0.303507000       2083.33911      -1.60366082    
  0.573706985      -1.23136795     -0.303485990       1518.20007      -1.61601901    
  0.712854981      -1.15688002     -0.303496987       1518.20007      -1.61601901    
  0.713809013      -1.15876603     -0.606999993       1518.20007      -1.61601901    
  0.574283004      -1.23334301     -0.606999993       1518.20007      -1.61601901    
  0.573706985      -1.23136795     -0.303485990       1603.11682      -1.61597443    
  0.574283004      -1.23334301     -0.606999993       1603.11682      -1.61597443    
  0.427242011      -1.28995001     -0.606999993       1603.11682      -1.61597443    
  0.427076995      -1.28898001     -0.303507000       1603.11682      -1.61597443    
  0.573706985      -1.23136795     -0.303485990       1975.94946      -1.60355949    
  0.574636996      -1.23315501       0.00000000       1975.94946      -1.60355949    
  0.713741004      -1.15880203       0.00000000       1975.94946      -1.60355949    
  0.712854981      -1.15688002     -0.303496987       1975.94946      -1.60355949    
  0.713741004      -1.15880203       0.00000000       1839.68005      -1.60352409    
  0.841937006      -1.06636095       0.00000000       1839.68005      -1.60352409    
  0.841498017      -1.06573403     -0.303485990       1839.68005      -1.60352409    
  0.712854981      -1.15688002     -0.303496987       1839.68005      -1.60352409    
  0.841498017      -1.06573403     -0.303485990       1289.43347      -1.61605978    
  0.960639000     -0.962104976     -0.303470999       1289.43347      -1.61605978    
  0.964356005     -0.965893984     -0.606999993       1289.43347      -1.61605978    
  0.841796994      -1.06647599     -0.606999993       1289.43347      -1.61605978    
  0.841498017      -1.06573403     -0.303485990       1412.85303      -1.61604667    
  0.841796994      -1.06647599     -0.606999993       1412.85303      -1.61604667    
  0.713809013      -1.15876603     -0.606999993       1412.85303      -1.61604667    
  0.712854981      -1.15688002     -0.303496987       1412.85303      -1.61604667    
  0.841498017      -1.06573403     -0.303485990       1680.56689      -1.60376418    
  0.841937006      -1.06636095       0.00000000       1680.56689      -1.60376418    
  0.963932991     -0.966242015       0.00000000       1680.56689      -1.60376418    
  0.960639000     -0.962104976     -0.303470999       1680.56689      -1.60376418    
  0.963932991     -0.966242015       0.00000000       1493.58850      -1.60400558    
   1.06506598     -0.843514979       0.00000000       1493.58850      -1.60400558    
   1.06428695     -0.842682004     -0.303481996       1493.58850      -1.60400558    
  0.960639000     -0.962104976     -0.303470999       1493.58850      -1.60400558    
   1.06428695     -0.842682004     -0.303481996       991.126099      -1.61639237    
   1.15591598     -0.714210987     -0.303485006       991.126099      -1.61639237    
   1.15788805     -0.715448976     -0.606999993       991.126099      -1.61639237    
   1.06537795     -0.843134999     -0.606999993       991.126099      -1.61639237    
   1.06428695     -0.842682004     -0.303481996       1144.05054      -1.61638653    
   1.06537795     -0.843134999     -0.606999993       1144.05054      -1.61638653    
  0.964356005     -0.965893984     -0.606999993       1144.05054      -1.61638653    
  0.960639000     -0.962104976     -0.303470999       1144.05054      -1.61638653    
   1.06428695     -0.842682004     -0.303481996       1288.79150      -1.60389721    
   1.06506598     -0.843514979       0.00000000       1288.79150      -1.60389721    
   1.15792501     -0.715381980       0.00000000       1288.79150      -1.60389721    
   1.15591598     -0.714210987     -0.303485006       1288.79150      -1.60389721    
   1.15792501     -0.715381980       0.00000000       1065.84912      -1.60410976    
   1.23237598     -0.576093972       0.00000000       1065.84912      -1.60410976    
   1.23120904     -0.575251997     -0.303514004       1065.84912      -1.60410976    
   1.15591598     -0.714210987     -0.303485006       1065.84912      -1.60410976    
   1.23120904     -0.575251997     -0.303514004       638.260864      -1.61687100    
   1.28844094     -0.428344995     -0.303512990       638.260864      -1.61687100    
   1.28952503     -0.428642988     -0.606999993       638.260864      -1.61687100    
   1.23252702     -0.575810015     -0.606999993       638.260864      -1.61687100    
   1.23120904     -0.575251997     -0.303514004       819.954590      -1.61663902    
   1.23252702     -0.575810015     -0.606999993       819.954590      -1.61663902    
   1.15788805     -0.715448976     -0.606999993       819.954590      -1.61663902    
   1.15591598     -0.714210987     -0.303485006       819.954590      -1.61663902    
   1.23120904     -0.575251997     -0.303514004       829.349670      -1.60467672    
   1.23237598     -0.576093972       0.00000000       829.349670      -1.60467672    
   1.28947699     -0.428801000       0.00000000       829.349670      -1.60467672    
   1.28844094     -0.428344995     -0.303512990       829.349670      -1.60467672    
   1.28947699     -0.428801000       0.00000000       586.029358      -1.60409331    
   1.33532202     -0.277671993       0.00000000       586.029358      -1.60409331    
   1.33076501     -0.276203990     -0.303492010       586.029358      -1.60409331    
   1.28844094     -0.428344995     -0.303512990       586.029358      -1.60409331    
   1.33076501     -0.276203990     -0.303492010       250.209305      -1.61893451    
   1.35229194     -0.119709998     -0.303514004       250.209305      -1.61893451    
   1.35321999     -0.119608998     -0.606999993       250.209305      -1.61893451    
   1.33549094     -0.277112991     -0.606999993       250.209305      -1.61893451    
   1.33076501     -0.276203990     -0.303492010       450.894135      -1.61689997    
   1.33549094     -0.277112991     -0.606999993       450.894135      -1.61689997    
   1.28952503     -0.428642988     -0.606999993       450.894135      -1.61689997    
   1.28844094     -0.428344995     -0.303512990       450.894135      -1.61689997    
   1.33076501     -0.276203990     -0.303492010       327.939728      -1.60421133    
   1.33532202     -0.277671993       0.00000000       327.939728      -1.60421133    
   1.35319102     -0.119900003       0.00000000       327.939728      -1.60421133    
   1.35229194     -0.119709998     -0.303514004       327.939728      -1.60421133    
   1.35319102     -0.119900003       0.00000000       70.0823746      -1.60239971    
   1.36124396       3.81390005E-02   0.00000000       70.0823746      -1.60239971    
   1.35858905       3.79349999E-02 -0.303501010       70.0823746      -1.60239971    
   1.35229194     -0.119709998     -0.303514004       70.0823746      -1.60239971    
   1.35858905       3.79349999E-02 -0.303501010       148.217697       1.52812004    
   1.34464097      0.195331007     -0.303496003       148.217697       1.52812004    
   1.34573400      0.195616007     -0.606999993       148.217697       1.52812004    
   1.36126804       3.78950015E-02 -0.606999993       148.217697       1.52812004    
   1.35858905       3.79349999E-02 -0.303501010       54.2477531      -1.61882222    
   1.36126804       3.78950015E-02 -0.606999993       54.2477531      -1.61882222    
   1.35321999     -0.119608998     -0.606999993       54.2477531      -1.61882222    
   1.35229194     -0.119709998     -0.303514004       54.2477531      -1.61882222    
   1.35858905       3.79349999E-02 -0.303501010       192.602936       1.53771126    
   1.36124396       3.81390005E-02   0.00000000       192.602936       1.53771126    
   1.34575403      0.195406005       0.00000000       192.602936       1.53771126    
   1.34464097      0.195331007     -0.303496003       192.602936       1.53771126    
   1.34575403      0.195406005       0.00000000       450.038574       1.53766179    
   1.31339800      0.349945009       0.00000000       450.038574       1.53766179    
   1.31216300      0.349725991     -0.303487003       450.038574       1.53766179    
   1.34464097      0.195331007     -0.303496003       450.038574       1.53766179    
   1.31216300      0.349725991     -0.303487003       537.070312       1.52524674    
   1.26341999      0.500032008     -0.303494006       537.070312       1.52524674    
   1.26736605      0.501691997     -0.606999993       537.070312       1.52524674    
   1.31333196      0.350163996     -0.606999993       537.070312       1.52524674    
   1.31216300      0.349725991     -0.303487003       346.225708       1.52668989    
   1.31333196      0.350163996     -0.606999993       346.225708       1.52668989    
   1.34573400      0.195616007     -0.606999993       346.225708       1.52668989    
   1.34464097      0.195331007     -0.303496003       346.225708       1.52668989    
   1.31216300      0.349725991     -0.303487003       700.200928       1.53746629    
   1.31339800      0.349945009       0.00000000       700.200928       1.53746629    
   1.26751196      0.501209974       0.00000000       700.200928       1.53746629    
   1.26341999      0.500032008     -0.303494006       700.200928       1.53746629    
   1.26751196      0.501209974       0.00000000       945.962830       1.53789091    
   1.19658697      0.643051028       0.00000000       945.962830       1.53789091    
   1.19583094      0.642783999     -0.303505003       945.962830       1.53789091    
   1.26341999      0.500032008     -0.303494006       945.962830       1.53789091    
   1.19583094      0.642783999     -0.303505003       900.422119       1.52545154    
   1.11495602      0.778467000     -0.303483993       900.422119       1.52545154    
   1.11731696      0.779847026     -0.606999993       900.422119       1.52545154    
   1.19653296      0.643149972     -0.606999993       900.422119       1.52545154    
   1.19583094      0.642783999     -0.303505003       726.301331       1.52572918    
   1.19653296      0.643149972     -0.606999993       726.301331       1.52572918    
   1.26736605      0.501691997     -0.606999993       726.301331       1.52572918    
   1.26341999      0.500032008     -0.303494006       726.301331       1.52572918    
   1.19583094      0.642783999     -0.303505003       1174.71338       1.53782153    
   1.19658697      0.643051028       0.00000000       1174.71338       1.53782153    
   1.11705506      0.780165970       0.00000000       1174.71338       1.53782153    
   1.11495602      0.778467000     -0.303483993       1174.71338       1.53782153    
   1.11705506      0.780165970       0.00000000       1390.23120       1.53800035    
   1.01674199      0.902397990       0.00000000       1390.23120       1.53800035    
   1.01591504      0.901737988     -0.303478003       1390.23120       1.53800035    
   1.11495602      0.778467000     -0.303483993       1390.23120       1.53800035    
   1.01591504      0.901737988     -0.303478003       1216.20520       1.52567935    
  0.904204011       1.01322901     -0.303456992       1216.20520       1.52567935    
  0.905143023       1.01448905     -0.606999993       1216.20520       1.52567935    
   1.01659799      0.902572989     -0.606999993       1216.20520       1.52567935    
   1.01591504      0.901737988     -0.303478003       1067.18091       1.52567315    
   1.01659799      0.902572989     -0.606999993       1067.18091       1.52567315    
   1.11731696      0.779847026     -0.606999993       1067.18091       1.52567315    
   1.11495602      0.778467000     -0.303483993       1067.18091       1.52567315    
   1.01591504      0.901737988     -0.303478003       1582.29492       1.53798723    
   1.01674199      0.902397990       0.00000000       1582.29492       1.53798723    
  0.905318975       1.01434398       0.00000000       1582.29492       1.53798723    
  0.904204011       1.01322901     -0.303456992       1582.29492       1.53798723    
  0.905318975       1.01434398       0.00000000       1757.40210       1.53794515    
  0.782918990       1.11479497       0.00000000       1757.40210       1.53794515    
  0.780644000       1.11195600     -0.303485006       1757.40210       1.53794515    
  0.904204011       1.01322901     -0.303456992       1757.40210       1.53794515    
  0.780644000       1.11195600     -0.303485006       1465.24707       1.52573252    
  0.645825028       1.19414902     -0.303514004       1465.24707       1.52573252    
  0.646153986       1.19492805     -0.606999993       1465.24707       1.52573252    
  0.782611012       1.11504900     -0.606999993       1465.24707       1.52573252    
  0.780644000       1.11195600     -0.303485006       1348.54895       1.52560794    
  0.782611012       1.11504900     -0.606999993       1348.54895       1.52560794    
  0.905143023       1.01448905     -0.606999993       1348.54895       1.52560794    
  0.904204011       1.01322901     -0.303456992       1348.54895       1.52560794    
  0.780644000       1.11195600     -0.303485006       1907.18164       1.53792703    
  0.782918990       1.11479497       0.00000000       1907.18164       1.53792703    
  0.646345019       1.19482601       0.00000000       1907.18164       1.53792703    
  0.645825028       1.19414902     -0.303514004       1907.18164       1.53792703    
  0.646345019       1.19482601       0.00000000       2030.74463       1.53784502    
  0.504974008       1.26637006       0.00000000       2030.74463       1.53784502    
  0.503772974       1.26314998     -0.303521991       2030.74463       1.53784502    
  0.645825028       1.19414902     -0.303514004       2030.74463       1.53784502    
  0.503772974       1.26314998     -0.303521991       1634.69922       1.52567899    
  0.353130996       1.31116498     -0.303510994       1634.69922       1.52567899    
  0.353300005       1.31237996     -0.606999993       1634.69922       1.52567899    
  0.505183995       1.26630700     -0.606999993       1634.69922       1.52567899    
  0.503772974       1.26314998     -0.303521991       1559.07788       1.52562523    
  0.505183995       1.26630700     -0.606999993       1559.07788       1.52562523    
  0.646153986       1.19492805     -0.606999993       1559.07788       1.52562523    
  0.645825028       1.19414902     -0.303514004       1559.07788       1.52562523    
  0.503772974       1.26314998     -0.303521991       2127.37939       1.53785706    
  0.504974008       1.26637006       0.00000000       2127.37939       1.53785706    
  0.353493989       1.31232095       0.00000000       2127.37939       1.53785706    
  0.353130996       1.31116498     -0.303510994       2127.37939       1.53785706    
  0.353493989       1.31232095       0.00000000       2193.68530       1.53785491    
  0.199064001       1.34539402       0.00000000       2193.68530       1.53785491    
  0.198755994       1.34360003     -0.303496003       2193.68530       1.53785491    
  0.353130996       1.31116498     -0.303510994       2193.68530       1.53785491    
  0.198755994       1.34360003     -0.303496003       1715.20935       1.52566218    
   4.12769988E-02   1.35817802     -0.303508013       1715.20935       1.52566218    
   4.12410013E-02   1.36093795     -0.606999993       1715.20935       1.52566218    
  0.199025005       1.34539795     -0.606999993       1715.20935       1.52566218    
  0.198755994       1.34360003     -0.303496003       1686.42554       1.52569926    
  0.199025005       1.34539795     -0.606999993       1686.42554       1.52569926    
  0.353300005       1.31237996     -0.606999993       1686.42554       1.52569926    
  0.353130996       1.31116498     -0.303510994       1686.42554       1.52569926    
  0.198755994       1.34360003     -0.303496003       2233.98096       1.53785527    
  0.199064001       1.34539402       0.00000000       2233.98096       1.53785527    
   4.17769998E-02   1.36088502       0.00000000       2233.98096       1.53785527    
   4.12769988E-02   1.35817802     -0.303508013       2233.98096       1.53785527    
   4.17769998E-02   1.36088502       0.00000000       2245.65332       1.53785610    
 -0.116410002       1.35353506       0.00000000       2245.65332       1.53785610    
 -0.116471998       1.35271096     -0.303496987       2245.65332       1.53785610    
   4.12769988E-02   1.35817802     -0.303508013       2245.65332       1.53785610    
 -0.116471998       1.35271096     -0.303496987       1705.29944       1.52544188    
 -0.273027003       1.33229196     -0.303496003       1705.29944       1.52544188    
 -0.273876995       1.33647299     -0.606999993       1705.29944       1.52544188    
 -0.116722003       1.35350394     -0.606999993       1705.29944       1.52544188    
 -0.116471998       1.35271096     -0.303496987       1722.17493       1.52570570    
 -0.116722003       1.35350394     -0.606999993       1722.17493       1.52570570    
   4.12410013E-02   1.36093795     -0.606999993       1722.17493       1.52570570    
   4.12769988E-02   1.35817802     -0.303508013       1722.17493       1.52570570    
 -0.116471998       1.35271096     -0.303496987       2227.56421       1.53781211    
 -0.116410002       1.35353506       0.00000000       2227.56421       1.53781211    
 -0.274069011       1.33641505       0.00000000       2227.56421       1.53781211    
 -0.273027003       1.33229196     -0.303496003       2227.56421       1.53781211    
 -0.274069011       1.33641505       0.00000000       2174.29028       1.53776336    
 -0.425588995       1.29045200       0.00000000       2174.29028       1.53776336    
 -0.425258011       1.28953803     -0.303507000       2174.29028       1.53776336    
 -0.273027003       1.33229196     -0.303496003       2174.29028       1.53776336    
 -0.425258011       1.28953803     -0.303507000       1604.12549       1.52556014    
 -0.572302997       1.23206902     -0.303485990       1604.12549       1.52556014    
 -0.573064029       1.23399496     -0.606999993       1604.12549       1.52556014    
 -0.425651014       1.29043305     -0.606999993       1604.12549       1.52556014    
 -0.425258011       1.28953803     -0.303507000       1664.37854       1.52539420    
 -0.425651014       1.29043305     -0.606999993       1664.37854       1.52539420    
 -0.273876995       1.33647299     -0.606999993       1664.37854       1.52539420    
 -0.273027003       1.33229196     -0.303496003       1664.37854       1.52539420    
 -0.425258011       1.28953803     -0.303507000       2092.32983       1.53793108    
 -0.425588995       1.29045200       0.00000000       2092.32983       1.53793108    
 -0.573195994       1.23392498       0.00000000       2092.32983       1.53793108    
 -0.572302997       1.23206902     -0.303485990       2092.32983       1.53793108    
 -0.573195994       1.23392498       0.00000000       1984.34973       1.53808057    
 -0.712655008       1.15938199       0.00000000       1984.34973       1.53808057    
 -0.711889029       1.15749002     -0.303496003       1984.34973       1.53808057    
 -0.572302997       1.23206902     -0.303485990       1984.34973       1.53808057    
 -0.711889029       1.15749002     -0.303496003       1414.53040       1.52557588    
 -0.840825975       1.06629205     -0.303485990       1414.53040       1.52557588    
 -0.841368973       1.06682706     -0.606999993       1414.53040       1.52557588    
 -0.712980986       1.15920806     -0.606999993       1414.53040       1.52557588    
 -0.711889029       1.15749002     -0.303496003       1519.65942       1.52554941    
 -0.712980986       1.15920806     -0.606999993       1519.65942       1.52554941    
 -0.573064029       1.23399496     -0.606999993       1519.65942       1.52554941    
 -0.572302997       1.23206902     -0.303485990       1519.65942       1.52554941    
 -0.711889029       1.15749002     -0.303496003       1845.48059       1.53823733    
 -0.712655008       1.15938199       0.00000000       1845.48059       1.53823733    
 -0.841165006       1.06699395       0.00000000       1845.48059       1.53823733    
 -0.840825975       1.06629205     -0.303485990       1845.48059       1.53823733    
 -0.841165006       1.06699395       0.00000000       1685.11206       1.53831983    
 -0.963320017      0.966744006       0.00000000       1685.11206       1.53831983    
 -0.960084975      0.962615013     -0.303470999       1685.11206       1.53831983    
 -0.840825975       1.06629205     -0.303485990       1685.11206       1.53831983    
 -0.960084975      0.962615013     -0.303470999       1146.43066       1.52537334    
  -1.06383705      0.843237996     -0.303481996       1146.43066       1.52537334    
  -1.06481802      0.843816996     -0.606999993       1146.43066       1.52537334    
 -0.963873982      0.966289997     -0.606999993       1146.43066       1.52537334    
 -0.960084975      0.962615013     -0.303470999       1292.42041       1.52567220    
 -0.963873982      0.966289997     -0.606999993       1292.42041       1.52567220    
 -0.841368973       1.06682706     -0.606999993       1292.42041       1.52567220    
 -0.840825975       1.06629205     -0.303485990       1292.42041       1.52567220    
 -0.960084975      0.962615013     -0.303470999       1497.03040       1.53814614    
 -0.963320017      0.966744006       0.00000000       1497.03040       1.53814614    
  -1.06464398      0.844029009       0.00000000       1497.03040       1.53814614    
  -1.06383705      0.843237996     -0.303481996       1497.03040       1.53814614    
  -1.06464398      0.844029009       0.00000000       1292.33154       1.53826141    
  -1.15769398      0.715813994       0.00000000       1292.33154       1.53826141    
  -1.15564799      0.714680016     -0.303483993       1292.33154       1.53826141    
  -1.06383705      0.843237996     -0.303481996       1292.33154       1.53826141    
  -1.15564799      0.714680016     -0.303483993       820.519043       1.52544713    
  -1.23108304      0.575536013     -0.303514004       820.519043       1.52544713    
  -1.23232996      0.576179981     -0.606999993       820.519043       1.52544713    
  -1.15756094      0.716063023     -0.606999993       820.519043       1.52544713    
  -1.15564799      0.714680016     -0.303483993       992.048096       1.52556002    
  -1.15756094      0.716063023     -0.606999993       992.048096       1.52556002    
  -1.06481802      0.843816996     -0.606999993       992.048096       1.52556002    
  -1.06383705      0.843237996     -0.303481996       992.048096       1.52556002    
  -1.15564799      0.714680016     -0.303483993       1070.19788       1.53811359    
  -1.15769398      0.715813994       0.00000000       1070.19788       1.53811359    
  -1.23224795      0.576331973       0.00000000       1070.19788       1.53811359    
  -1.23108304      0.575536013     -0.303514004       1070.19788       1.53811359    
  -1.23224795      0.576331973       0.00000000       832.222290       1.53798056    
  -1.28948605      0.428772002       0.00000000       832.222290       1.53798056    
  -1.28842103      0.428404987     -0.303512990       832.222290       1.53798056    
  -1.23108304      0.575536013     -0.303514004       832.222290       1.53798056    
  -1.28842103      0.428404987     -0.303512990       449.424927       1.52516615    
  -1.33082402      0.275959998     -0.303492010       449.424927       1.52516615    
  -1.33550000      0.277083993     -0.606999993       449.424927       1.52516615    