 VARIABLES="X" "Y" "Z" "abs(p) (Pa)" "angle(p) (rad)"
ZONE N=   2720,E =    2069, F=FEPOINT, ET=QUADRILATERAL
 -0.767116010      -1.12776399       0.00000000       6226.80615       1.64424479    
 -0.769354999      -1.12002099     -0.303523988       6226.80615       1.64424479    
 -0.896136999      -1.02028203     -0.303463012       6226.80615       1.64424479    
 -0.894908011      -1.02288902       0.00000000       6226.80615       1.64424479    
 -0.767116010      -1.12776399       0.00000000       5271.70508       1.64448953    
 -0.630888999      -1.20308697       0.00000000       5271.70508       1.64448953    
 -0.635528028      -1.19958198     -0.303541005       5271.70508       1.64448953    
 -0.769354999      -1.12002099     -0.303523988       5271.70508       1.64448953    
 -0.635528028      -1.19958198     -0.303541005       3564.20776       1.64145601    
 -0.495362997      -1.26606500     -0.303519011       3564.20776       1.64145601    
 -0.499298006      -1.26809204     -0.606999993       3564.20776       1.64145601    
 -0.640147984      -1.19813800     -0.606998026       3564.20776       1.64145601    
 -0.635528028      -1.19958198     -0.303541005       4443.54443       1.64129484    
 -0.640147984      -1.19813800     -0.606998026       4443.54443       1.64129484    
 -0.777105987      -1.11956596     -0.606999993       4443.54443       1.64129484    
 -0.769354999      -1.12002099     -0.303523988       4443.54443       1.64129484    
 -0.635528028      -1.19958198     -0.303541005       4185.97949       1.64426339    
 -0.630888999      -1.20308697       0.00000000       4185.97949       1.64426339    
 -0.494486004      -1.26955199       0.00000000       4185.97949       1.64426339    
 -0.495362997      -1.26606500     -0.303519011       4185.97949       1.64426339    
 -0.494486004      -1.26955199       0.00000000       3143.29321       1.64476860    
 -0.346311986      -1.31449997       0.00000000       3143.29321       1.64476860    
 -0.346753001      -1.31307304     -0.303510010       3143.29321       1.64476860    
 -0.495362997      -1.26606500     -0.303519011       3143.29321       1.64476860    
 -0.346753001      -1.31307304     -0.303510010       1701.92065       1.64278650    
 -0.193608001      -1.34425998     -0.303494990       1701.92065       1.64278650    
 -0.195028007      -1.34579206     -0.606999993       1701.92065       1.64278650    
 -0.348751009      -1.31376004     -0.606999993       1701.92065       1.64278650    
 -0.346753001      -1.31307304     -0.303510010       2662.42700       1.64195299    
 -0.348751009      -1.31376004     -0.606999993       2662.42700       1.64195299    
 -0.499298006      -1.26809204     -0.606999993       2662.42700       1.64195299    
 -0.495362997      -1.26606500     -0.303519011       2662.42700       1.64195299    
 -0.346753001      -1.31307304     -0.303510010       2014.72937       1.64572263    
 -0.346311986      -1.31449997       0.00000000       2014.72937       1.64572263    
 -0.193381995      -1.34595394       0.00000000       2014.72937       1.64572263    
 -0.193608001      -1.34425998     -0.303494990       2014.72937       1.64572263    
 -0.193381995      -1.34595394       0.00000000       903.897827       1.65158582    
  -3.75179984E-02  -1.36130500       0.00000000       903.897827       1.65158582    
  -3.73950005E-02  -1.35827899     -0.303512007       903.897827       1.65158582    
 -0.193608001      -1.34425998     -0.303494990       903.897827       1.65158582    
  -3.73950005E-02  -1.35827899     -0.303512007       253.964691      -1.51645398    
  0.119547002      -1.35239303     -0.303498000       253.964691      -1.51645398    
  0.119135000      -1.35326600     -0.606999993       253.964691      -1.51645398    
  -3.82840000E-02  -1.36122894     -0.606998980       253.964691      -1.51645398    
  -3.73950005E-02  -1.35827899     -0.303512007       722.022400       1.64530730    
  -3.82840000E-02  -1.36122894     -0.606998980       722.022400       1.64530730    
 -0.195028007      -1.34579206     -0.606999993       722.022400       1.64530730    
 -0.193608001      -1.34425998     -0.303494990       722.022400       1.64530730    
  -3.73950005E-02  -1.35827899     -0.303512007       238.344315      -1.53154302    
  -3.75179984E-02  -1.36130500       0.00000000       238.344315      -1.53154302    
  0.119788997      -1.35320199       0.00000000       238.344315      -1.53154302    
  0.119547002      -1.35239303     -0.303498000       238.344315      -1.53154302    
  0.119788997      -1.35320199       0.00000000       1416.19678      -1.50368333    
  0.276576012      -1.33565402       0.00000000       1416.19678      -1.50368333    
  0.275435001      -1.33191597     -0.303496003       1416.19678      -1.50368333    
  0.119547002      -1.35239303     -0.303498000       1416.19678      -1.50368333    
  0.275435001      -1.33191597     -0.303496003       2172.53833      -1.50371921    
  0.427076995      -1.28898001     -0.303507000       2172.53833      -1.50371921    
  0.427242011      -1.28995001     -0.606999993       2172.53833      -1.50371921    
  0.275831014      -1.33588004     -0.606999993       2172.53833      -1.50371921    
  0.275435001      -1.33191597     -0.303496003       1224.69568      -1.50524735    
  0.275831014      -1.33588004     -0.606999993       1224.69568      -1.50524735    
  0.119135000      -1.35326600     -0.606999993       1224.69568      -1.50524735    
  0.119547002      -1.35239303     -0.303498000       1224.69568      -1.50524735    
  0.275435001      -1.33191597     -0.303496003       2519.10278      -1.50154245    
  0.276576012      -1.33565402       0.00000000       2519.10278      -1.50154245    
  0.427509993      -1.28986895       0.00000000       2519.10278      -1.50154245    
  0.427076995      -1.28898001     -0.303507000       2519.10278      -1.50154245    
  0.427509993      -1.28986895       0.00000000       3598.43652      -1.50083947    
  0.574636996      -1.23315501       0.00000000       3598.43652      -1.50083947    
  0.573706985      -1.23136795     -0.303485990       3598.43652      -1.50083947    
  0.427076995      -1.28898001     -0.303507000       3598.43652      -1.50083947    
  0.573706985      -1.23136795     -0.303485990       4014.36230      -1.50253940    
  0.712854981      -1.15688002     -0.303496987       4014.36230      -1.50253940    
  0.713809013      -1.15876603     -0.606999993       4014.36230      -1.50253940    
  0.574283004      -1.23334301     -0.606999993       4014.36230      -1.50253940    
  0.573706985      -1.23136795     -0.303485990       3114.68457      -1.50290096    
  0.574283004      -1.23334301     -0.606999993       3114.68457      -1.50290096    
  0.427242011      -1.28995001     -0.606999993       3114.68457      -1.50290096    
  0.427076995      -1.28898001     -0.303507000       3114.68457      -1.50290096    
  0.573706985      -1.23136795     -0.303485990       4638.56201      -1.50037742    
  0.574636996      -1.23315501       0.00000000       4638.56201      -1.50037742    
  0.713741004      -1.15880203       0.00000000       4638.56201      -1.50037742    
  0.712854981      -1.15688002     -0.303496987       4638.56201      -1.50037742    
  0.713741004      -1.15880203       0.00000000       5615.23242      -1.50008929    
  0.841937006      -1.06636095       0.00000000       5615.23242      -1.50008929    
  0.841498017      -1.06573403     -0.303485990       5615.23242      -1.50008929    
  0.712854981      -1.15688002     -0.303496987       5615.23242      -1.50008929    
  0.841498017      -1.06573403     -0.303485990       5655.00537      -1.50222766    
  0.960639000     -0.962104976     -0.303470999       5655.00537      -1.50222766    
  0.964356005     -0.965893984     -0.606999993       5655.00537      -1.50222766    
  0.841796994      -1.06647599     -0.606999993       5655.00537      -1.50222766    
  0.841498017      -1.06573403     -0.303485990       4850.30176      -1.50242770    
  0.841796994      -1.06647599     -0.606999993       4850.30176      -1.50242770    
  0.713809013      -1.15876603     -0.606999993       4850.30176      -1.50242770    
  0.712854981      -1.15688002     -0.303496987       4850.30176      -1.50242770    
  0.841498017      -1.06573403     -0.303485990       6612.07715      -1.49962330    
  0.841937006      -1.06636095       0.00000000       6612.07715      -1.49962330    
  0.963932991     -0.966242015       0.00000000       6612.07715      -1.49962330    
  0.960639000     -0.962104976     -0.303470999       6612.07715      -1.49962330    
  0.963932991     -0.966242015       0.00000000       7433.23193      -1.49950457    
   1.06506598     -0.843514979       0.00000000       7433.23193      -1.49950457    
   1.06428695     -0.842682004     -0.303481996       7433.23193      -1.49950457    
  0.960639000     -0.962104976     -0.303470999       7433.23193      -1.49950457    
   1.06428695     -0.842682004     -0.303481996       6992.28711      -1.50182259    
   1.15591598     -0.714210987     -0.303485006       6992.28711      -1.50182259    
   1.15788805     -0.715448976     -0.606999993       6992.28711      -1.50182259    
   1.06537795     -0.843134999     -0.606999993       6992.28711      -1.50182259    
   1.06428695     -0.842682004     -0.303481996       6351.49072      -1.50217485    
   1.06537795     -0.843134999     -0.606999993       6351.49072      -1.50217485    
  0.964356005     -0.965893984     -0.606999993       6351.49072      -1.50217485    
  0.960639000     -0.962104976     -0.303470999       6351.49072      -1.50217485    
   1.06428695     -0.842682004     -0.303481996       8130.07764      -1.49944043    
   1.06506598     -0.843514979       0.00000000       8130.07764      -1.49944043    
   1.15792501     -0.715381980       0.00000000       8130.07764      -1.49944043    
   1.15591598     -0.714210987     -0.303485006       8130.07764      -1.49944043    
   1.15792501     -0.715381980       0.00000000       8815.83105      -1.49934196    
   1.23237598     -0.576093972       0.00000000       8815.83105      -1.49934196    
   1.23120904     -0.575251997     -0.303514004       8815.83105      -1.49934196    
   1.15591598     -0.714210987     -0.303485006       8815.83105      -1.49934196    
   1.23120904     -0.575251997     -0.303514004       7955.25879      -1.50174475    
   1.28844094     -0.428344995     -0.303512990       7955.25879      -1.50174475    
   1.28952503     -0.428642988     -0.606999993       7955.25879      -1.50174475    
   1.23252702     -0.575810015     -0.606999993       7955.25879      -1.50174475    
   1.23120904     -0.575251997     -0.303514004       7532.92334      -1.50178087    
   1.23252702     -0.575810015     -0.606999993       7532.92334      -1.50178087    
   1.15788805     -0.715448976     -0.606999993       7532.92334      -1.50178087    
   1.15591598     -0.714210987     -0.303485006       7532.92334      -1.50178087    
   1.23120904     -0.575251997     -0.303514004       9372.20996      -1.49916077    
   1.23237598     -0.576093972       0.00000000       9372.20996      -1.49916077    
   1.28947699     -0.428801000       0.00000000       9372.20996      -1.49916077    
   1.28844094     -0.428344995     -0.303512990       9372.20996      -1.49916077    
   1.28947699     -0.428801000       0.00000000       9778.69238      -1.49923217    
   1.33532202     -0.277671993       0.00000000       9778.69238      -1.49923217    
   1.33076501     -0.276203990     -0.303492010       9778.69238      -1.49923217    
   1.28844094     -0.428344995     -0.303512990       9778.69238      -1.49923217    
   1.33076501     -0.276203990     -0.303492010       8522.89844      -1.50144947    
   1.35229194     -0.119709998     -0.303514004       8522.89844      -1.50144947    
   1.35321999     -0.119608998     -0.606999993       8522.89844      -1.50144947    
   1.33549094     -0.277112991     -0.606999993       8522.89844      -1.50144947    
   1.33076501     -0.276203990     -0.303492010       8288.89160      -1.50174344    
   1.33549094     -0.277112991     -0.606999993       8288.89160      -1.50174344    
   1.28952503     -0.428642988     -0.606999993       8288.89160      -1.50174344    
   1.28844094     -0.428344995     -0.303512990       8288.89160      -1.50174344    
   1.33076501     -0.276203990     -0.303492010       9983.79785      -1.49938381    
   1.33532202     -0.277671993       0.00000000       9983.79785      -1.49938381    
   1.35319102     -0.119900003       0.00000000       9983.79785      -1.49938381    
   1.35229194     -0.119709998     -0.303514004       9983.79785      -1.49938381    
   1.35319102     -0.119900003       0.00000000       10093.3096      -1.49939728    
   1.36124396       3.81390005E-02   0.00000000       10093.3096      -1.49939728    
   1.35858905       3.79349999E-02 -0.303501010       10093.3096      -1.49939728    
   1.35229194     -0.119709998     -0.303514004       10093.3096      -1.49939728    
   1.35858905       3.79349999E-02 -0.303501010       8583.20215      -1.50159943    
   1.34464097      0.195331007     -0.303496003       8583.20215      -1.50159943    
   1.34573400      0.195616007     -0.606999993       8583.20215      -1.50159943    
   1.36126804       3.78950015E-02 -0.606999993       8583.20215      -1.50159943    
   1.35858905       3.79349999E-02 -0.303501010       8594.63770      -1.50160468    
   1.36126804       3.78950015E-02 -0.606999993       8594.63770      -1.50160468    
   1.35321999     -0.119608998     -0.606999993       8594.63770      -1.50160468    
   1.35229194     -0.119709998     -0.303514004       8594.63770      -1.50160468    
   1.35858905       3.79349999E-02 -0.303501010       10129.5381      -1.49913287    
   1.36124396       3.81390005E-02   0.00000000       10129.5381      -1.49913287    
   1.34575403      0.195406005       0.00000000       10129.5381      -1.49913287    
   1.34464097      0.195331007     -0.303496003       10129.5381      -1.49913287    
   1.34575403      0.195406005       0.00000000       9975.77930      -1.49915528    
   1.31339800      0.349945009       0.00000000       9975.77930      -1.49915528    
   1.31216300      0.349725991     -0.303487003       9975.77930      -1.49915528    
   1.34464097      0.195331007     -0.303496003       9975.77930      -1.49915528    
   1.31216300      0.349725991     -0.303487003       8176.47705      -1.50176799    
   1.26341999      0.500032008     -0.303494006       8176.47705      -1.50176799    
   1.26736605      0.501691997     -0.606999993       8176.47705      -1.50176799    
   1.31333196      0.350163996     -0.606999993       8176.47705      -1.50176799    
   1.31216300      0.349725991     -0.303487003       8436.59082      -1.50159645    
   1.31333196      0.350163996     -0.606999993       8436.59082      -1.50159645    
   1.34573400      0.195616007     -0.606999993       8436.59082      -1.50159645    
   1.34464097      0.195331007     -0.303496003       8436.59082      -1.50159645    
   1.31216300      0.349725991     -0.303487003       9734.03809      -1.49911785    
   1.31339800      0.349945009       0.00000000       9734.03809      -1.49911785    
   1.26751196      0.501209974       0.00000000       9734.03809      -1.49911785    
   1.26341999      0.500032008     -0.303494006       9734.03809      -1.49911785    
   1.26751196      0.501209974       0.00000000       9258.28320      -1.49942052    
   1.19658697      0.643051028       0.00000000       9258.28320      -1.49942052    
   1.19583094      0.642783999     -0.303505003       9258.28320      -1.49942052    
   1.26341999      0.500032008     -0.303494006       9258.28320      -1.49942052    
   1.19583094      0.642783999     -0.303505003       7349.26172      -1.50155032    
   1.11495602      0.778467000     -0.303483993       7349.26172      -1.50155032    
   1.11731696      0.779847026     -0.606999993       7349.26172      -1.50155032    
   1.19653296      0.643149972     -0.606999993       7349.26172      -1.50155032    
   1.19583094      0.642783999     -0.303505003       7804.23779      -1.50178802    
   1.19653296      0.643149972     -0.606999993       7804.23779      -1.50178802    
   1.26736605      0.501691997     -0.606999993       7804.23779      -1.50178802    
   1.26341999      0.500032008     -0.303494006       7804.23779      -1.50178802    
   1.19583094      0.642783999     -0.303505003       8610.44727      -1.49955261    
   1.19658697      0.643051028       0.00000000       8610.44727      -1.49955261    
   1.11705506      0.780165970       0.00000000       8610.44727      -1.49955261    
   1.11495602      0.778467000     -0.303483993       8610.44727      -1.49955261    
   1.11705506      0.780165970       0.00000000       7889.42383      -1.49964917    
   1.01674199      0.902397990       0.00000000       7889.42383      -1.49964917    
   1.01591504      0.901737988     -0.303478003       7889.42383      -1.49964917    
   1.11495602      0.778467000     -0.303483993       7889.42383      -1.49964917    
   1.01591504      0.901737988     -0.303478003       6058.54346      -1.50198400    
  0.904204011       1.01322901     -0.303456992       6058.54346      -1.50198400    
  0.905143023       1.01448905     -0.606999993       6058.54346      -1.50198400    
   1.01659799      0.902572989     -0.606999993       6058.54346      -1.50198400    
   1.01591504      0.901737988     -0.303478003       6747.08691      -1.50189185    
   1.01659799      0.902572989     -0.606999993       6747.08691      -1.50189185    
   1.11731696      0.779847026     -0.606999993       6747.08691      -1.50189185    
   1.11495602      0.778467000     -0.303483993       6747.08691      -1.50189185    
   1.01591504      0.901737988     -0.303478003       7039.10791      -1.49981534    
   1.01674199      0.902397990       0.00000000       7039.10791      -1.49981534    
  0.905318975       1.01434398       0.00000000       7039.10791      -1.49981534    
  0.904204011       1.01322901     -0.303456992       7039.10791      -1.49981534    
  0.905318975       1.01434398       0.00000000       6213.03857      -1.49960291    
  0.782918990       1.11479497       0.00000000       6213.03857      -1.49960291    
  0.780644000       1.11195600     -0.303485006       6213.03857      -1.49960291    
  0.904204011       1.01322901     -0.303456992       6213.03857      -1.49960291    
  0.780644000       1.11195600     -0.303485006       4493.87988      -1.50226605    
  0.645825028       1.19414902     -0.303514004       4493.87988      -1.50226605    
  0.646153986       1.19492805     -0.606999993       4493.87988      -1.50226605    
  0.782611012       1.11504900     -0.606999993       4493.87988      -1.50226605    
  0.780644000       1.11195600     -0.303485006       5309.09570      -1.50213563    
  0.782611012       1.11504900     -0.606999993       5309.09570      -1.50213563    
  0.905143023       1.01448905     -0.606999993       5309.09570      -1.50213563    
  0.904204011       1.01322901     -0.303456992       5309.09570      -1.50213563    
  0.780644000       1.11195600     -0.303485006       5265.57422      -1.49972737    
  0.782918990       1.11479497       0.00000000       5265.57422      -1.49972737    
  0.646345019       1.19482601       0.00000000       5265.57422      -1.49972737    
  0.645825028       1.19414902     -0.303514004       5265.57422      -1.49972737    
  0.646345019       1.19482601       0.00000000       4190.91260      -1.50057673    
  0.504974008       1.26637006       0.00000000       4190.91260      -1.50057673    
  0.503772974       1.26314998     -0.303521991       4190.91260      -1.50057673    
  0.645825028       1.19414902     -0.303514004       4190.91260      -1.50057673    
  0.503772974       1.26314998     -0.303521991       2702.38672      -1.50292230    
  0.353130996       1.31116498     -0.303510994       2702.38672      -1.50292230    
  0.353300005       1.31237996     -0.606999993       2702.38672      -1.50292230    
  0.505183995       1.26630700     -0.606999993       2702.38672      -1.50292230    
  0.503772974       1.26314998     -0.303521991       3609.51392      -1.50258982    
  0.505183995       1.26630700     -0.606999993       3609.51392      -1.50258982    
  0.646153986       1.19492805     -0.606999993       3609.51392      -1.50258982    
  0.645825028       1.19414902     -0.303514004       3609.51392      -1.50258982    
  0.503772974       1.26314998     -0.303521991       3132.44629      -1.50119734    
  0.504974008       1.26637006       0.00000000       3132.44629      -1.50119734    
  0.353493989       1.31232095       0.00000000       3132.44629      -1.50119734    
  0.353130996       1.31116498     -0.303510994       3132.44629      -1.50119734    
  0.353493989       1.31232095       0.00000000       1986.42236      -1.50281572    
  0.199064001       1.34539402       0.00000000       1986.42236      -1.50281572    
  0.198755994       1.34360003     -0.303496003       1986.42236      -1.50281572    
  0.353130996       1.31116498     -0.303510994       1986.42236      -1.50281572    
  0.198755994       1.34360003     -0.303496003       715.304810      -1.51145947    
   4.12769988E-02   1.35817802     -0.303508013       715.304810      -1.51145947    
   4.12410013E-02   1.36093795     -0.606999993       715.304810      -1.51145947    
  0.199025005       1.34539795     -0.606999993       715.304810      -1.51145947    
  0.198755994       1.34360003     -0.303496003       1734.05627      -1.50398779    
  0.199025005       1.34539795     -0.606999993       1734.05627      -1.50398779    
  0.353300005       1.31237996     -0.606999993       1734.05627      -1.50398779    
  0.353130996       1.31116498     -0.303510994       1734.05627      -1.50398779    
  0.198755994       1.34360003     -0.303496003       831.439270      -1.50874722    
  0.199064001       1.34539402       0.00000000       831.439270      -1.50874722    
   4.17769998E-02   1.36088502       0.00000000       831.439270      -1.50874722    
   4.12769988E-02   1.35817802     -0.303508013       831.439270      -1.50874722    
   4.17769998E-02   1.36088502       0.00000000       323.679321       1.66934061    
 -0.116410002       1.35353506       0.00000000       323.679321       1.66934061    
 -0.116471998       1.35271096     -0.303496987       323.679321       1.66934061    
   4.12769988E-02   1.35817802     -0.303508013       323.679321       1.66934061    
 -0.116471998       1.35271096     -0.303496987       1278.59021       1.64741898    
 -0.273027003       1.33229196     -0.303496003       1278.59021       1.64741898    
 -0.273876995       1.33647299     -0.606999993       1278.59021       1.64741898    
 -0.116722003       1.35350394     -0.606999993       1278.59021       1.64741898    
 -0.116471998       1.35271096     -0.303496987       269.929199       1.66736126    
 -0.116722003       1.35350394     -0.606999993       269.929199       1.66736126    
   4.12410013E-02   1.36093795     -0.606999993       269.929199       1.66736126    
   4.12769988E-02   1.35817802     -0.303508013       269.929199       1.66736126    
 -0.116471998       1.35271096     -0.303496987       1512.34412       1.64889288    
 -0.116410002       1.35353506       0.00000000       1512.34412       1.64889288    
 -0.274069011       1.33641505       0.00000000       1512.34412       1.64889288    
 -0.273027003       1.33229196     -0.303496003       1512.34412       1.64889288    
 -0.274069011       1.33641505       0.00000000       2624.23511       1.64632785    
 -0.425588995       1.29045200       0.00000000       2624.23511       1.64632785    
 -0.425258011       1.28953803     -0.303507000       2624.23511       1.64632785    
 -0.273027003       1.33229196     -0.303496003       2624.23511       1.64632785    
 -0.425258011       1.28953803     -0.303507000       3169.46802       1.64322197    
 -0.572302997       1.23206902     -0.303485990       3169.46802       1.64322197    
 -0.573064029       1.23399496     -0.606999993       3169.46802       1.64322197    
 -0.425651014       1.29043305     -0.606999993       3169.46802       1.64322197    
 -0.425258011       1.28953803     -0.303507000       2228.54761       1.64426589    
 -0.425651014       1.29043305     -0.606999993       2228.54761       1.64426589    
 -0.273876995       1.33647299     -0.606999993       2228.54761       1.64426589    
 -0.273027003       1.33229196     -0.303496003       2228.54761       1.64426589    
 -0.425258011       1.28953803     -0.303507000       3704.04443       1.64531744    
 -0.425588995       1.29045200       0.00000000       3704.04443       1.64531744    
 -0.573195994       1.23392498       0.00000000       3704.04443       1.64531744    
 -0.572302997       1.23206902     -0.303485990       3704.04443       1.64531744    
 -0.573195994       1.23392498       0.00000000       4733.26367       1.64476562    
 -0.712655008       1.15938199       0.00000000       4733.26367       1.64476562    
 -0.711889029       1.15749002     -0.303496003       4733.26367       1.64476562    
 -0.572302997       1.23206902     -0.303485990       4733.26367       1.64476562    
 -0.711889029       1.15749002     -0.303496003       4894.29199       1.64209080    
 -0.840825975       1.06629205     -0.303485990       4894.29199       1.64209080    
 -0.841368973       1.06682706     -0.606999993       4894.29199       1.64209080    
 -0.712980986       1.15920806     -0.606999993       4894.29199       1.64209080    
 -0.711889029       1.15749002     -0.303496003       4060.94385       1.64245975    
 -0.712980986       1.15920806     -0.606999993       4060.94385       1.64245975    
 -0.573064029       1.23399496     -0.606999993       4060.94385       1.64245975    
 -0.572302997       1.23206902     -0.303485990       4060.94385       1.64245975    
 -0.711889029       1.15749002     -0.303496003       5674.34863       1.64437938    
 -0.712655008       1.15938199       0.00000000       5674.34863       1.64437938    
 -0.841165006       1.06699395       0.00000000       5674.34863       1.64437938    
 -0.840825975       1.06629205     -0.303485990       5674.34863       1.64437938    
 -0.841165006       1.06699395       0.00000000       6615.59180       1.64425325    
 -0.963320017      0.966744006       0.00000000       6615.59180       1.64425325    
 -0.960084975      0.962615013     -0.303470999       6615.59180       1.64425325    
 -0.840825975       1.06629205     -0.303485990       6615.59180       1.64425325    
 -0.960084975      0.962615013     -0.303470999       6386.61572       1.64165092    
  -1.06383705      0.843237996     -0.303481996       6386.61572       1.64165092    
  -1.06481802      0.843816996     -0.606999993       6386.61572       1.64165092    
 -0.963873982      0.966289997     -0.606999993       6386.61572       1.64165092    
 -0.960084975      0.962615013     -0.303470999       5689.37793       1.64186549    
 -0.963873982      0.966289997     -0.606999993       5689.37793       1.64186549    
 -0.841368973       1.06682706     -0.606999993       5689.37793       1.64186549    
 -0.840825975       1.06629205     -0.303485990       5689.37793       1.64186549    
 -0.960084975      0.962615013     -0.303470999       7450.79443       1.64417696    
 -0.963320017      0.966744006       0.00000000       7450.79443       1.64417696    
  -1.06464398      0.844029009       0.00000000       7450.79443       1.64417696    
  -1.06383705      0.843237996     -0.303481996       7450.79443       1.64417696    
  -1.06464398      0.844029009       0.00000000       8211.89160       1.64406395    
  -1.15769398      0.715813994       0.00000000       8211.89160       1.64406395    
  -1.15564799      0.714680016     -0.303483993       8211.89160       1.64406395    
  -1.06383705      0.843237996     -0.303481996       8211.89160       1.64406395    
  -1.15564799      0.714680016     -0.303483993       7578.12451       1.64156473    
  -1.23108304      0.575536013     -0.303514004       7578.12451       1.64156473    
  -1.23232996      0.576179981     -0.606999993       7578.12451       1.64156473    
  -1.15756094      0.716063023     -0.606999993       7578.12451       1.64156473    
  -1.15564799      0.714680016     -0.303483993       7021.91846       1.64159966    
  -1.15756094      0.716063023     -0.606999993       7021.91846       1.64159966    
  -1.06481802      0.843816996     -0.606999993       7021.91846       1.64159966    
  -1.06383705      0.843237996     -0.303481996       7021.91846       1.64159966    
  -1.15564799      0.714680016     -0.303483993       8950.30176       1.64401960    
  -1.15769398      0.715813994       0.00000000       8950.30176       1.64401960    
  -1.23224795      0.576331973       0.00000000       8950.30176       1.64401960    
  -1.23108304      0.575536013     -0.303514004       8950.30176       1.64401960    
  -1.23224795      0.576331973       0.00000000       9502.59277       1.64398277    
  -1.28948605      0.428772002       0.00000000       9502.59277       1.64398277    
  -1.28842103      0.428404987     -0.303512990       9502.59277       1.64398277    
  -1.23108304      0.575536013     -0.303514004       9502.59277       1.64398277    
  -1.28842103      0.428404987     -0.303512990       8327.08301       1.64123142    
  -1.33082402      0.275959998     -0.303492010       8327.08301       1.64123142    
  -1.33550000      0.277083993     -0.606999993       8327.08301       1.64123142    