 VARIABLES="X" "Y" "Z" "abs(p) (Pa)" "angle(p) (rad)"
ZONE N=   2720,E =    2069, F=FEPOINT, ET=QUADRILATERAL
 -0.767116010      -1.12776399       0.00000000       3965.77686       1.71037459    
 -0.769354999      -1.12002099     -0.303523988       3965.77686       1.71037459    
 -0.896136999      -1.02028203     -0.303463012       3965.77686       1.71037459    
 -0.894908011      -1.02288902       0.00000000       3965.77686       1.71037459    
 -0.767116010      -1.12776399       0.00000000       3351.34717       1.71088278    
 -0.630888999      -1.20308697       0.00000000       3351.34717       1.71088278    
 -0.635528028      -1.19958198     -0.303541005       3351.34717       1.71088278    
 -0.769354999      -1.12002099     -0.303523988       3351.34717       1.71088278    
 -0.635528028      -1.19958198     -0.303541005       2717.93750       1.70788491    
 -0.495362997      -1.26606500     -0.303519011       2717.93750       1.70788491    
 -0.499298006      -1.26809204     -0.606999993       2717.93750       1.70788491    
 -0.640147984      -1.19813800     -0.606998026       2717.93750       1.70788491    
 -0.635528028      -1.19958198     -0.303541005       3393.44507       1.70760417    
 -0.640147984      -1.19813800     -0.606998026       3393.44507       1.70760417    
 -0.777105987      -1.11956596     -0.606999993       3393.44507       1.70760417    
 -0.769354999      -1.12002099     -0.303523988       3393.44507       1.70760417    
 -0.635528028      -1.19958198     -0.303541005       2655.13330       1.71001899    
 -0.630888999      -1.20308697       0.00000000       2655.13330       1.71001899    
 -0.494486004      -1.26955199       0.00000000       2655.13330       1.71001899    
 -0.495362997      -1.26606500     -0.303519011       2655.13330       1.71001899    
 -0.494486004      -1.26955199       0.00000000       1983.56201       1.71093845    
 -0.346311986      -1.31449997       0.00000000       1983.56201       1.71093845    
 -0.346753001      -1.31307304     -0.303510010       1983.56201       1.71093845    
 -0.495362997      -1.26606500     -0.303519011       1983.56201       1.71093845    
 -0.346753001      -1.31307304     -0.303510010       1286.33130       1.71027768    
 -0.193608001      -1.34425998     -0.303494990       1286.33130       1.71027768    
 -0.195028007      -1.34579206     -0.606999993       1286.33130       1.71027768    
 -0.348751009      -1.31376004     -0.606999993       1286.33130       1.71027768    
 -0.346753001      -1.31307304     -0.303510010       2023.77246       1.70877993    
 -0.348751009      -1.31376004     -0.606999993       2023.77246       1.70877993    
 -0.499298006      -1.26809204     -0.606999993       2023.77246       1.70877993    
 -0.495362997      -1.26606500     -0.303519011       2023.77246       1.70877993    
 -0.346753001      -1.31307304     -0.303510010       1262.30859       1.71278811    
 -0.346311986      -1.31449997       0.00000000       1262.30859       1.71278811    
 -0.193381995      -1.34595394       0.00000000       1262.30859       1.71278811    
 -0.193608001      -1.34425998     -0.303494990       1262.30859       1.71278811    
 -0.193381995      -1.34595394       0.00000000       555.644836       1.72673535    
  -3.75179984E-02  -1.36130500       0.00000000       555.644836       1.72673535    
  -3.73950005E-02  -1.35827899     -0.303512007       555.644836       1.72673535    
 -0.193608001      -1.34425998     -0.303494990       555.644836       1.72673535    
  -3.73950005E-02  -1.35827899     -0.303512007       219.197617      -1.45841527    
  0.119547002      -1.35239303     -0.303498000       219.197617      -1.45841527    
  0.119135000      -1.35326600     -0.606999993       219.197617      -1.45841527    
  -3.82840000E-02  -1.36122894     -0.606998980       219.197617      -1.45841527    
  -3.73950005E-02  -1.35827899     -0.303512007       532.549011       1.71472061    
  -3.82840000E-02  -1.36122894     -0.606998980       532.549011       1.71472061    
 -0.195028007      -1.34579206     -0.606999993       532.549011       1.71472061    
 -0.193608001      -1.34425998     -0.303494990       532.549011       1.71472061    
  -3.73950005E-02  -1.35827899     -0.303512007       180.637024      -1.49293673    
  -3.75179984E-02  -1.36130500       0.00000000       180.637024      -1.49293673    
  0.119788997      -1.35320199       0.00000000       180.637024      -1.49293673    
  0.119547002      -1.35239303     -0.303498000       180.637024      -1.49293673    
  0.119788997      -1.35320199       0.00000000       937.541992      -1.44418824    
  0.276576012      -1.33565402       0.00000000       937.541992      -1.44418824    
  0.275435001      -1.33191597     -0.303496003       937.541992      -1.44418824    
  0.119547002      -1.35239303     -0.303498000       937.541992      -1.44418824    
  0.275435001      -1.33191597     -0.303496003       1696.93408      -1.44013417    
  0.427076995      -1.28898001     -0.303507000       1696.93408      -1.44013417    
  0.427242011      -1.28995001     -0.606999993       1696.93408      -1.44013417    
  0.275831014      -1.33588004     -0.606999993       1696.93408      -1.44013417    
  0.275435001      -1.33191597     -0.303496003       965.154236      -1.44284701    
  0.275831014      -1.33588004     -0.606999993       965.154236      -1.44284701    
  0.119135000      -1.35326600     -0.606999993       965.154236      -1.44284701    
  0.119547002      -1.35239303     -0.303498000       965.154236      -1.44284701    
  0.275435001      -1.33191597     -0.303496003       1650.93396      -1.43989837    
  0.276576012      -1.33565402       0.00000000       1650.93396      -1.43989837    
  0.427509993      -1.28986895       0.00000000       1650.93396      -1.43989837    
  0.427076995      -1.28898001     -0.303507000       1650.93396      -1.43989837    
  0.427509993      -1.28986895       0.00000000       2354.74878      -1.43843770    
  0.574636996      -1.23315501       0.00000000       2354.74878      -1.43843770    
  0.573706985      -1.23136795     -0.303485990       2354.74878      -1.43843770    
  0.427076995      -1.28898001     -0.303507000       2354.74878      -1.43843770    
  0.573706985      -1.23136795     -0.303485990       3114.69727      -1.43793964    
  0.712854981      -1.15688002     -0.303496987       3114.69727      -1.43793964    
  0.713809013      -1.15876603     -0.606999993       3114.69727      -1.43793964    
  0.574283004      -1.23334301     -0.606999993       3114.69727      -1.43793964    
  0.573706985      -1.23136795     -0.303485990       2422.85864      -1.43860185    
  0.574283004      -1.23334301     -0.606999993       2422.85864      -1.43860185    
  0.427242011      -1.28995001     -0.606999993       2422.85864      -1.43860185    
  0.427076995      -1.28898001     -0.303507000       2422.85864      -1.43860185    
  0.573706985      -1.23136795     -0.303485990       3028.15991      -1.43743026    
  0.574636996      -1.23315501       0.00000000       3028.15991      -1.43743026    
  0.713741004      -1.15880203       0.00000000       3028.15991      -1.43743026    
  0.712854981      -1.15688002     -0.303496987       3028.15991      -1.43743026    
  0.713741004      -1.15880203       0.00000000       3659.36377      -1.43682528    
  0.841937006      -1.06636095       0.00000000       3659.36377      -1.43682528    
  0.841498017      -1.06573403     -0.303485990       3659.36377      -1.43682528    
  0.712854981      -1.15688002     -0.303496987       3659.36377      -1.43682528    
  0.841498017      -1.06573403     -0.303485990       4371.32520      -1.43741524    
  0.960639000     -0.962104976     -0.303470999       4371.32520      -1.43741524    
  0.964356005     -0.965893984     -0.606999993       4371.32520      -1.43741524    
  0.841796994      -1.06647599     -0.606999993       4371.32520      -1.43741524    
  0.841498017      -1.06573403     -0.303485990       3757.05493      -1.43776822    
  0.841796994      -1.06647599     -0.606999993       3757.05493      -1.43776822    
  0.713809013      -1.15876603     -0.606999993       3757.05493      -1.43776822    
  0.712854981      -1.15688002     -0.303496987       3757.05493      -1.43776822    
  0.841498017      -1.06573403     -0.303485990       4281.83447      -1.43586302    
  0.841937006      -1.06636095       0.00000000       4281.83447      -1.43586302    
  0.963932991     -0.966242015       0.00000000       4281.83447      -1.43586302    
  0.960639000     -0.962104976     -0.303470999       4281.83447      -1.43586302    
  0.963932991     -0.966242015       0.00000000       4802.89746      -1.43566513    
   1.06506598     -0.843514979       0.00000000       4802.89746      -1.43566513    
   1.06428695     -0.842682004     -0.303481996       4802.89746      -1.43566513    
  0.960639000     -0.962104976     -0.303470999       4802.89746      -1.43566513    
   1.06428695     -0.842682004     -0.303481996       5394.84326      -1.43660605    
   1.15591598     -0.714210987     -0.303485006       5394.84326      -1.43660605    
   1.15788805     -0.715448976     -0.606999993       5394.84326      -1.43660605    
   1.06537795     -0.843134999     -0.606999993       5394.84326      -1.43660605    
   1.06428695     -0.842682004     -0.303481996       4905.04883      -1.43731570    
   1.06537795     -0.843134999     -0.606999993       4905.04883      -1.43731570    
  0.964356005     -0.965893984     -0.606999993       4905.04883      -1.43731570    
  0.960639000     -0.962104976     -0.303470999       4905.04883      -1.43731570    
   1.06428695     -0.842682004     -0.303481996       5260.45752      -1.43552148    
   1.06506598     -0.843514979       0.00000000       5260.45752      -1.43552148    
   1.15792501     -0.715381980       0.00000000       5260.45752      -1.43552148    
   1.15591598     -0.714210987     -0.303485006       5260.45752      -1.43552148    
   1.15792501     -0.715381980       0.00000000       5679.19092      -1.43538713    
   1.23237598     -0.576093972       0.00000000       5679.19092      -1.43538713    
   1.23120904     -0.575251997     -0.303514004       5679.19092      -1.43538713    
   1.15591598     -0.714210987     -0.303485006       5679.19092      -1.43538713    
   1.23120904     -0.575251997     -0.303514004       6124.21240      -1.43649530    
   1.28844094     -0.428344995     -0.303512990       6124.21240      -1.43649530    
   1.28952503     -0.428642988     -0.606999993       6124.21240      -1.43649530    
   1.23252702     -0.575810015     -0.606999993       6124.21240      -1.43649530    
   1.23120904     -0.575251997     -0.303514004       5803.04004      -1.43655562    
   1.23252702     -0.575810015     -0.606999993       5803.04004      -1.43655562    
   1.15788805     -0.715448976     -0.606999993       5803.04004      -1.43655562    
   1.15591598     -0.714210987     -0.303485006       5803.04004      -1.43655562    
   1.23120904     -0.575251997     -0.303514004       6029.49268      -1.43490052    
   1.23237598     -0.576093972       0.00000000       6029.49268      -1.43490052    
   1.28947699     -0.428801000       0.00000000       6029.49268      -1.43490052    
   1.28844094     -0.428344995     -0.303512990       6029.49268      -1.43490052    
   1.28947699     -0.428801000       0.00000000       6269.55566      -1.43513644    
   1.33532202     -0.277671993       0.00000000       6269.55566      -1.43513644    
   1.33076501     -0.276203990     -0.303492010       6269.55566      -1.43513644    
   1.28844094     -0.428344995     -0.303512990       6269.55566      -1.43513644    
   1.33076501     -0.276203990     -0.303492010       6556.32471      -1.43588006    
   1.35229194     -0.119709998     -0.303514004       6556.32471      -1.43588006    
   1.35321999     -0.119608998     -0.606999993       6556.32471      -1.43588006    
   1.33549094     -0.277112991     -0.606999993       6556.32471      -1.43588006    
   1.33076501     -0.276203990     -0.303492010       6377.79639      -1.43650723    
   1.33549094     -0.277112991     -0.606999993       6377.79639      -1.43650723    
   1.28952503     -0.428642988     -0.606999993       6377.79639      -1.43650723    
   1.28844094     -0.428344995     -0.303512990       6377.79639      -1.43650723    
   1.33076501     -0.276203990     -0.303492010       6398.79541      -1.43553579    
   1.33532202     -0.277671993       0.00000000       6398.79541      -1.43553579    
   1.35319102     -0.119900003       0.00000000       6398.79541      -1.43553579    
   1.35229194     -0.119709998     -0.303514004       6398.79541      -1.43553579    
   1.35319102     -0.119900003       0.00000000       6468.40479      -1.43554235    
   1.36124396       3.81390005E-02   0.00000000       6468.40479      -1.43554235    
   1.35858905       3.79349999E-02 -0.303501010       6468.40479      -1.43554235    
   1.35229194     -0.119709998     -0.303514004       6468.40479      -1.43554235    
   1.35858905       3.79349999E-02 -0.303501010       6590.54688      -1.43625343    
   1.34464097      0.195331007     -0.303496003       6590.54688      -1.43625343    
   1.34573400      0.195616007     -0.606999993       6590.54688      -1.43625343    
   1.36126804       3.78950015E-02 -0.606999993       6590.54688      -1.43625343    
   1.35858905       3.79349999E-02 -0.303501010       6605.31543      -1.43623161    
   1.36126804       3.78950015E-02 -0.606999993       6605.31543      -1.43623161    
   1.35321999     -0.119608998     -0.606999993       6605.31543      -1.43623161    
   1.35229194     -0.119709998     -0.303514004       6605.31543      -1.43623161    
   1.35858905       3.79349999E-02 -0.303501010       6483.36523      -1.43491328    
   1.36124396       3.81390005E-02   0.00000000       6483.36523      -1.43491328    
   1.34575403      0.195406005       0.00000000       6483.36523      -1.43491328    
   1.34464097      0.195331007     -0.303496003       6483.36523      -1.43491328    
   1.34575403      0.195406005       0.00000000       6379.53760      -1.43496335    
   1.31339800      0.349945009       0.00000000       6379.53760      -1.43496335    
   1.31216300      0.349725991     -0.303487003       6379.53760      -1.43496335    
   1.34464097      0.195331007     -0.303496003       6379.53760      -1.43496335    
   1.31216300      0.349725991     -0.303487003       6272.34082      -1.43663108    
   1.26341999      0.500032008     -0.303494006       6272.34082      -1.43663108    
   1.26736605      0.501691997     -0.606999993       6272.34082      -1.43663108    
   1.31333196      0.350163996     -0.606999993       6272.34082      -1.43663108    
   1.31216300      0.349725991     -0.303487003       6475.34326      -1.43624818    
   1.31333196      0.350163996     -0.606999993       6475.34326      -1.43624818    
   1.34573400      0.195616007     -0.606999993       6475.34326      -1.43624818    
   1.34464097      0.195331007     -0.303496003       6475.34326      -1.43624818    
   1.31216300      0.349725991     -0.303487003       6202.84961      -1.43495762    
   1.31339800      0.349945009       0.00000000       6202.84961      -1.43495762    
   1.26751196      0.501209974       0.00000000       6202.84961      -1.43495762    
   1.26341999      0.500032008     -0.303494006       6202.84961      -1.43495762    
   1.26751196      0.501209974       0.00000000       5897.40674      -1.43573666    
   1.19658697      0.643051028       0.00000000       5897.40674      -1.43573666    
   1.19583094      0.642783999     -0.303505003       5897.40674      -1.43573666    
   1.26341999      0.500032008     -0.303494006       5897.40674      -1.43573666    
   1.19583094      0.642783999     -0.303505003       5646.34375      -1.43608260    
   1.11495602      0.778467000     -0.303483993       5646.34375      -1.43608260    
   1.11731696      0.779847026     -0.606999993       5646.34375      -1.43608260    
   1.19653296      0.643149972     -0.606999993       5646.34375      -1.43608260    
   1.19583094      0.642783999     -0.303505003       5988.86084      -1.43667531    
   1.19653296      0.643149972     -0.606999993       5988.86084      -1.43667531    
   1.26736605      0.501691997     -0.606999993       5988.86084      -1.43667531    
   1.26341999      0.500032008     -0.303494006       5988.86084      -1.43667531    
   1.19583094      0.642783999     -0.303505003       5506.85596      -1.43596613    
   1.19658697      0.643051028       0.00000000       5506.85596      -1.43596613    
   1.11705506      0.780165970       0.00000000       5506.85596      -1.43596613    
   1.11495602      0.778467000     -0.303483993       5506.85596      -1.43596613    
   1.11705506      0.780165970       0.00000000       5062.54248      -1.43617105    
   1.01674199      0.902397990       0.00000000       5062.54248      -1.43617105    
   1.01591504      0.901737988     -0.303478003       5062.54248      -1.43617105    
   1.11495602      0.778467000     -0.303483993       5062.54248      -1.43617105    
   1.01591504      0.901737988     -0.303478003       4667.10645      -1.43692303    
  0.904204011       1.01322901     -0.303456992       4667.10645      -1.43692303    
  0.905143023       1.01448905     -0.606999993       4667.10645      -1.43692303    
   1.01659799      0.902572989     -0.606999993       4667.10645      -1.43692303    
   1.01591504      0.901737988     -0.303478003       5187.98584      -1.43678713    
   1.01659799      0.902572989     -0.606999993       5187.98584      -1.43678713    
   1.11731696      0.779847026     -0.606999993       5187.98584      -1.43678713    
   1.11495602      0.778467000     -0.303483993       5187.98584      -1.43678713    
   1.01591504      0.901737988     -0.303478003       4540.29736      -1.43647027    
   1.01674199      0.902397990       0.00000000       4540.29736      -1.43647027    
  0.905318975       1.01434398       0.00000000       4540.29736      -1.43647027    
  0.904204011       1.01322901     -0.303456992       4540.29736      -1.43647027    
  0.905318975       1.01434398       0.00000000       4012.25659      -1.43578672    
  0.782918990       1.11479497       0.00000000       4012.25659      -1.43578672    
  0.780644000       1.11195600     -0.303485006       4012.25659      -1.43578672    
  0.904204011       1.01322901     -0.303456992       4012.25659      -1.43578672    
  0.780644000       1.11195600     -0.303485006       3471.06323      -1.43740058    
  0.645825028       1.19414902     -0.303514004       3471.06323      -1.43740058    
  0.646153986       1.19492805     -0.606999993       3471.06323      -1.43740058    
  0.782611012       1.11504900     -0.606999993       3471.06323      -1.43740058    
  0.780644000       1.11195600     -0.303485006       4095.54028      -1.43719244    
  0.782611012       1.11504900     -0.606999993       4095.54028      -1.43719244    
  0.905143023       1.01448905     -0.606999993       4095.54028      -1.43719244    
  0.904204011       1.01322901     -0.303456992       4095.54028      -1.43719244    
  0.780644000       1.11195600     -0.303485006       3405.99854      -1.43595433    
  0.782918990       1.11479497       0.00000000       3405.99854      -1.43595433    
  0.646345019       1.19482601       0.00000000       3405.99854      -1.43595433    
  0.645825028       1.19414902     -0.303514004       3405.99854      -1.43595433    
  0.646345019       1.19482601       0.00000000       2708.01978      -1.43806529    
  0.504974008       1.26637006       0.00000000       2708.01978      -1.43806529    
  0.503772974       1.26314998     -0.303521991       2708.01978      -1.43806529    
  0.645825028       1.19414902     -0.303514004       2708.01978      -1.43806529    
  0.503772974       1.26314998     -0.303521991       2092.51904      -1.43850470    
  0.353130996       1.31116498     -0.303510994       2092.51904      -1.43850470    
  0.353300005       1.31237996     -0.606999993       2092.51904      -1.43850470    
  0.505183995       1.26630700     -0.606999993       2092.51904      -1.43850470    
  0.503772974       1.26314998     -0.303521991       2791.69092      -1.43797076    
  0.505183995       1.26630700     -0.606999993       2791.69092      -1.43797076    
  0.646153986       1.19492805     -0.606999993       2791.69092      -1.43797076    
  0.645825028       1.19414902     -0.303514004       2791.69092      -1.43797076    
  0.503772974       1.26314998     -0.303521991       2025.03406      -1.43943584    
  0.504974008       1.26637006       0.00000000       2025.03406      -1.43943584    
  0.353493989       1.31232095       0.00000000       2025.03406      -1.43943584    
  0.353130996       1.31116498     -0.303510994       2025.03406      -1.43943584    
  0.353493989       1.31232095       0.00000000       1291.71252      -1.44282603    
  0.199064001       1.34539402       0.00000000       1291.71252      -1.44282603    
  0.198755994       1.34360003     -0.303496003       1291.71252      -1.44282603    
  0.353130996       1.31116498     -0.303510994       1291.71252      -1.44282603    
  0.198755994       1.34360003     -0.303496003       561.966980      -1.45495808    
   4.12769988E-02   1.35817802     -0.303508013       561.966980      -1.45495808    
   4.12410013E-02   1.36093795     -0.606999993       561.966980      -1.45495808    
  0.199025005       1.34539795     -0.606999993       561.966980      -1.45495808    
  0.198755994       1.34360003     -0.303496003       1347.98535      -1.44037282    
  0.199025005       1.34539795     -0.606999993       1347.98535      -1.44037282    
  0.353300005       1.31237996     -0.606999993       1347.98535      -1.44037282    
  0.353130996       1.31116498     -0.303510994       1347.98535      -1.44037282    
  0.198755994       1.34360003     -0.303496003       548.527466      -1.45540559    
  0.199064001       1.34539402       0.00000000       548.527466      -1.45540559    
   4.17769998E-02   1.36088502       0.00000000       548.527466      -1.45540559    
   4.12769988E-02   1.35817802     -0.303508013       548.527466      -1.45540559    
   4.17769998E-02   1.36088502       0.00000000       196.133804       1.76825547    
 -0.116410002       1.35353506       0.00000000       196.133804       1.76825547    
 -0.116471998       1.35271096     -0.303496987       196.133804       1.76825547    
   4.12769988E-02   1.35817802     -0.303508013       196.133804       1.76825547    
 -0.116471998       1.35271096     -0.303496987       973.402649       1.72060323    
 -0.273027003       1.33229196     -0.303496003       973.402649       1.72060323    
 -0.273876995       1.33647299     -0.606999993       973.402649       1.72060323    
 -0.116722003       1.35350394     -0.606999993       973.402649       1.72060323    
 -0.116471998       1.35271096     -0.303496987       197.264572       1.76129830    
 -0.116722003       1.35350394     -0.606999993       197.264572       1.76129830    
   4.12410013E-02   1.36093795     -0.606999993       197.264572       1.76129830    
   4.12769988E-02   1.35817802     -0.303508013       197.264572       1.76129830    
 -0.116471998       1.35271096     -0.303496987       956.189880       1.72057331    
 -0.116410002       1.35353506       0.00000000       956.189880       1.72057331    
 -0.274069011       1.33641505       0.00000000       956.189880       1.72057331    
 -0.273027003       1.33229196     -0.303496003       956.189880       1.72057331    
 -0.274069011       1.33641505       0.00000000       1673.74426       1.71501362    
 -0.425588995       1.29045200       0.00000000       1673.74426       1.71501362    
 -0.425258011       1.28953803     -0.303507000       1673.74426       1.71501362    
 -0.273027003       1.33229196     -0.303496003       1673.74426       1.71501362    
 -0.425258011       1.28953803     -0.303507000       2433.57495       1.71193683    
 -0.572302997       1.23206902     -0.303485990       2433.57495       1.71193683    
 -0.573064029       1.23399496     -0.606999993       2433.57495       1.71193683    
 -0.425651014       1.29043305     -0.606999993       2433.57495       1.71193683    
 -0.425258011       1.28953803     -0.303507000       1707.07751       1.71408165    
 -0.425651014       1.29043305     -0.606999993       1707.07751       1.71408165    
 -0.273876995       1.33647299     -0.606999993       1707.07751       1.71408165    
 -0.273027003       1.33229196     -0.303496003       1707.07751       1.71408165    
 -0.425258011       1.28953803     -0.303507000       2380.37451       1.71290135    
 -0.425588995       1.29045200       0.00000000       2380.37451       1.71290135    
 -0.573195994       1.23392498       0.00000000       2380.37451       1.71290135    
 -0.572302997       1.23206902     -0.303485990       2380.37451       1.71290135    
 -0.573195994       1.23392498       0.00000000       3050.54663       1.71176767    
 -0.712655008       1.15938199       0.00000000       3050.54663       1.71176767    
 -0.711889029       1.15749002     -0.303496003       3050.54663       1.71176767    
 -0.572302997       1.23206902     -0.303485990       3050.54663       1.71176767    
 -0.711889029       1.15749002     -0.303496003       3765.29248       1.70961714    
 -0.840825975       1.06629205     -0.303485990       3765.29248       1.70961714    
 -0.841368973       1.06682706     -0.606999993       3765.29248       1.70961714    
 -0.712980986       1.15920806     -0.606999993       3765.29248       1.70961714    
 -0.711889029       1.15749002     -0.303496003       3121.40942       1.71036351    
 -0.712980986       1.15920806     -0.606999993       3121.40942       1.71036351    
 -0.573064029       1.23399496     -0.606999993       3121.40942       1.71036351    
 -0.572302997       1.23206902     -0.303485990       3121.40942       1.71036351    
 -0.711889029       1.15749002     -0.303496003       3670.15601       1.71096182    
 -0.712655008       1.15938199       0.00000000       3670.15601       1.71096182    
 -0.841165006       1.06699395       0.00000000       3670.15601       1.71096182    
 -0.840825975       1.06629205     -0.303485990       3670.15601       1.71096182    
 -0.841165006       1.06699395       0.00000000       4267.41992       1.71059394    
 -0.963320017      0.966744006       0.00000000       4267.41992       1.71059394    
 -0.960084975      0.962615013     -0.303470999       4267.41992       1.71059394    
 -0.840825975       1.06629205     -0.303485990       4267.41992       1.71059394    
 -0.960084975      0.962615013     -0.303470999       4908.53125       1.70871317    
  -1.06383705      0.843237996     -0.303481996       4908.53125       1.70871317    
  -1.06481802      0.843816996     -0.606999993       4908.53125       1.70871317    
 -0.963873982      0.966289997     -0.606999993       4908.53125       1.70871317    
 -0.960084975      0.962615013     -0.303470999       4375.70459       1.70915186    
 -0.963873982      0.966289997     -0.606999993       4375.70459       1.70915186    
 -0.841368973       1.06682706     -0.606999993       4375.70459       1.70915186    
 -0.840825975       1.06629205     -0.303485990       4375.70459       1.70915186    
 -0.960084975      0.962615013     -0.303470999       4795.89355       1.71042168    
 -0.963320017      0.966744006       0.00000000       4795.89355       1.71042168    
  -1.06464398      0.844029009       0.00000000       4795.89355       1.71042168    
  -1.06383705      0.843237996     -0.303481996       4795.89355       1.71042168    
  -1.06464398      0.844029009       0.00000000       5275.11963       1.71016181    
  -1.15769398      0.715813994       0.00000000       5275.11963       1.71016181    
  -1.15564799      0.714680016     -0.303483993       5275.11963       1.71016181    
  -1.06383705      0.843237996     -0.303481996       5275.11963       1.71016181    
  -1.15564799      0.714680016     -0.303483993       5802.11572       1.70845163    
  -1.23108304      0.575536013     -0.303514004       5802.11572       1.70845163    
  -1.23232996      0.576179981     -0.606999993       5802.11572       1.70845163    
  -1.15756094      0.716063023     -0.606999993       5802.11572       1.70845163    
  -1.15564799      0.714680016     -0.303483993       5387.04785       1.70857561    
  -1.15756094      0.716063023     -0.606999993       5387.04785       1.70857561    
  -1.06481802      0.843816996     -0.606999993       5387.04785       1.70857561    
  -1.06383705      0.843237996     -0.303481996       5387.04785       1.70857561    
  -1.15564799      0.714680016     -0.303483993       5711.33398       1.70999706    
  -1.15769398      0.715813994       0.00000000       5711.33398       1.70999706    
  -1.23224795      0.576331973       0.00000000       5711.33398       1.70999706    
  -1.23108304      0.575536013     -0.303514004       5711.33398       1.70999706    
  -1.23224795      0.576331973       0.00000000       6049.94238       1.70987725    
  -1.28948605      0.428772002       0.00000000       6049.94238       1.70987725    
  -1.28842103      0.428404987     -0.303512990       6049.94238       1.70987725    
  -1.23108304      0.575536013     -0.303514004       6049.94238       1.70987725    
  -1.28842103      0.428404987     -0.303512990       6360.55762       1.70768821    
  -1.33082402      0.275959998     -0.303492010       6360.55762       1.70768821    
  -1.33550000      0.277083993     -0.606999993       6360.55762       1.70768821    