 VARIABLES="X" "Y" "Z" "abs(p) (Pa)" "angle(p) (rad)"
ZONE N=   2720,E =    2069, F=FEPOINT, ET=QUADRILATERAL
 -0.767116010      -1.12776399       0.00000000       9901.71387      -1.54183769    
 -0.769354999      -1.12002099     -0.303523988       9901.71387      -1.54183769    
 -0.896136999      -1.02028203     -0.303463012       9901.71387      -1.54183769    
 -0.894908011      -1.02288902       0.00000000       9901.71387      -1.54183769    
 -0.767116010      -1.12776399       0.00000000       10790.2646      -1.54189658    
 -0.630888999      -1.20308697       0.00000000       10790.2646      -1.54189658    
 -0.635528028      -1.19958198     -0.303541005       10790.2646      -1.54189658    
 -0.769354999      -1.12002099     -0.303523988       10790.2646      -1.54189658    
 -0.635528028      -1.19958198     -0.303541005       242.900543       1.19604182    
 -0.495362997      -1.26606500     -0.303519011       242.900543       1.19604182    
 -0.499298006      -1.26809204     -0.606999993       242.900543       1.19604182    
 -0.640147984      -1.19813800     -0.606998026       242.900543       1.19604182    
 -0.635528028      -1.19958198     -0.303541005       247.775223       1.22873366    
 -0.640147984      -1.19813800     -0.606998026       247.775223       1.22873366    
 -0.777105987      -1.11956596     -0.606999993       247.775223       1.22873366    
 -0.769354999      -1.12002099     -0.303523988       247.775223       1.22873366    
 -0.635528028      -1.19958198     -0.303541005       11413.2344      -1.54187131    
 -0.630888999      -1.20308697       0.00000000       11413.2344      -1.54187131    
 -0.494486004      -1.26955199       0.00000000       11413.2344      -1.54187131    
 -0.495362997      -1.26606500     -0.303519011       11413.2344      -1.54187131    
 -0.494486004      -1.26955199       0.00000000       12014.6426      -1.54193199    
 -0.346311986      -1.31449997       0.00000000       12014.6426      -1.54193199    
 -0.346753001      -1.31307304     -0.303510010       12014.6426      -1.54193199    
 -0.495362997      -1.26606500     -0.303519011       12014.6426      -1.54193199    
 -0.346753001      -1.31307304     -0.303510010       294.468506       1.24151838    
 -0.193608001      -1.34425998     -0.303494990       294.468506       1.24151838    
 -0.195028007      -1.34579206     -0.606999993       294.468506       1.24151838    
 -0.348751009      -1.31376004     -0.606999993       294.468506       1.24151838    
 -0.346753001      -1.31307304     -0.303510010       248.288422       1.18637669    
 -0.348751009      -1.31376004     -0.606999993       248.288422       1.18637669    
 -0.499298006      -1.26809204     -0.606999993       248.288422       1.18637669    
 -0.495362997      -1.26606500     -0.303519011       248.288422       1.18637669    
 -0.346753001      -1.31307304     -0.303510010       12243.3418      -1.54186857    
 -0.346311986      -1.31449997       0.00000000       12243.3418      -1.54186857    
 -0.193381995      -1.34595394       0.00000000       12243.3418      -1.54186857    
 -0.193608001      -1.34425998     -0.303494990       12243.3418      -1.54186857    
 -0.193381995      -1.34595394       0.00000000       12511.1885      -1.54196167    
  -3.75179984E-02  -1.36130500       0.00000000       12511.1885      -1.54196167    
  -3.73950005E-02  -1.35827899     -0.303512007       12511.1885      -1.54196167    
 -0.193608001      -1.34425998     -0.303494990       12511.1885      -1.54196167    
  -3.73950005E-02  -1.35827899     -0.303512007       368.898132       1.30885458    
  0.119547002      -1.35239303     -0.303498000       368.898132       1.30885458    
  0.119135000      -1.35326600     -0.606999993       368.898132       1.30885458    
  -3.82840000E-02  -1.36122894     -0.606998980       368.898132       1.30885458    
  -3.73950005E-02  -1.35827899     -0.303512007       319.938293       1.26472604    
  -3.82840000E-02  -1.36122894     -0.606998980       319.938293       1.26472604    
 -0.195028007      -1.34579206     -0.606999993       319.938293       1.26472604    
 -0.193608001      -1.34425998     -0.303494990       319.938293       1.26472604    
  -3.73950005E-02  -1.35827899     -0.303512007       12390.1523      -1.54198480    
  -3.75179984E-02  -1.36130500       0.00000000       12390.1523      -1.54198480    
  0.119788997      -1.35320199       0.00000000       12390.1523      -1.54198480    
  0.119547002      -1.35239303     -0.303498000       12390.1523      -1.54198480    
  0.119788997      -1.35320199       0.00000000       12330.7588      -1.54216456    
  0.276576012      -1.33565402       0.00000000       12330.7588      -1.54216456    
  0.275435001      -1.33191597     -0.303496003       12330.7588      -1.54216456    
  0.119547002      -1.35239303     -0.303498000       12330.7588      -1.54216456    
  0.275435001      -1.33191597     -0.303496003       457.782196       1.37243032    
  0.427076995      -1.28898001     -0.303507000       457.782196       1.37243032    
  0.427242011      -1.28995001     -0.606999993       457.782196       1.37243032    
  0.275831014      -1.33588004     -0.606999993       457.782196       1.37243032    
  0.275435001      -1.33191597     -0.303496003       428.780579       1.35193157    
  0.275831014      -1.33588004     -0.606999993       428.780579       1.35193157    
  0.119135000      -1.35326600     -0.606999993       428.780579       1.35193157    
  0.119547002      -1.35239303     -0.303498000       428.780579       1.35193157    
  0.275435001      -1.33191597     -0.303496003       11989.4795      -1.54228055    
  0.276576012      -1.33565402       0.00000000       11989.4795      -1.54228055    
  0.427509993      -1.28986895       0.00000000       11989.4795      -1.54228055    
  0.427076995      -1.28898001     -0.303507000       11989.4795      -1.54228055    
  0.427509993      -1.28986895       0.00000000       11106.9209      -1.54219103    
  0.574636996      -1.23315501       0.00000000       11106.9209      -1.54219103    
  0.573706985      -1.23136795     -0.303485990       11106.9209      -1.54219103    
  0.427076995      -1.28898001     -0.303507000       11106.9209      -1.54219103    
  0.573706985      -1.23136795     -0.303485990       508.663147       1.41189802    
  0.712854981      -1.15688002     -0.303496987       508.663147       1.41189802    
  0.713809013      -1.15876603     -0.606999993       508.663147       1.41189802    
  0.574283004      -1.23334301     -0.606999993       508.663147       1.41189802    
  0.573706985      -1.23136795     -0.303485990       509.522797       1.40231919    
  0.574283004      -1.23334301     -0.606999993       509.522797       1.40231919    
  0.427242011      -1.28995001     -0.606999993       509.522797       1.40231919    
  0.427076995      -1.28898001     -0.303507000       509.522797       1.40231919    
  0.573706985      -1.23136795     -0.303485990       10358.2705      -1.54227495    
  0.574636996      -1.23315501       0.00000000       10358.2705      -1.54227495    
  0.713741004      -1.15880203       0.00000000       10358.2705      -1.54227495    
  0.712854981      -1.15688002     -0.303496987       10358.2705      -1.54227495    
  0.713741004      -1.15880203       0.00000000       9517.17090      -1.54242396    
  0.841937006      -1.06636095       0.00000000       9517.17090      -1.54242396    
  0.841498017      -1.06573403     -0.303485990       9517.17090      -1.54242396    
  0.712854981      -1.15688002     -0.303496987       9517.17090      -1.54242396    
  0.841498017      -1.06573403     -0.303485990       459.994843       1.42202473    
  0.960639000     -0.962104976     -0.303470999       459.994843       1.42202473    
  0.964356005     -0.965893984     -0.606999993       459.994843       1.42202473    
  0.841796994      -1.06647599     -0.606999993       459.994843       1.42202473    
  0.841498017      -1.06573403     -0.303485990       512.674988       1.42514861    
  0.841796994      -1.06647599     -0.606999993       512.674988       1.42514861    
  0.713809013      -1.15876603     -0.606999993       512.674988       1.42514861    
  0.712854981      -1.15688002     -0.303496987       512.674988       1.42514861    
  0.841498017      -1.06573403     -0.303485990       8984.86816      -1.54295909    
  0.841937006      -1.06636095       0.00000000       8984.86816      -1.54295909    
  0.963932991     -0.966242015       0.00000000       8984.86816      -1.54295909    
  0.960639000     -0.962104976     -0.303470999       8984.86816      -1.54295909    
  0.963932991     -0.966242015       0.00000000       8182.50244      -1.54343057    
   1.06506598     -0.843514979       0.00000000       8182.50244      -1.54343057    
   1.06428695     -0.842682004     -0.303481996       8182.50244      -1.54343057    
  0.960639000     -0.962104976     -0.303470999       8182.50244      -1.54343057    
   1.06428695     -0.842682004     -0.303481996       409.646454       1.44142616    
   1.15591598     -0.714210987     -0.303485006       409.646454       1.44142616    
   1.15788805     -0.715448976     -0.606999993       409.646454       1.44142616    
   1.06537795     -0.843134999     -0.606999993       409.646454       1.44142616    
   1.06428695     -0.842682004     -0.303481996       407.257324       1.41942835    
   1.06537795     -0.843134999     -0.606999993       407.257324       1.41942835    
  0.964356005     -0.965893984     -0.606999993       407.257324       1.41942835    
  0.960639000     -0.962104976     -0.303470999       407.257324       1.41942835    
   1.06428695     -0.842682004     -0.303481996       6977.77295      -1.54390967    
   1.06506598     -0.843514979       0.00000000       6977.77295      -1.54390967    
   1.15792501     -0.715381980       0.00000000       6977.77295      -1.54390967    
   1.15591598     -0.714210987     -0.303485006       6977.77295      -1.54390967    
   1.15792501     -0.715381980       0.00000000       5955.75879      -1.54480505    
   1.23237598     -0.576093972       0.00000000       5955.75879      -1.54480505    
   1.23120904     -0.575251997     -0.303514004       5955.75879      -1.54480505    
   1.15591598     -0.714210987     -0.303485006       5955.75879      -1.54480505    
   1.23120904     -0.575251997     -0.303514004       283.244324       1.44558299    
   1.28844094     -0.428344995     -0.303512990       283.244324       1.44558299    
   1.28952503     -0.428642988     -0.606999993       283.244324       1.44558299    
   1.23252702     -0.575810015     -0.606999993       283.244324       1.44558299    
   1.23120904     -0.575251997     -0.303514004       331.105835       1.43523455    
   1.23252702     -0.575810015     -0.606999993       331.105835       1.43523455    
   1.15788805     -0.715448976     -0.606999993       331.105835       1.43523455    
   1.15591598     -0.714210987     -0.303485006       331.105835       1.43523455    
   1.23120904     -0.575251997     -0.303514004       4651.25684      -1.54573703    
   1.23237598     -0.576093972       0.00000000       4651.25684      -1.54573703    
   1.28947699     -0.428801000       0.00000000       4651.25684      -1.54573703    
   1.28844094     -0.428344995     -0.303512990       4651.25684      -1.54573703    
   1.28947699     -0.428801000       0.00000000       3379.49561      -1.54790330    
   1.33532202     -0.277671993       0.00000000       3379.49561      -1.54790330    
   1.33076501     -0.276203990     -0.303492010       3379.49561      -1.54790330    
   1.28844094     -0.428344995     -0.303512990       3379.49561      -1.54790330    
   1.33076501     -0.276203990     -0.303492010       191.519516       1.48777807    
   1.35229194     -0.119709998     -0.303514004       191.519516       1.48777807    
   1.35321999     -0.119608998     -0.606999993       191.519516       1.48777807    
   1.33549094     -0.277112991     -0.606999993       191.519516       1.48777807    
   1.33076501     -0.276203990     -0.303492010       244.437790       1.46721363    
   1.33549094     -0.277112991     -0.606999993       244.437790       1.46721363    
   1.28952503     -0.428642988     -0.606999993       244.437790       1.46721363    
   1.28844094     -0.428344995     -0.303512990       244.437790       1.46721363    
   1.33076501     -0.276203990     -0.303492010       2076.02173      -1.55276549    
   1.33532202     -0.277671993       0.00000000       2076.02173      -1.55276549    
   1.35319102     -0.119900003       0.00000000       2076.02173      -1.55276549    
   1.35229194     -0.119709998     -0.303514004       2076.02173      -1.55276549    
   1.35319102     -0.119900003       0.00000000       594.261841      -1.58108437    
   1.36124396       3.81390005E-02   0.00000000       594.261841      -1.58108437    
   1.35858905       3.79349999E-02 -0.303501010       594.261841      -1.58108437    
   1.35229194     -0.119709998     -0.303514004       594.261841      -1.58108437    
   1.35858905       3.79349999E-02 -0.303501010       64.8877792       1.64505339    
   1.34464097      0.195331007     -0.303496003       64.8877792       1.64505339    
   1.34573400      0.195616007     -0.606999993       64.8877792       1.64505339    
   1.36126804       3.78950015E-02 -0.606999993       64.8877792       1.64505339    
   1.35858905       3.79349999E-02 -0.303501010       109.251335       1.52110064    
   1.36126804       3.78950015E-02 -0.606999993       109.251335       1.52110064    
   1.35321999     -0.119608998     -0.606999993       109.251335       1.52110064    
   1.35229194     -0.119709998     -0.303514004       109.251335       1.52110064    
   1.35858905       3.79349999E-02 -0.303501010       826.545532       1.62859607    
   1.36124396       3.81390005E-02   0.00000000       826.545532       1.62859607    
   1.34575403      0.195406005       0.00000000       826.545532       1.62859607    
   1.34464097      0.195331007     -0.303496003       826.545532       1.62859607    
   1.34575403      0.195406005       0.00000000       2259.51929       1.61047530    
   1.31339800      0.349945009       0.00000000       2259.51929       1.61047530    
   1.31216300      0.349725991     -0.303487003       2259.51929       1.61047530    
   1.34464097      0.195331007     -0.303496003       2259.51929       1.61047530    
   1.31216300      0.349725991     -0.303487003       45.7122040      -2.14543962    
   1.26341999      0.500032008     -0.303494006       45.7122040      -2.14543962    
   1.26736605      0.501691997     -0.606999993       45.7122040      -2.14543962    
   1.31333196      0.350163996     -0.606999993       45.7122040      -2.14543962    
   1.31216300      0.349725991     -0.303487003       28.7156887       2.12868261    
   1.31333196      0.350163996     -0.606999993       28.7156887       2.12868261    
   1.34573400      0.195616007     -0.606999993       28.7156887       2.12868261    
   1.34464097      0.195331007     -0.303496003       28.7156887       2.12868261    
   1.31216300      0.349725991     -0.303487003       3736.15942       1.60628009    
   1.31339800      0.349945009       0.00000000       3736.15942       1.60628009    
   1.26751196      0.501209974       0.00000000       3736.15942       1.60628009    
   1.26341999      0.500032008     -0.303494006       3736.15942       1.60628009    
   1.26751196      0.501209974       0.00000000       5000.82422       1.60473764    
   1.19658697      0.643051028       0.00000000       5000.82422       1.60473764    
   1.19583094      0.642783999     -0.303505003       5000.82422       1.60473764    
   1.26341999      0.500032008     -0.303494006       5000.82422       1.60473764    
   1.19583094      0.642783999     -0.303505003       161.369949      -1.83756590    
   1.11495602      0.778467000     -0.303483993       161.369949      -1.83756590    
   1.11731696      0.779847026     -0.606999993       161.369949      -1.83756590    
   1.19653296      0.643149972     -0.606999993       161.369949      -1.83756590    
   1.19583094      0.642783999     -0.303505003       106.069710      -1.89502478    
   1.19653296      0.643149972     -0.606999993       106.069710      -1.89502478    
   1.26736605      0.501691997     -0.606999993       106.069710      -1.89502478    
   1.26341999      0.500032008     -0.303494006       106.069710      -1.89502478    
   1.19583094      0.642783999     -0.303505003       6221.55176       1.60364425    
   1.19658697      0.643051028       0.00000000       6221.55176       1.60364425    
   1.11705506      0.780165970       0.00000000       6221.55176       1.60364425    
   1.11495602      0.778467000     -0.303483993       6221.55176       1.60364425    
   1.11705506      0.780165970       0.00000000       7298.83008       1.60296595    
   1.01674199      0.902397990       0.00000000       7298.83008       1.60296595    
   1.01591504      0.901737988     -0.303478003       7298.83008       1.60296595    
   1.11495602      0.778467000     -0.303483993       7298.83008       1.60296595    
   1.01591504      0.901737988     -0.303478003       292.037720      -1.76725054    
  0.904204011       1.01322901     -0.303456992       292.037720      -1.76725054    
  0.905143023       1.01448905     -0.606999993       292.037720      -1.76725054    
   1.01659799      0.902572989     -0.606999993       292.037720      -1.76725054    
   1.01591504      0.901737988     -0.303478003       224.793167      -1.79616809    
   1.01659799      0.902572989     -0.606999993       224.793167      -1.79616809    
   1.11731696      0.779847026     -0.606999993       224.793167      -1.79616809    
   1.11495602      0.778467000     -0.303483993       224.793167      -1.79616809    
   1.01591504      0.901737988     -0.303478003       8200.56836       1.60253751    
   1.01674199      0.902397990       0.00000000       8200.56836       1.60253751    
  0.905318975       1.01434398       0.00000000       8200.56836       1.60253751    
  0.904204011       1.01322901     -0.303456992       8200.56836       1.60253751    
  0.905318975       1.01434398       0.00000000       9278.84863       1.60204327    
  0.782918990       1.11479497       0.00000000       9278.84863       1.60204327    
  0.780644000       1.11195600     -0.303485006       9278.84863       1.60204327    
  0.904204011       1.01322901     -0.303456992       9278.84863       1.60204327    
  0.780644000       1.11195600     -0.303485006       361.023926      -1.76333475    
  0.645825028       1.19414902     -0.303514004       361.023926      -1.76333475    
  0.646153986       1.19492805     -0.606999993       361.023926      -1.76333475    
  0.782611012       1.11504900     -0.606999993       361.023926      -1.76333475    
  0.780644000       1.11195600     -0.303485006       325.774048      -1.76721489    
  0.782611012       1.11504900     -0.606999993       325.774048      -1.76721489    
  0.905143023       1.01448905     -0.606999993       325.774048      -1.76721489    
  0.904204011       1.01322901     -0.303456992       325.774048      -1.76721489    
  0.780644000       1.11195600     -0.303485006       10083.8408       1.60170341    
  0.782918990       1.11479497       0.00000000       10083.8408       1.60170341    
  0.646345019       1.19482601       0.00000000       10083.8408       1.60170341    
  0.645825028       1.19414902     -0.303514004       10083.8408       1.60170341    
  0.646345019       1.19482601       0.00000000       10978.9561       1.60135972    
  0.504974008       1.26637006       0.00000000       10978.9561       1.60135972    
  0.503772974       1.26314998     -0.303521991       10978.9561       1.60135972    
  0.645825028       1.19414902     -0.303514004       10978.9561       1.60135972    
  0.503772974       1.26314998     -0.303521991       333.325348      -1.81148279    
  0.353130996       1.31116498     -0.303510994       333.325348      -1.81148279    
  0.353300005       1.31237996     -0.606999993       333.325348      -1.81148279    
  0.505183995       1.26630700     -0.606999993       333.325348      -1.81148279    
  0.503772974       1.26314998     -0.303521991       344.169434      -1.79039800    
  0.505183995       1.26630700     -0.606999993       344.169434      -1.79039800    
  0.646153986       1.19492805     -0.606999993       344.169434      -1.79039800    
  0.645825028       1.19414902     -0.303514004       344.169434      -1.79039800    
  0.503772974       1.26314998     -0.303521991       11645.2598       1.60111153    
  0.504974008       1.26637006       0.00000000       11645.2598       1.60111153    
  0.353493989       1.31232095       0.00000000       11645.2598       1.60111153    
  0.353130996       1.31116498     -0.303510994       11645.2598       1.60111153    
  0.353493989       1.31232095       0.00000000       11983.7002       1.60099554    
  0.199064001       1.34539402       0.00000000       11983.7002       1.60099554    
  0.198755994       1.34360003     -0.303496003       11983.7002       1.60099554    
  0.353130996       1.31116498     -0.303510994       11983.7002       1.60099554    
  0.198755994       1.34360003     -0.303496003       267.192078      -1.89813316    
   4.12769988E-02   1.35817802     -0.303508013       267.192078      -1.89813316    
   4.12410013E-02   1.36093795     -0.606999993       267.192078      -1.89813316    
  0.199025005       1.34539795     -0.606999993       267.192078      -1.89813316    
  0.198755994       1.34360003     -0.303496003       325.341431      -1.82803738    
  0.199025005       1.34539795     -0.606999993       325.341431      -1.82803738    
  0.353300005       1.31237996     -0.606999993       325.341431      -1.82803738    
  0.353130996       1.31116498     -0.303510994       325.341431      -1.82803738    
  0.198755994       1.34360003     -0.303496003       12455.4023       1.60077512    
  0.199064001       1.34539402       0.00000000       12455.4023       1.60077512    
   4.17769998E-02   1.36088502       0.00000000       12455.4023       1.60077512    
   4.12769988E-02   1.35817802     -0.303508013       12455.4023       1.60077512    
   4.17769998E-02   1.36088502       0.00000000       12572.9922       1.60071909    
 -0.116410002       1.35353506       0.00000000       12572.9922       1.60071909    
 -0.116471998       1.35271096     -0.303496987       12572.9922       1.60071909    
   4.12769988E-02   1.35817802     -0.303508013       12572.9922       1.60071909    
 -0.116471998       1.35271096     -0.303496987       256.767761      -1.91337693    
 -0.273027003       1.33229196     -0.303496003       256.767761      -1.91337693    
 -0.273876995       1.33647299     -0.606999993       256.767761      -1.91337693    
 -0.116722003       1.35350394     -0.606999993       256.767761      -1.91337693    
 -0.116471998       1.35271096     -0.303496987       257.814911      -1.91386592    
 -0.116722003       1.35350394     -0.606999993       257.814911      -1.91386592    
   4.12410013E-02   1.36093795     -0.606999993       257.814911      -1.91386592    
   4.12769988E-02   1.35817802     -0.303508013       257.814911      -1.91386592    
 -0.116471998       1.35271096     -0.303496987       12790.4072       1.60053360    
 -0.116410002       1.35353506       0.00000000       12790.4072       1.60053360    
 -0.274069011       1.33641505       0.00000000       12790.4072       1.60053360    
 -0.273027003       1.33229196     -0.303496003       12790.4072       1.60053360    
 -0.274069011       1.33641505       0.00000000       12534.6826       1.60048807    
 -0.425588995       1.29045200       0.00000000       12534.6826       1.60048807    
 -0.425258011       1.28953803     -0.303507000       12534.6826       1.60048807    
 -0.273027003       1.33229196     -0.303496003       12534.6826       1.60048807    
 -0.425258011       1.28953803     -0.303507000       339.168579      -1.80603075    
 -0.572302997       1.23206902     -0.303485990       339.168579      -1.80603075    
 -0.573064029       1.23399496     -0.606999993       339.168579      -1.80603075    
 -0.425651014       1.29043305     -0.606999993       339.168579      -1.80603075    
 -0.425258011       1.28953803     -0.303507000       264.894287      -1.89359581    
 -0.425651014       1.29043305     -0.606999993       264.894287      -1.89359581    
 -0.273876995       1.33647299     -0.606999993       264.894287      -1.89359581    
 -0.273027003       1.33229196     -0.303496003       264.894287      -1.89359581    
 -0.425258011       1.28953803     -0.303507000       11588.7070       1.60067642    
 -0.425588995       1.29045200       0.00000000       11588.7070       1.60067642    
 -0.573195994       1.23392498       0.00000000       11588.7070       1.60067642    
 -0.572302997       1.23206902     -0.303485990       11588.7070       1.60067642    
 -0.573195994       1.23392498       0.00000000       10741.2500       1.60077190    
 -0.712655008       1.15938199       0.00000000       10741.2500       1.60077190    
 -0.711889029       1.15749002     -0.303496003       10741.2500       1.60077190    
 -0.572302997       1.23206902     -0.303485990       10741.2500       1.60077190    
 -0.711889029       1.15749002     -0.303496003       436.159149      -1.72370350    
 -0.840825975       1.06629205     -0.303485990       436.159149      -1.72370350    
 -0.841368973       1.06682706     -0.606999993       436.159149      -1.72370350    
 -0.712980986       1.15920806     -0.606999993       436.159149      -1.72370350    
 -0.711889029       1.15749002     -0.303496003       375.875244      -1.76767027    
 -0.712980986       1.15920806     -0.606999993       375.875244      -1.76767027    
 -0.573064029       1.23399496     -0.606999993       375.875244      -1.76767027    
 -0.572302997       1.23206902     -0.303485990       375.875244      -1.76767027    
 -0.711889029       1.15749002     -0.303496003       9687.23145       1.60100329    
 -0.712655008       1.15938199       0.00000000       9687.23145       1.60100329    
 -0.841165006       1.06699395       0.00000000       9687.23145       1.60100329    
 -0.840825975       1.06629205     -0.303485990       9687.23145       1.60100329    
 -0.841165006       1.06699395       0.00000000       8935.18555       1.60095239    
 -0.963320017      0.966744006       0.00000000       8935.18555       1.60095239    
 -0.960084975      0.962615013     -0.303470999       8935.18555       1.60095239    
 -0.840825975       1.06629205     -0.303485990       8935.18555       1.60095239    
 -0.960084975      0.962615013     -0.303470999       402.519836      -1.70144427    
  -1.06383705      0.843237996     -0.303481996       402.519836      -1.70144427    
  -1.06481802      0.843816996     -0.606999993       402.519836      -1.70144427    
 -0.963873982      0.966289997     -0.606999993       402.519836      -1.70144427    
 -0.960084975      0.962615013     -0.303470999       447.834808      -1.70319891    
 -0.963873982      0.966289997     -0.606999993       447.834808      -1.70319891    
 -0.841368973       1.06682706     -0.606999993       447.834808      -1.70319891    
 -0.840825975       1.06629205     -0.303485990       447.834808      -1.70319891    
 -0.960084975      0.962615013     -0.303470999       8088.39307       1.60092676    
 -0.963320017      0.966744006       0.00000000       8088.39307       1.60092676    
  -1.06464398      0.844029009       0.00000000       8088.39307       1.60092676    
  -1.06383705      0.843237996     -0.303481996       8088.39307       1.60092676    
  -1.06464398      0.844029009       0.00000000       6984.73779       1.60104001    
  -1.15769398      0.715813994       0.00000000       6984.73779       1.60104001    
  -1.15564799      0.714680016     -0.303483993       6984.73779       1.60104001    
  -1.06383705      0.843237996     -0.303481996       6984.73779       1.60104001    
  -1.15564799      0.714680016     -0.303483993       253.684204      -1.72176313    
  -1.23108304      0.575536013     -0.303514004       253.684204      -1.72176313    
  -1.23232996      0.576179981     -0.606999993       253.684204      -1.72176313    
  -1.15756094      0.716063023     -0.606999993       253.684204      -1.72176313    
  -1.15564799      0.714680016     -0.303483993       345.291931      -1.70173001    
  -1.15756094      0.716063023     -0.606999993       345.291931      -1.70173001    
  -1.06481802      0.843816996     -0.606999993       345.291931      -1.70173001    
  -1.06383705      0.843237996     -0.303481996       345.291931      -1.70173001    
  -1.15564799      0.714680016     -0.303483993       6024.94141       1.60099399    
  -1.15769398      0.715813994       0.00000000       6024.94141       1.60099399    
  -1.23224795      0.576331973       0.00000000       6024.94141       1.60099399    
  -1.23108304      0.575536013     -0.303514004       6024.94141       1.60099399    
  -1.23224795      0.576331973       0.00000000       4791.16016       1.60116398    
  -1.28948605      0.428772002       0.00000000       4791.16016       1.60116398    
  -1.28842103      0.428404987     -0.303512990       4791.16016       1.60116398    
  -1.23108304      0.575536013     -0.303514004       4791.16016       1.60116398    
  -1.28842103      0.428404987     -0.303512990       137.370285      -1.71288526    
  -1.33082402      0.275959998     -0.303492010       137.370285      -1.71288526    
  -1.33550000      0.277083993     -0.606999993       137.370285      -1.71288526    