 VARIABLES="X" "Y" "Z" "abs(p) (Pa)" "angle(p) (rad)"
ZONE N=   2720,E =    2069, F=FEPOINT, ET=QUADRILATERAL
 -0.767116010      -1.12776399       0.00000000       580.823181      -1.28228772    
 -0.769354999      -1.12002099     -0.303523988       580.823181      -1.28228772    
 -0.896136999      -1.02028203     -0.303463012       580.823181      -1.28228772    
 -0.894908011      -1.02288902       0.00000000       580.823181      -1.28228772    
 -0.767116010      -1.12776399       0.00000000       580.626099      -1.28242660    
 -0.630888999      -1.20308697       0.00000000       580.626099      -1.28242660    
 -0.635528028      -1.19958198     -0.303541005       580.626099      -1.28242660    
 -0.769354999      -1.12002099     -0.303523988       580.626099      -1.28242660    
 -0.635528028      -1.19958198     -0.303541005       561.311462      -1.28272271    
 -0.495362997      -1.26606500     -0.303519011       561.311462      -1.28272271    
 -0.499298006      -1.26809204     -0.606999993       561.311462      -1.28272271    
 -0.640147984      -1.19813800     -0.606998026       561.311462      -1.28272271    
 -0.635528028      -1.19958198     -0.303541005       561.317749      -1.28251374    
 -0.640147984      -1.19813800     -0.606998026       561.317749      -1.28251374    
 -0.777105987      -1.11956596     -0.606999993       561.317749      -1.28251374    
 -0.769354999      -1.12002099     -0.303523988       561.317749      -1.28251374    
 -0.635528028      -1.19958198     -0.303541005       573.360168      -1.27905095    
 -0.630888999      -1.20308697       0.00000000       573.360168      -1.27905095    
 -0.494486004      -1.26955199       0.00000000       573.360168      -1.27905095    
 -0.495362997      -1.26606500     -0.303519011       573.360168      -1.27905095    
 -0.494486004      -1.26955199       0.00000000       573.821106      -1.27940130    
 -0.346311986      -1.31449997       0.00000000       573.821106      -1.27940130    
 -0.346753001      -1.31307304     -0.303510010       573.821106      -1.27940130    
 -0.495362997      -1.26606500     -0.303519011       573.821106      -1.27940130    
 -0.346753001      -1.31307304     -0.303510010       562.002869      -1.28343058    
 -0.193608001      -1.34425998     -0.303494990       562.002869      -1.28343058    
 -0.195028007      -1.34579206     -0.606999993       562.002869      -1.28343058    
 -0.348751009      -1.31376004     -0.606999993       562.002869      -1.28343058    
 -0.346753001      -1.31307304     -0.303510010       561.519043      -1.28300834    
 -0.348751009      -1.31376004     -0.606999993       561.519043      -1.28300834    
 -0.499298006      -1.26809204     -0.606999993       561.519043      -1.28300834    
 -0.495362997      -1.26606500     -0.303519011       561.519043      -1.28300834    
 -0.346753001      -1.31307304     -0.303510010       574.670532      -1.27991438    
 -0.346311986      -1.31449997       0.00000000       574.670532      -1.27991438    
 -0.193381995      -1.34595394       0.00000000       574.670532      -1.27991438    
 -0.193608001      -1.34425998     -0.303494990       574.670532      -1.27991438    
 -0.193381995      -1.34595394       0.00000000       582.560486      -1.28396904    
  -3.75179984E-02  -1.36130500       0.00000000       582.560486      -1.28396904    
  -3.73950005E-02  -1.35827899     -0.303512007       582.560486      -1.28396904    
 -0.193608001      -1.34425998     -0.303494990       582.560486      -1.28396904    
  -3.73950005E-02  -1.35827899     -0.303512007       564.143677      -1.28482950    
  0.119547002      -1.35239303     -0.303498000       564.143677      -1.28482950    
  0.119135000      -1.35326600     -0.606999993       564.143677      -1.28482950    
  -3.82840000E-02  -1.36122894     -0.606998980       564.143677      -1.28482950    
  -3.73950005E-02  -1.35827899     -0.303512007       561.950500      -1.28357196    
  -3.82840000E-02  -1.36122894     -0.606998980       561.950500      -1.28357196    
 -0.195028007      -1.34579206     -0.606999993       561.950500      -1.28357196    
 -0.193608001      -1.34425998     -0.303494990       561.950500      -1.28357196    
  -3.73950005E-02  -1.35827899     -0.303512007       583.016113      -1.28446102    
  -3.75179984E-02  -1.36130500       0.00000000       583.016113      -1.28446102    
  0.119788997      -1.35320199       0.00000000       583.016113      -1.28446102    
  0.119547002      -1.35239303     -0.303498000       583.016113      -1.28446102    
  0.119788997      -1.35320199       0.00000000       583.012329      -1.28467000    
  0.276576012      -1.33565402       0.00000000       583.012329      -1.28467000    
  0.275435001      -1.33191597     -0.303496003       583.012329      -1.28467000    
  0.119547002      -1.35239303     -0.303498000       583.012329      -1.28467000    
  0.275435001      -1.33191597     -0.303496003       567.881348      -1.28693163    
  0.427076995      -1.28898001     -0.303507000       567.881348      -1.28693163    
  0.427242011      -1.28995001     -0.606999993       567.881348      -1.28693163    
  0.275831014      -1.33588004     -0.606999993       567.881348      -1.28693163    
  0.275435001      -1.33191597     -0.303496003       566.937500      -1.28635752    
  0.275831014      -1.33588004     -0.606999993       566.937500      -1.28635752    
  0.119135000      -1.35326600     -0.606999993       566.937500      -1.28635752    
  0.119547002      -1.35239303     -0.303498000       566.937500      -1.28635752    
  0.275435001      -1.33191597     -0.303496003       583.777832      -1.28522336    
  0.276576012      -1.33565402       0.00000000       583.777832      -1.28522336    
  0.427509993      -1.28986895       0.00000000       583.777832      -1.28522336    
  0.427076995      -1.28898001     -0.303507000       583.777832      -1.28522336    
  0.427509993      -1.28986895       0.00000000       585.333862      -1.28617752    
  0.574636996      -1.23315501       0.00000000       585.333862      -1.28617752    
  0.573706985      -1.23136795     -0.303485990       585.333862      -1.28617752    
  0.427076995      -1.28898001     -0.303507000       585.333862      -1.28617752    
  0.573706985      -1.23136795     -0.303485990       571.966492      -1.28902853    
  0.712854981      -1.15688002     -0.303496987       571.966492      -1.28902853    
  0.713809013      -1.15876603     -0.606999993       571.966492      -1.28902853    
  0.574283004      -1.23334301     -0.606999993       571.966492      -1.28902853    
  0.573706985      -1.23136795     -0.303485990       569.128296      -1.28761899    
  0.574283004      -1.23334301     -0.606999993       569.128296      -1.28761899    
  0.427242011      -1.28995001     -0.606999993       569.128296      -1.28761899    
  0.427076995      -1.28898001     -0.303507000       569.128296      -1.28761899    
  0.573706985      -1.23136795     -0.303485990       587.955627      -1.28751111    
  0.574636996      -1.23315501       0.00000000       587.955627      -1.28751111    
  0.713741004      -1.15880203       0.00000000       587.955627      -1.28751111    
  0.712854981      -1.15688002     -0.303496987       587.955627      -1.28751111    
  0.713741004      -1.15880203       0.00000000       589.357666      -1.28817344    
  0.841937006      -1.06636095       0.00000000       589.357666      -1.28817344    
  0.841498017      -1.06573403     -0.303485990       589.357666      -1.28817344    
  0.712854981      -1.15688002     -0.303496987       589.357666      -1.28817344    
  0.841498017      -1.06573403     -0.303485990       576.253235      -1.29099631    
  0.960639000     -0.962104976     -0.303470999       576.253235      -1.29099631    
  0.964356005     -0.965893984     -0.606999993       576.253235      -1.29099631    
  0.841796994      -1.06647599     -0.606999993       576.253235      -1.29099631    
  0.841498017      -1.06573403     -0.303485990       574.338074      -1.29014659    
  0.841796994      -1.06647599     -0.606999993       574.338074      -1.29014659    
  0.713809013      -1.15876603     -0.606999993       574.338074      -1.29014659    
  0.712854981      -1.15688002     -0.303496987       574.338074      -1.29014659    
  0.841498017      -1.06573403     -0.303485990       585.799072      -1.28628397    
  0.841937006      -1.06636095       0.00000000       585.799072      -1.28628397    
  0.963932991     -0.966242015       0.00000000       585.799072      -1.28628397    
  0.960639000     -0.962104976     -0.303470999       585.799072      -1.28628397    
  0.963932991     -0.966242015       0.00000000       587.438538      -1.28694427    
   1.06506598     -0.843514979       0.00000000       587.438538      -1.28694427    
   1.06428695     -0.842682004     -0.303481996       587.438538      -1.28694427    
  0.960639000     -0.962104976     -0.303470999       587.438538      -1.28694427    
   1.06428695     -0.842682004     -0.303481996       571.120605      -1.28821683    
   1.15591598     -0.714210987     -0.303485006       571.120605      -1.28821683    
   1.15788805     -0.715448976     -0.606999993       571.120605      -1.28821683    
   1.06537795     -0.843134999     -0.606999993       571.120605      -1.28821683    
   1.06428695     -0.842682004     -0.303481996       578.233215      -1.29185426    
   1.06537795     -0.843134999     -0.606999993       578.233215      -1.29185426    
  0.964356005     -0.965893984     -0.606999993       578.233215      -1.29185426    
  0.960639000     -0.962104976     -0.303470999       578.233215      -1.29185426    
   1.06428695     -0.842682004     -0.303481996       588.804688      -1.28770578    
   1.06506598     -0.843514979       0.00000000       588.804688      -1.28770578    
   1.15792501     -0.715381980       0.00000000       588.804688      -1.28770578    
   1.15591598     -0.714210987     -0.303485006       588.804688      -1.28770578    
   1.15792501     -0.715381980       0.00000000       590.825745      -1.28835094    
   1.23237598     -0.576093972       0.00000000       590.825745      -1.28835094    
   1.23120904     -0.575251997     -0.303514004       590.825745      -1.28835094    
   1.15591598     -0.714210987     -0.303485006       590.825745      -1.28835094    
   1.23120904     -0.575251997     -0.303514004       575.384338      -1.28995144    
   1.28844094     -0.428344995     -0.303512990       575.384338      -1.28995144    
   1.28952503     -0.428642988     -0.606999993       575.384338      -1.28995144    
   1.23252702     -0.575810015     -0.606999993       575.384338      -1.28995144    
   1.23120904     -0.575251997     -0.303514004       573.281189      -1.28910995    
   1.23252702     -0.575810015     -0.606999993       573.281189      -1.28910995    
   1.15788805     -0.715448976     -0.606999993       573.281189      -1.28910995    
   1.15591598     -0.714210987     -0.303485006       573.281189      -1.28910995    
   1.23120904     -0.575251997     -0.303514004       582.301941      -1.28378510    
   1.23237598     -0.576093972       0.00000000       582.301941      -1.28378510    
   1.28947699     -0.428801000       0.00000000       582.301941      -1.28378510    
   1.28844094     -0.428344995     -0.303512990       582.301941      -1.28378510    
   1.28947699     -0.428801000       0.00000000       590.041931      -1.28717625    
   1.33532202     -0.277671993       0.00000000       590.041931      -1.28717625    
   1.33076501     -0.276203990     -0.303492010       590.041931      -1.28717625    
   1.28844094     -0.428344995     -0.303512990       590.041931      -1.28717625    
   1.33076501     -0.276203990     -0.303492010       568.414673      -1.28609335    
   1.35229194     -0.119709998     -0.303514004       568.414673      -1.28609335    
   1.35321999     -0.119608998     -0.606999993       568.414673      -1.28609335    
   1.33549094     -0.277112991     -0.606999993       568.414673      -1.28609335    
   1.33076501     -0.276203990     -0.303492010       575.856750      -1.28998792    
   1.33549094     -0.277112991     -0.606999993       575.856750      -1.28998792    
   1.28952503     -0.428642988     -0.606999993       575.856750      -1.28998792    
   1.28844094     -0.428344995     -0.303512990       575.856750      -1.28998792    
   1.33076501     -0.276203990     -0.303492010       601.247803      -1.29233491    
   1.33532202     -0.277671993       0.00000000       601.247803      -1.29233491    
   1.35319102     -0.119900003       0.00000000       601.247803      -1.29233491    
   1.35229194     -0.119709998     -0.303514004       601.247803      -1.29233491    
   1.35319102     -0.119900003       0.00000000       602.897888      -1.29286814    
   1.36124396       3.81390005E-02   0.00000000       602.897888      -1.29286814    
   1.35858905       3.79349999E-02 -0.303501010       602.897888      -1.29286814    
   1.35229194     -0.119709998     -0.303514004       602.897888      -1.29286814    
   1.35858905       3.79349999E-02 -0.303501010       579.975769      -1.29135656    
   1.34464097      0.195331007     -0.303496003       579.975769      -1.29135656    
   1.34573400      0.195616007     -0.606999993       579.975769      -1.29135656    
   1.36126804       3.78950015E-02 -0.606999993       579.975769      -1.29135656    
   1.35858905       3.79349999E-02 -0.303501010       579.867615      -1.29152822    
   1.36126804       3.78950015E-02 -0.606999993       579.867615      -1.29152822    
   1.35321999     -0.119608998     -0.606999993       579.867615      -1.29152822    
   1.35229194     -0.119709998     -0.303514004       579.867615      -1.29152822    
   1.35858905       3.79349999E-02 -0.303501010       594.940918      -1.28892887    
   1.36124396       3.81390005E-02   0.00000000       594.940918      -1.28892887    
   1.34575403      0.195406005       0.00000000       594.940918      -1.28892887    
   1.34464097      0.195331007     -0.303496003       594.940918      -1.28892887    
   1.34575403      0.195406005       0.00000000       596.658875      -1.28948355    
   1.31339800      0.349945009       0.00000000       596.658875      -1.28948355    
   1.31216300      0.349725991     -0.303487003       596.658875      -1.28948355    
   1.34464097      0.195331007     -0.303496003       596.658875      -1.28948355    
   1.31216300      0.349725991     -0.303487003       588.385864      -1.29483867    
   1.26341999      0.500032008     -0.303494006       588.385864      -1.29483867    
   1.26736605      0.501691997     -0.606999993       588.385864      -1.29483867    
   1.31333196      0.350163996     -0.606999993       588.385864      -1.29483867    
   1.31216300      0.349725991     -0.303487003       581.485718      -1.29185486    
   1.31333196      0.350163996     -0.606999993       581.485718      -1.29185486    
   1.34573400      0.195616007     -0.606999993       581.485718      -1.29185486    
   1.34464097      0.195331007     -0.303496003       581.485718      -1.29185486    
   1.31216300      0.349725991     -0.303487003       598.439880      -1.29000795    
   1.31339800      0.349945009       0.00000000       598.439880      -1.29000795    
   1.26751196      0.501209974       0.00000000       598.439880      -1.29000795    
   1.26341999      0.500032008     -0.303494006       598.439880      -1.29000795    
   1.26751196      0.501209974       0.00000000       609.077515      -1.29473674    
   1.19658697      0.643051028       0.00000000       609.077515      -1.29473674    
   1.19583094      0.642783999     -0.303505003       609.077515      -1.29473674    
   1.26341999      0.500032008     -0.303494006       609.077515      -1.29473674    
   1.19583094      0.642783999     -0.303505003       583.820984      -1.29236662    
   1.11495602      0.778467000     -0.303483993       583.820984      -1.29236662    
   1.11731696      0.779847026     -0.606999993       583.820984      -1.29236662    
   1.19653296      0.643149972     -0.606999993       583.820984      -1.29236662    
   1.19583094      0.642783999     -0.303505003       589.811829      -1.29530680    
   1.19653296      0.643149972     -0.606999993       589.811829      -1.29530680    
   1.26736605      0.501691997     -0.606999993       589.811829      -1.29530680    
   1.26341999      0.500032008     -0.303494006       589.811829      -1.29530680    
   1.19583094      0.642783999     -0.303505003       609.677795      -1.29507375    
   1.19658697      0.643051028       0.00000000       609.677795      -1.29507375    
   1.11705506      0.780165970       0.00000000       609.677795      -1.29507375    
   1.11495602      0.778467000     -0.303483993       609.677795      -1.29507375    
   1.11705506      0.780165970       0.00000000       610.109863      -1.29530323    
   1.01674199      0.902397990       0.00000000       610.109863      -1.29530323    
   1.01591504      0.901737988     -0.303478003       610.109863      -1.29530323    
   1.11495602      0.778467000     -0.303483993       610.109863      -1.29530323    
   1.01591504      0.901737988     -0.303478003       591.085510      -1.29550803    
  0.904204011       1.01322901     -0.303456992       591.085510      -1.29550803    
  0.905143023       1.01448905     -0.606999993       591.085510      -1.29550803    
   1.01659799      0.902572989     -0.606999993       591.085510      -1.29550803    
   1.01591504      0.901737988     -0.303478003       590.629578      -1.29543376    
   1.01659799      0.902572989     -0.606999993       590.629578      -1.29543376    
   1.11731696      0.779847026     -0.606999993       590.629578      -1.29543376    
   1.11495602      0.778467000     -0.303483993       590.629578      -1.29543376    
   1.01591504      0.901737988     -0.303478003       610.408508      -1.29545665    
   1.01674199      0.902397990       0.00000000       610.408508      -1.29545665    
  0.905318975       1.01434398       0.00000000       610.408508      -1.29545665    
  0.904204011       1.01322901     -0.303456992       610.408508      -1.29545665    
  0.905318975       1.01434398       0.00000000       603.481018      -1.29219437    
  0.782918990       1.11479497       0.00000000       603.481018      -1.29219437    
  0.780644000       1.11195600     -0.303485006       603.481018      -1.29219437    
  0.904204011       1.01322901     -0.303456992       603.481018      -1.29219437    
  0.780644000       1.11195600     -0.303485006       591.682983      -1.29548097    
  0.645825028       1.19414902     -0.303514004       591.682983      -1.29548097    
  0.646153986       1.19492805     -0.606999993       591.682983      -1.29548097    
  0.782611012       1.11504900     -0.606999993       591.682983      -1.29548097    
  0.780644000       1.11195600     -0.303485006       591.415466      -1.29550695    
  0.782611012       1.11504900     -0.606999993       591.415466      -1.29550695    
  0.905143023       1.01448905     -0.606999993       591.415466      -1.29550695    
  0.904204011       1.01322901     -0.303456992       591.415466      -1.29550695    
  0.780644000       1.11195600     -0.303485006       600.247009      -1.29059732    
  0.782918990       1.11479497       0.00000000       600.247009      -1.29059732    
  0.646345019       1.19482601       0.00000000       600.247009      -1.29059732    
  0.645825028       1.19414902     -0.303514004       600.247009      -1.29059732    
  0.646345019       1.19482601       0.00000000       607.512329      -1.29365265    
  0.504974008       1.26637006       0.00000000       607.512329      -1.29365265    
  0.503772974       1.26314998     -0.303521991       607.512329      -1.29365265    
  0.645825028       1.19414902     -0.303514004       607.512329      -1.29365265    
  0.503772974       1.26314998     -0.303521991       594.861938      -1.29659975    
  0.353130996       1.31116498     -0.303510994       594.861938      -1.29659975    
  0.353300005       1.31237996     -0.606999993       594.861938      -1.29659975    
  0.505183995       1.26630700     -0.606999993       594.861938      -1.29659975    
  0.503772974       1.26314998     -0.303521991       593.346985      -1.29607475    
  0.505183995       1.26630700     -0.606999993       593.346985      -1.29607475    
  0.646153986       1.19492805     -0.606999993       593.346985      -1.29607475    
  0.645825028       1.19414902     -0.303514004       593.346985      -1.29607475    
  0.503772974       1.26314998     -0.303521991       607.428955      -1.29346621    
  0.504974008       1.26637006       0.00000000       607.428955      -1.29346621    
  0.353493989       1.31232095       0.00000000       607.428955      -1.29346621    
  0.353130996       1.31116498     -0.303510994       607.428955      -1.29346621    
  0.353493989       1.31232095       0.00000000       607.115295      -1.29318666    
  0.199064001       1.34539402       0.00000000       607.115295      -1.29318666    
  0.198755994       1.34360003     -0.303496003       607.115295      -1.29318666    
  0.353130996       1.31116498     -0.303510994       607.115295      -1.29318666    
  0.198755994       1.34360003     -0.303496003       601.327087      -1.29916096    
   4.12769988E-02   1.35817802     -0.303508013       601.327087      -1.29916096    
   4.12410013E-02   1.36093795     -0.606999993       601.327087      -1.29916096    
  0.199025005       1.34539795     -0.606999993       601.327087      -1.29916096    
  0.198755994       1.34360003     -0.303496003       594.678528      -1.29635799    
  0.199025005       1.34539795     -0.606999993       594.678528      -1.29635799    
  0.353300005       1.31237996     -0.606999993       594.678528      -1.29635799    
  0.353130996       1.31116498     -0.303510994       594.678528      -1.29635799    
  0.198755994       1.34360003     -0.303496003       606.465942      -1.29273641    
  0.199064001       1.34539402       0.00000000       606.465942      -1.29273641    
   4.17769998E-02   1.36088502       0.00000000       606.465942      -1.29273641    
   4.12769988E-02   1.35817802     -0.303508013       606.465942      -1.29273641    
   4.17769998E-02   1.36088502       0.00000000       608.740845      -1.29348385    
 -0.116410002       1.35353506       0.00000000       608.740845      -1.29348385    
 -0.116471998       1.35271096     -0.303496987       608.740845      -1.29348385    
   4.12769988E-02   1.35817802     -0.303508013       608.740845      -1.29348385    
 -0.116471998       1.35271096     -0.303496987       603.956177      -1.29999566    
 -0.273027003       1.33229196     -0.303496003       603.956177      -1.29999566    
 -0.273876995       1.33647299     -0.606999993       603.956177      -1.29999566    
 -0.116722003       1.35350394     -0.606999993       603.956177      -1.29999566    
 -0.116471998       1.35271096     -0.303496987       600.408447      -1.29860747    
 -0.116722003       1.35350394     -0.606999993       600.408447      -1.29860747    
   4.12410013E-02   1.36093795     -0.606999993       600.408447      -1.29860747    
   4.12769988E-02   1.35817802     -0.303508013       600.408447      -1.29860747    
 -0.116471998       1.35271096     -0.303496987       607.939880      -1.29278612    
 -0.116410002       1.35353506       0.00000000       607.939880      -1.29278612    
 -0.274069011       1.33641505       0.00000000       607.939880      -1.29278612    
 -0.273027003       1.33229196     -0.303496003       607.939880      -1.29278612    
 -0.274069011       1.33641505       0.00000000       606.489868      -1.29202032    
 -0.425588995       1.29045200       0.00000000       606.489868      -1.29202032    
 -0.425258011       1.28953803     -0.303507000       606.489868      -1.29202032    
 -0.273027003       1.33229196     -0.303496003       606.489868      -1.29202032    
 -0.425258011       1.28953803     -0.303507000       599.525696      -1.29791927    
 -0.572302997       1.23206902     -0.303485990       599.525696      -1.29791927    
 -0.573064029       1.23399496     -0.606999993       599.525696      -1.29791927    
 -0.425651014       1.29043305     -0.606999993       599.525696      -1.29791927    
 -0.425258011       1.28953803     -0.303507000       601.999573      -1.29904926    
 -0.425651014       1.29043305     -0.606999993       601.999573      -1.29904926    
 -0.273876995       1.33647299     -0.606999993       601.999573      -1.29904926    
 -0.273027003       1.33229196     -0.303496003       601.999573      -1.29904926    
 -0.425258011       1.28953803     -0.303507000       602.805969      -1.29051328    
 -0.425588995       1.29045200       0.00000000       602.805969      -1.29051328    
 -0.573195994       1.23392498       0.00000000       602.805969      -1.29051328    
 -0.572302997       1.23206902     -0.303485990       602.805969      -1.29051328    
 -0.573195994       1.23392498       0.00000000       599.048218      -1.28891838    
 -0.712655008       1.15938199       0.00000000       599.048218      -1.28891838    
 -0.711889029       1.15749002     -0.303496003       599.048218      -1.28891838    
 -0.572302997       1.23206902     -0.303485990       599.048218      -1.28891838    
 -0.711889029       1.15749002     -0.303496003       593.452454      -1.29519939    
 -0.840825975       1.06629205     -0.303485990       593.452454      -1.29519939    
 -0.841368973       1.06682706     -0.606999993       593.452454      -1.29519939    
 -0.712980986       1.15920806     -0.606999993       593.452454      -1.29519939    
 -0.711889029       1.15749002     -0.303496003       596.157227      -1.29640579    
 -0.712980986       1.15920806     -0.606999993       596.157227      -1.29640579    
 -0.573064029       1.23399496     -0.606999993       596.157227      -1.29640579    
 -0.572302997       1.23206902     -0.303485990       596.157227      -1.29640579    
 -0.711889029       1.15749002     -0.303496003       599.020386      -1.28915751    
 -0.712655008       1.15938199       0.00000000       599.020386      -1.28915751    
 -0.841165006       1.06699395       0.00000000       599.020386      -1.28915751    
 -0.840825975       1.06629205     -0.303485990       599.020386      -1.28915751    
 -0.841165006       1.06699395       0.00000000       596.667725      -1.28810215    
 -0.963320017      0.966744006       0.00000000       596.667725      -1.28810215    
 -0.960084975      0.962615013     -0.303470999       596.667725      -1.28810215    
 -0.840825975       1.06629205     -0.303485990       596.667725      -1.28810215    
 -0.960084975      0.962615013     -0.303470999       585.577454      -1.29157424    
  -1.06383705      0.843237996     -0.303481996       585.577454      -1.29157424    
  -1.06481802      0.843816996     -0.606999993       585.577454      -1.29157424    
 -0.963873982      0.966289997     -0.606999993       585.577454      -1.29157424    
 -0.960084975      0.962615013     -0.303470999       589.359802      -1.29332471    
 -0.963873982      0.966289997     -0.606999993       589.359802      -1.29332471    
 -0.841368973       1.06682706     -0.606999993       589.359802      -1.29332471    
 -0.840825975       1.06629205     -0.303485990       589.359802      -1.29332471    
 -0.960084975      0.962615013     -0.303470999       595.407043      -1.28744209    
 -0.963320017      0.966744006       0.00000000       595.407043      -1.28744209    
  -1.06464398      0.844029009       0.00000000       595.407043      -1.28744209    
  -1.06383705      0.843237996     -0.303481996       595.407043      -1.28744209    
  -1.06464398      0.844029009       0.00000000       593.474854      -1.28655005    
  -1.15769398      0.715813994       0.00000000       593.474854      -1.28655005    
  -1.15564799      0.714680016     -0.303483993       593.474854      -1.28655005    
  -1.06383705      0.843237996     -0.303481996       593.474854      -1.28655005    
  -1.15564799      0.714680016     -0.303483993       584.706726      -1.29121637    
  -1.23108304      0.575536013     -0.303514004       584.706726      -1.29121637    
  -1.23232996      0.576179981     -0.606999993       584.706726      -1.29121637    
  -1.15756094      0.716063023     -0.606999993       584.706726      -1.29121637    
  -1.15564799      0.714680016     -0.303483993       583.363403      -1.29054904    
  -1.15756094      0.716063023     -0.606999993       583.363403      -1.29054904    
  -1.06481802      0.843816996     -0.606999993       583.363403      -1.29054904    
  -1.06383705      0.843237996     -0.303481996       583.363403      -1.29054904    
  -1.15564799      0.714680016     -0.303483993       592.368469      -1.28570521    
  -1.15769398      0.715813994       0.00000000       592.368469      -1.28570521    
  -1.23224795      0.576331973       0.00000000       592.368469      -1.28570521    
  -1.23108304      0.575536013     -0.303514004       592.368469      -1.28570521    
  -1.23224795      0.576331973       0.00000000       591.162354      -1.28498876    
  -1.28948605      0.428772002       0.00000000       591.162354      -1.28498876    
  -1.28842103      0.428404987     -0.303512990       591.162354      -1.28498876    
  -1.23108304      0.575536013     -0.303514004       591.162354      -1.28498876    
  -1.28842103      0.428404987     -0.303512990       573.022766      -1.28568971    
  -1.33082402      0.275959998     -0.303492010       573.022766      -1.28568971    
  -1.33550000      0.277083993     -0.606999993       573.022766      -1.28568971    