VARIABLES="w (rad/s)"  
"A   1   1" "B   1   1"
"A   1   2" "B   1   2"
"A   1   3" "B   1   3"
"A   1   4" "B   1   4"
"A   1   5" "B   1   5"
"A   1   6" "B   1   6"
"A   2   1" "B   2   1"
"A   2   2" "B   2   2"
"A   2   3" "B   2   3"
"A   2   4" "B   2   4"
"A   2   5" "B   2   5"
"A   2   6" "B   2   6"
"A   3   1" "B   3   1"
"A   3   2" "B   3   2"
"A   3   3" "B   3   3"
"A   3   4" "B   3   4"
"A   3   5" "B   3   5"
"A   3   6" "B   3   6"
Zone t="Motion of body    1 in DoF   1",I=    50,F=POINT
  0.1000000E+00  0.4643495E+04  0.4145348E-04  0.3221497E+00  0.6365008E-07  0.3140608E+02  0.2247833E-01 -0.1733120E+02 -0.4903181E-06  0.5280508E+05  0.8677553E-03  0.4153816E-01  0.1333142E-07  0.1171191E+04  0.4229744E-03  0.5502304E+01 -0.1046128E-04 -0.9151333E+01 -0.3077606E-04 -0.1031267E+02 -0.2339183E-04 -0.2572780E+04 -0.4623641E-03 -0.1208579E+02  0.1147471E-03  0.0000000E+00  0.0000000E+00  0.0000000E+00  0.0000000E+00  0.0000000E+00  0.0000000E+00  0.0000000E+00  0.0000000E+00  0.0000000E+00  0.0000000E+00  0.0000000E+00  0.0000000E+00
  0.2204082E+00  0.4659018E+04  0.1036570E-01  0.3430680E+00  0.1443025E-04  0.3214404E+02  0.2348760E+00 -0.1750958E+02 -0.1499189E-03  0.5307580E+05  0.2189639E+00  0.4172589E-01  0.2206692E-06  0.1197302E+04  0.8153714E-01  0.5588947E+01  0.5933574E-03 -0.9319064E+01 -0.7184416E-02 -0.1002410E+02  0.2919639E-02 -0.2585850E+04 -0.2101939E+00 -0.1222110E+02  0.1063770E-02  0.0000000E+00  0.0000000E+00  0.0000000E+00  0.0000000E+00  0.0000000E+00  0.0000000E+00  0.0000000E+00  0.0000000E+00  0.0000000E+00  0.0000000E+00  0.0000000E+00  0.0000000E+00
  0.3408163E+00  0.4688161E+04  0.2144097E+00  0.3854780E+00  0.2956711E-03  0.3286959E+02  0.8264346E+00 -0.1790251E+02 -0.2976658E-02  0.5358947E+05  0.4516263E+01  0.4202093E-01  0.2701596E-05  0.1249914E+04  0.1552585E+01  0.5763898E+01  0.1274920E-01 -0.9554183E+01 -0.5566934E-01 -0.9361748E+01  0.5684107E-01 -0.2619125E+04 -0.3969797E+01 -0.1245876E+02  0.1258155E-02  0.0000000E+00  0.0000000E+00  0.0000000E+00  0.0000000E+00  0.0000000E+00  0.0000000E+00  0.0000000E+00  0.0000000E+00  0.0000000E+00  0.0000000E+00  0.0000000E+00  0.0000000E+00
  0.4612245E+00  0.4734236E+04  0.1726501E+01  0.4489534E+00  0.2437355E-02  0.3349921E+02  0.1922067E+01 -0.1850589E+02 -0.2555887E-01  0.5441363E+05  0.3619604E+02  0.4239288E-01  0.1849472E-04  0.1336827E+04  0.1126881E+02  0.6043567E+01  0.8687778E-01 -0.9795608E+01 -0.1840043E+00 -0.8309914E+01  0.3788570E+00 -0.2682127E+04 -0.2733676E+02 -0.1279763E+02 -0.1406076E-01  0.0000000E+00  0.0000000E+00  0.0000000E+00  0.0000000E+00  0.0000000E+00  0.0000000E+00  0.0000000E+00  0.0000000E+00  0.0000000E+00  0.0000000E+00  0.0000000E+00  0.0000000E+00
  0.5816327E+00  0.4801410E+04  0.8373175E+01  0.5436753E+00  0.1219916E-01  0.3394422E+02  0.3645541E+01 -0.1943357E+02 -0.1342216E+00  0.5562435E+05  0.1744946E+03  0.4306065E-01  0.8461170E-04  0.1459332E+04  0.4804496E+02  0.6367672E+01  0.3319328E+00 -0.1008897E+02 -0.3976732E+00 -0.7271347E+01  0.1413476E+01 -0.2742860E+04 -0.1072930E+03 -0.1336048E+02 -0.9438660E-01  0.0000000E+00  0.0000000E+00  0.0000000E+00  0.0000000E+00  0.0000000E+00  0.0000000E+00  0.0000000E+00  0.0000000E+00  0.0000000E+00  0.0000000E+00  0.0000000E+00  0.0000000E+00
  0.7020409E+00  0.4892426E+04  0.2937792E+02  0.6692024E+00  0.4484503E-01  0.3417445E+02  0.6258210E+01 -0.2068150E+02 -0.5212100E+00  0.5726919E+05  0.6078177E+03  0.4406225E-01  0.2988371E-03  0.1601907E+04  0.1450033E+03  0.6554953E+01  0.8669803E+00 -0.1055397E+02 -0.7266015E+00 -0.7124016E+01  0.3564769E+01 -0.2732237E+04 -0.2872382E+03 -0.1414113E+02 -0.3504645E+00  0.0000000E+00  0.0000000E+00  0.0000000E+00  0.0000000E+00  0.0000000E+00  0.0000000E+00  0.0000000E+00  0.0000000E+00  0.0000000E+00  0.0000000E+00  0.0000000E+00  0.0000000E+00
  0.8224490E+00  0.5005238E+04  0.8176923E+02  0.8350542E+00  0.1317092E+00  0.3385035E+02  0.1003656E+02 -0.2243337E+02 -0.1615936E+01  0.5928781E+05  0.1677483E+04  0.4507768E-01  0.8234999E-03  0.1729471E+04  0.3412617E+03  0.6378819E+01  0.1708550E+01 -0.1104486E+02 -0.1316406E+01 -0.8565102E+01  0.6623599E+01 -0.2561291E+04 -0.5695040E+03 -0.1499195E+02 -0.9669825E+00  0.0000000E+00  0.0000000E+00  0.0000000E+00  0.0000000E+00  0.0000000E+00  0.0000000E+00  0.0000000E+00  0.0000000E+00  0.0000000E+00  0.0000000E+00  0.0000000E+00  0.0000000E+00
  0.9428571E+00  0.5129584E+04  0.1900014E+03  0.1002659E+01  0.3203013E+00  0.3238877E+02  0.1498221E+02 -0.2403899E+02 -0.4094982E+01  0.6145778E+05  0.3860580E+04  0.4630480E-01  0.1904865E-02  0.1793664E+04  0.6625951E+03  0.5755094E+01  0.2678184E+01 -0.1159953E+02 -0.2425872E+01 -0.1187916E+02  0.9406672E+01 -0.2170267E+04 -0.8622390E+03 -0.1586631E+02 -0.2172367E+01  0.0000000E+00  0.0000000E+00  0.0000000E+00  0.0000000E+00  0.0000000E+00  0.0000000E+00  0.0000000E+00  0.0000000E+00  0.0000000E+00  0.0000000E+00  0.0000000E+00  0.0000000E+00
  0.1063265E+01  0.5245407E+04  0.3799482E+03  0.1125791E+01  0.6530050E+00  0.2966515E+02  0.2063459E+02 -0.2492413E+02 -0.8522675E+01  0.6336502E+05  0.7637926E+04  0.4738565E-01  0.3784973E-02  0.1753547E+04  0.1100391E+04  0.4785801E+01  0.3444923E+01 -0.1191749E+02 -0.4254317E+01 -0.1593736E+02  0.1026470E+02 -0.1605683E+04 -0.9793371E+03 -0.1645244E+02 -0.4148769E+01  0.0000000E+00  0.0000000E+00  0.0000000E+00  0.0000000E+00  0.0000000E+00  0.0000000E+00  0.0000000E+00  0.0000000E+00  0.0000000E+00  0.0000000E+00  0.0000000E+00  0.0000000E+00
  0.1183674E+01  0.5326896E+04  0.6675062E+03  0.1136436E+01  0.1127434E+01  0.2577913E+02  0.2621548E+02 -0.2404109E+02 -0.1471817E+02  0.6449864E+05  0.1326223E+05  0.4841125E-01  0.6626192E-02  0.1593880E+04  0.1604302E+04  0.3768119E+01  0.3715256E+01 -0.1163827E+02 -0.6789744E+01 -0.1893707E+02  0.8338016E+01 -0.1023798E+04 -0.7280643E+03 -0.1652510E+02 -0.6910046E+01  0.0000000E+00  0.0000000E+00  0.0000000E+00  0.0000000E+00  0.0000000E+00  0.0000000E+00  0.0000000E+00  0.0000000E+00  0.0000000E+00  0.0000000E+00  0.0000000E+00  0.0000000E+00
  0.1304082E+01  0.5352033E+04  0.1047991E+04  0.1017784E+01  0.1676380E+01  0.2120757E+02  0.3083696E+02 -0.2116774E+02 -0.2145827E+02  0.6445444E+05  0.2055992E+05  0.4862741E-01  0.1043013E-01  0.1334707E+04  0.2098517E+04  0.2977036E+01  0.3433355E+01 -0.1071552E+02 -0.9728490E+01 -0.1966053E+02  0.4480939E+01 -0.6114509E+03 -0.3523384E+02 -0.1593712E+02 -0.1023741E+02  0.0000000E+00  0.0000000E+00  0.0000000E+00  0.0000000E+00  0.0000000E+00  0.0000000E+00  0.0000000E+00  0.0000000E+00  0.0000000E+00  0.0000000E+00  0.0000000E+00  0.0000000E+00
  0.1424490E+01  0.5312730E+04  0.1495180E+04  0.7828776E+00  0.2194961E+01  0.1650598E+02  0.3413162E+02 -0.1671432E+02 -0.2706359E+02  0.6310790E+05  0.2893851E+05  0.4828822E-01  0.1482591E-01  0.1019670E+04  0.2512952E+04  0.2532294E+01  0.2792228E+01 -0.9234884E+01 -0.1253255E+02 -0.1833483E+02  0.7414594E+00 -0.4887593E+03  0.9990448E+03 -0.1477386E+02 -0.1373424E+02  0.0000000E+00  0.0000000E+00  0.0000000E+00  0.0000000E+00  0.0000000E+00  0.0000000E+00  0.0000000E+00  0.0000000E+00  0.0000000E+00  0.0000000E+00  0.0000000E+00  0.0000000E+00
  0.1544898E+01  0.5214870E+04  0.1971686E+04  0.5031930E+00  0.2593080E+01  0.1210763E+02  0.3571994E+02 -0.1189780E+02 -0.3028376E+02  0.6063144E+05  0.3761639E+05  0.4729060E-01  0.1956338E-01  0.6981235E+03  0.2807653E+04  0.2416313E+01  0.2044409E+01 -0.7359781E+01 -0.1468803E+02 -0.1581577E+02 -0.1143705E+01 -0.6560301E+03  0.2167957E+04 -0.1321981E+02 -0.1698997E+02  0.0000000E+00  0.0000000E+00  0.0000000E+00  0.0000000E+00  0.0000000E+00  0.0000000E+00  0.0000000E+00  0.0000000E+00  0.0000000E+00  0.0000000E+00  0.0000000E+00  0.0000000E+00
  0.1665306E+01  0.5074097E+04  0.2442361E+04  0.2234756E+00  0.2831488E+01  0.8278263E+01  0.3573349E+02 -0.7524676E+01 -0.3081803E+02  0.5738292E+05  0.4589674E+05  0.4586290E-01  0.2418100E-01  0.4059855E+03  0.2978464E+04  0.2490396E+01  0.1396598E+01 -0.5332176E+01 -0.1595361E+02 -0.1316002E+02 -0.3958409E+00 -0.1051510E+04  0.3251306E+04 -0.1136014E+02 -0.1971552E+02  0.0000000E+00  0.0000000E+00  0.0000000E+00  0.0000000E+00  0.0000000E+00  0.0000000E+00  0.0000000E+00  0.0000000E+00  0.0000000E+00  0.0000000E+00  0.0000000E+00  0.0000000E+00
  0.1785714E+01  0.4908880E+04  0.2882731E+04 -0.3096551E-02  0.2925586E+01  0.5220659E+01  0.3465609E+02 -0.4214366E+01 -0.2925931E+02  0.5374248E+05  0.5332202E+05  0.4432198E-01  0.2852518E-01  0.1604670E+03  0.3043386E+04  0.2563652E+01  0.8306024E+00 -0.3779645E+01 -0.1650373E+02 -0.1178558E+02  0.2270433E+01 -0.1543015E+04  0.4131741E+04 -0.9554753E+01 -0.2177797E+02  0.0000000E+00  0.0000000E+00  0.0000000E+00  0.0000000E+00  0.0000000E+00  0.0000000E+00  0.0000000E+00  0.0000000E+00  0.0000000E+00  0.0000000E+00  0.0000000E+00  0.0000000E+00
  0.1906122E+01  0.4734563E+04  0.3280375E+04 -0.1589771E+00  0.2901510E+01  0.2817905E+01  0.3262923E+02 -0.2041296E+01 -0.2620908E+02  0.5001449E+05  0.5968424E+05  0.4260004E-01  0.3234473E-01 -0.3325843E+02  0.3028721E+04  0.2730754E+01  0.3557424E+00 -0.2409776E+01 -0.1622990E+02 -0.1103747E+02  0.6085992E+01 -0.2050089E+04  0.4775273E+04 -0.7910389E+01 -0.2318232E+02  0.0000000E+00  0.0000000E+00  0.0000000E+00  0.0000000E+00  0.0000000E+00  0.0000000E+00  0.0000000E+00  0.0000000E+00  0.0000000E+00  0.0000000E+00  0.0000000E+00  0.0000000E+00
  0.2026531E+01  0.4562245E+04  0.3631383E+04 -0.2587595E+00  0.2811417E+01  0.9605129E+00  0.3011243E+02 -0.8254251E+00 -0.2261836E+02  0.4641151E+05  0.6494975E+05  0.4098782E-01  0.3571839E-01 -0.1816080E+03  0.2963199E+04  0.2825035E+01 -0.7100653E-01 -0.1341914E+01 -0.1564091E+02 -0.1137299E+02  0.1027154E+02 -0.2528310E+04  0.5166722E+04 -0.6381790E+01 -0.2401329E+02  0.0000000E+00  0.0000000E+00  0.0000000E+00  0.0000000E+00  0.0000000E+00  0.0000000E+00  0.0000000E+00  0.0000000E+00  0.0000000E+00  0.0000000E+00  0.0000000E+00  0.0000000E+00
  0.2146939E+01  0.4397892E+04  0.3937572E+04 -0.2952382E+00  0.2678289E+01 -0.4374138E+00  0.2728596E+02 -0.3237934E+00 -0.1892589E+02  0.4304647E+05  0.6919070E+05  0.3950131E-01  0.3866131E-01 -0.2901054E+03  0.2864999E+04  0.3001773E+01 -0.5033408E+00 -0.6063024E+00 -0.1477673E+02 -0.1209202E+02  0.1404311E+02 -0.2938760E+04  0.5405305E+04 -0.5201247E+01 -0.2438922E+02  0.0000000E+00  0.0000000E+00  0.0000000E+00  0.0000000E+00  0.0000000E+00  0.0000000E+00  0.0000000E+00  0.0000000E+00  0.0000000E+00  0.0000000E+00  0.0000000E+00  0.0000000E+00
  0.2267347E+01  0.4245483E+04  0.4202829E+04 -0.2928837E+00  0.2530133E+01 -0.1540329E+01  0.2451568E+02 -0.2920446E+00 -0.1543513E+02  0.3997703E+05  0.7251695E+05  0.3802221E-01  0.4109229E-01 -0.3701648E+03  0.2751958E+04  0.3094173E+01 -0.9334700E+00 -0.5382155E-01 -0.1374518E+02 -0.1333519E+02  0.1735771E+02 -0.3289227E+04  0.5467935E+04 -0.4101346E+01 -0.2438212E+02  0.0000000E+00  0.0000000E+00  0.0000000E+00  0.0000000E+00  0.0000000E+00  0.0000000E+00  0.0000000E+00  0.0000000E+00  0.0000000E+00  0.0000000E+00  0.0000000E+00  0.0000000E+00
  0.2387755E+01  0.4105781E+04  0.4432214E+04 -0.2476937E+00  0.2380714E+01 -0.2426502E+01  0.2172463E+02 -0.5939198E+00 -0.1241401E+02  0.3721234E+05  0.7505335E+05  0.3667814E-01  0.4302914E-01 -0.4255276E+03  0.2635057E+04  0.3304274E+01 -0.1242202E+01  0.4184462E+00 -0.1269847E+02 -0.1435994E+02  0.2035764E+02 -0.3581872E+04  0.5462816E+04 -0.3295626E+01 -0.2416676E+02  0.0000000E+00  0.0000000E+00  0.0000000E+00  0.0000000E+00  0.0000000E+00  0.0000000E+00  0.0000000E+00  0.0000000E+00  0.0000000E+00  0.0000000E+00  0.0000000E+00  0.0000000E+00
  0.2508163E+01  0.3979222E+04  0.4630118E+04 -0.1853081E+00  0.2236315E+01 -0.3274014E+01  0.1919646E+02 -0.9780626E+00 -0.9862827E+01  0.3474733E+05  0.7691088E+05  0.3566161E-01  0.4486965E-01 -0.4660522E+03  0.2515370E+04  0.3417029E+01 -0.1756899E+01  0.5688349E+00 -0.1180834E+02 -0.1581436E+02  0.2190859E+02 -0.3813701E+04  0.5378543E+04 -0.2609143E+01 -0.2369810E+02  0.0000000E+00  0.0000000E+00  0.0000000E+00  0.0000000E+00  0.0000000E+00  0.0000000E+00  0.0000000E+00  0.0000000E+00  0.0000000E+00  0.0000000E+00  0.0000000E+00  0.0000000E+00
  0.2628571E+01  0.3865290E+04  0.4801001E+04 -0.9439407E-01  0.2109548E+01 -0.4177773E+01  0.1677860E+02 -0.1516685E+01 -0.7655366E+01  0.3255838E+05  0.7819206E+05  0.3462868E-01  0.4637477E-01 -0.4931617E+03  0.2406749E+04  0.3618449E+01 -0.1755557E+01  0.1023272E+01 -0.1042321E+02 -0.1666399E+02  0.2502339E+02 -0.4009373E+04  0.5240162E+04 -0.1980915E+01 -0.2311404E+02  0.0000000E+00  0.0000000E+00  0.0000000E+00  0.0000000E+00  0.0000000E+00  0.0000000E+00  0.0000000E+00  0.0000000E+00  0.0000000E+00  0.0000000E+00  0.0000000E+00  0.0000000E+00
  0.2748980E+01  0.3762658E+04  0.4947992E+04  0.1572357E-01  0.1995942E+01 -0.4984899E+01  0.1481329E+02 -0.2006851E+01 -0.6189268E+01  0.3062227E+05  0.7897945E+05  0.3392377E-01  0.4753492E-01 -0.5125746E+03  0.2296651E+04  0.3797838E+01 -0.2229895E+01  0.1045838E+01 -0.9944991E+01 -0.1810629E+02  0.2491568E+02 -0.4171012E+04  0.5114583E+04 -0.1698751E+01 -0.2258226E+02  0.0000000E+00  0.0000000E+00  0.0000000E+00  0.0000000E+00  0.0000000E+00  0.0000000E+00  0.0000000E+00  0.0000000E+00  0.0000000E+00  0.0000000E+00  0.0000000E+00  0.0000000E+00
  0.2869388E+01  0.3671104E+04  0.5074226E+04  0.1297936E+00  0.1879389E+01 -0.5903679E+01  0.1299801E+02 -0.2454730E+01 -0.4755875E+01  0.2891305E+05  0.7934501E+05  0.3331553E-01  0.4877746E-01 -0.5272842E+03  0.2195183E+04  0.3877139E+01 -0.2474029E+01  0.1228721E+01 -0.9225376E+01 -0.1911971E+02  0.2588131E+02 -0.4303994E+04  0.4938466E+04 -0.1204005E+01 -0.2179669E+02  0.0000000E+00  0.0000000E+00  0.0000000E+00  0.0000000E+00  0.0000000E+00  0.0000000E+00  0.0000000E+00  0.0000000E+00  0.0000000E+00  0.0000000E+00  0.0000000E+00  0.0000000E+00
  0.2989796E+01  0.3589105E+04  0.5182062E+04  0.2686388E+00  0.1780030E+01 -0.7008790E+01  0.1091685E+02 -0.2838385E+01 -0.3716214E+01  0.2740471E+05  0.7934777E+05  0.3276167E-01  0.4963309E-01 -0.5372689E+03  0.2102853E+04  0.4068330E+01 -0.2466569E+01  0.1525442E+01 -0.7973908E+01 -0.2003979E+02  0.2711425E+02 -0.4419602E+04  0.4757443E+04 -0.9880014E+00 -0.2111274E+02  0.0000000E+00  0.0000000E+00  0.0000000E+00  0.0000000E+00  0.0000000E+00  0.0000000E+00  0.0000000E+00  0.0000000E+00  0.0000000E+00  0.0000000E+00  0.0000000E+00  0.0000000E+00
  0.3110204E+01  0.3515855E+04  0.5273194E+04  0.4268993E+00  0.1692758E+01 -0.8018198E+01  0.1002697E+02 -0.3157049E+01 -0.3174767E+01  0.2607713E+05  0.7903606E+05  0.3238504E-01  0.5050909E-01 -0.5434363E+03  0.2010236E+04  0.4213356E+01 -0.2746316E+01  0.1456792E+01 -0.8005139E+01 -0.2097665E+02  0.2654743E+02 -0.4517338E+04  0.4596654E+04 -0.8754005E+00 -0.2041824E+02  0.0000000E+00  0.0000000E+00  0.0000000E+00  0.0000000E+00  0.0000000E+00  0.0000000E+00  0.0000000E+00  0.0000000E+00  0.0000000E+00  0.0000000E+00  0.0000000E+00  0.0000000E+00
  0.3230612E+01  0.3451012E+04  0.5349324E+04  0.5843403E+00  0.1585773E+01 -0.9557331E+01  0.8330988E+01 -0.3429456E+01 -0.2206362E+01  0.2490829E+05  0.7845241E+05  0.3206162E-01  0.5157762E-01 -0.5489370E+03  0.1926458E+04  0.4275514E+01 -0.2941614E+01  0.1917452E+01 -0.7233290E+01 -0.2169121E+02  0.2700613E+02 -0.4602042E+04  0.4409633E+04 -0.4854201E+00 -0.1933666E+02  0.0000000E+00  0.0000000E+00  0.0000000E+00  0.0000000E+00  0.0000000E+00  0.0000000E+00  0.0000000E+00  0.0000000E+00  0.0000000E+00  0.0000000E+00  0.0000000E+00  0.0000000E+00
  0.3351020E+01  0.3393442E+04  0.5411705E+04  0.7691032E+00  0.1516851E+01 -0.1102785E+02  0.6645923E+01 -0.3684551E+01 -0.2069095E+01  0.2388022E+05  0.7762933E+05  0.3193435E-01  0.5226875E-01 -0.5524850E+03  0.1845774E+04  0.4456941E+01 -0.2740527E+01  0.2092794E+01 -0.5928547E+01 -0.2247872E+02  0.2714105E+02 -0.4678155E+04  0.4227984E+04 -0.4856963E+00 -0.1888248E+02  0.0000000E+00  0.0000000E+00  0.0000000E+00  0.0000000E+00  0.0000000E+00  0.0000000E+00  0.0000000E+00  0.0000000E+00  0.0000000E+00  0.0000000E+00  0.0000000E+00  0.0000000E+00
  0.3471428E+01  0.3342546E+04  0.5461212E+04  0.9756505E+00  0.1449405E+01 -0.1257890E+02  0.7044115E+01 -0.3673506E+01 -0.2192140E+01  0.2297925E+05  0.7659791E+05  0.3185606E-01  0.5284493E-01 -0.5540617E+03  0.1768076E+04  0.4529243E+01 -0.2786286E+01  0.2202807E+01 -0.7090265E+01 -0.2312004E+02  0.2535200E+02 -0.4747435E+04  0.4072329E+04 -0.4806356E+00 -0.1875925E+02  0.0000000E+00  0.0000000E+00  0.0000000E+00  0.0000000E+00  0.0000000E+00  0.0000000E+00  0.0000000E+00  0.0000000E+00  0.0000000E+00  0.0000000E+00  0.0000000E+00  0.0000000E+00
  0.3591837E+01  0.3298253E+04  0.5498700E+04  0.1188442E+01  0.1376051E+01 -0.1463955E+02  0.4899216E+01 -0.3853815E+01 -0.1812205E+01  0.2218895E+05  0.7538727E+05  0.3208267E-01  0.5333577E-01 -0.5565757E+03  0.1695043E+04  0.4611078E+01 -0.3193941E+01  0.2776870E+01 -0.5599771E+01 -0.2367958E+02  0.2564220E+02 -0.4811118E+04  0.3890851E+04 -0.2479028E+00 -0.1692654E+02  0.0000000E+00  0.0000000E+00  0.0000000E+00  0.0000000E+00  0.0000000E+00  0.0000000E+00  0.0000000E+00  0.0000000E+00  0.0000000E+00  0.0000000E+00  0.0000000E+00  0.0000000E+00
  0.3712245E+01  0.3259992E+04  0.5525089E+04  0.1430976E+01  0.1292056E+01 -0.1661522E+02  0.3217056E+01 -0.3983391E+01 -0.2142036E+01  0.2149694E+05  0.7401260E+05  0.3240951E-01  0.5398714E-01 -0.5570905E+03  0.1629408E+04  0.4799058E+01 -0.2519119E+01  0.2867439E+01 -0.4192597E+01 -0.2426844E+02  0.2543837E+02 -0.4866793E+04  0.3721406E+04 -0.3374925E+00 -0.1648564E+02  0.0000000E+00  0.0000000E+00  0.0000000E+00  0.0000000E+00  0.0000000E+00  0.0000000E+00  0.0000000E+00  0.0000000E+00  0.0000000E+00  0.0000000E+00  0.0000000E+00  0.0000000E+00
  0.3832653E+01  0.3227242E+04  0.5521172E+04  0.4766130E+01 -0.2560474E+02 -0.7722817E+01 -0.7703793E+01 -0.2244641E+02  0.1603456E+03  0.2089453E+05  0.7232031E+05  0.5064488E-01  0.4828287E-01 -0.5592271E+03  0.1560304E+04  0.3804893E+01  0.2489345E+01  0.3431768E+01 -0.5699537E+01 -0.1585948E+02 -0.2232598E+02 -0.4929174E+04  0.3617999E+04 -0.2421499E+00 -0.1643221E+02  0.0000000E+00  0.0000000E+00  0.0000000E+00  0.0000000E+00  0.0000000E+00  0.0000000E+00  0.0000000E+00  0.0000000E+00  0.0000000E+00  0.0000000E+00  0.0000000E+00  0.0000000E+00
  0.3953061E+01  0.3199975E+04  0.5544729E+04  0.2002642E+01  0.1085628E+01 -0.2182941E+02  0.3492891E+01 -0.3672614E+01 -0.1901153E+01  0.2037281E+05  0.7085604E+05  0.3383617E-01  0.5698374E-01 -0.5607124E+03  0.1498625E+04  0.4771973E+01 -0.2978461E+01  0.4088104E+01 -0.5334763E+01 -0.2483098E+02  0.2211517E+02 -0.4982550E+04  0.3427830E+04 -0.1025792E+00 -0.1536681E+02  0.0000000E+00  0.0000000E+00  0.0000000E+00  0.0000000E+00  0.0000000E+00  0.0000000E+00  0.0000000E+00  0.0000000E+00  0.0000000E+00  0.0000000E+00  0.0000000E+00  0.0000000E+00
  0.4073469E+01  0.3178318E+04  0.5538690E+04  0.2316191E+01  0.9828180E+00 -0.2407403E+02  0.2863096E+01 -0.3473500E+01 -0.3214806E+01  0.1991663E+05  0.6909125E+05  0.3484169E-01  0.6030570E-01 -0.5634244E+03  0.1430876E+04  0.4919155E+01 -0.2358676E+01  0.4100451E+01 -0.4545672E+01 -0.2554320E+02  0.1980944E+02 -0.5040540E+04  0.3264268E+04 -0.4572057E+00 -0.1463842E+02  0.0000000E+00  0.0000000E+00  0.0000000E+00  0.0000000E+00  0.0000000E+00  0.0000000E+00  0.0000000E+00  0.0000000E+00  0.0000000E+00  0.0000000E+00  0.0000000E+00  0.0000000E+00
  0.4193878E+01  0.3161802E+04  0.5520568E+04  0.2685544E+01  0.8044956E+00 -0.2733974E+02  0.2357965E+01 -0.3099615E+01 -0.3656316E+01  0.1952574E+05  0.6722282E+05  0.3583213E-01  0.6599965E-01 -0.5644772E+03  0.1377533E+04  0.4835061E+01 -0.1842314E+01  0.4711280E+01 -0.4473202E+01 -0.2491249E+02  0.1895778E+02 -0.5096671E+04  0.3128318E+04 -0.4855066E-01 -0.1433758E+02  0.0000000E+00  0.0000000E+00  0.0000000E+00  0.0000000E+00  0.0000000E+00  0.0000000E+00  0.0000000E+00  0.0000000E+00  0.0000000E+00  0.0000000E+00  0.0000000E+00  0.0000000E+00
  0.4314286E+01  0.3150347E+04  0.5486906E+04  0.3123264E+01  0.4865801E+00 -0.3078171E+02  0.7791880E+00 -0.2786766E+01 -0.4107556E+01  0.1918916E+05  0.6526115E+05  0.3663664E-01  0.7370421E-01 -0.5663256E+03  0.1320113E+04  0.4800019E+01 -0.2470301E+01  0.6065974E+01 -0.3735831E+01 -0.2513904E+02  0.1801017E+02 -0.5157545E+04  0.3021371E+04 -0.1021866E-01 -0.1246457E+02  0.0000000E+00  0.0000000E+00  0.0000000E+00  0.0000000E+00  0.0000000E+00  0.0000000E+00  0.0000000E+00  0.0000000E+00  0.0000000E+00  0.0000000E+00  0.0000000E+00  0.0000000E+00
  0.4434694E+01  0.3143826E+04  0.5426404E+04  0.3607907E+01 -0.4352923E-01 -0.3291183E+02  0.5471557E+01 -0.2754302E+01 -0.5245283E+01  0.1888796E+05  0.6313101E+05  0.3702646E-01  0.8350151E-01 -0.5743060E+03  0.1263755E+04  0.4847826E+01 -0.2343351E+01  0.7191178E+01 -0.6543771E+01 -0.2590181E+02  0.1223838E+02 -0.5230500E+04  0.2900926E+04 -0.3020623E+00 -0.1235717E+02  0.0000000E+00  0.0000000E+00  0.0000000E+00  0.0000000E+00  0.0000000E+00  0.0000000E+00  0.0000000E+00  0.0000000E+00  0.0000000E+00  0.0000000E+00  0.0000000E+00  0.0000000E+00
  0.4555102E+01  0.3137667E+04  0.5277772E+04  0.4130682E+01 -0.2130380E+01 -0.3188514E+02  0.1306912E+02 -0.2868944E+01 -0.7592011E+01  0.1861040E+05  0.6055743E+05  0.3692055E-01  0.9360719E-01 -0.5784178E+03  0.1198644E+04  0.4779379E+01 -0.1073828E+01  0.9224606E+01 -0.1125195E+02 -0.2607331E+02  0.1078467E+01 -0.5297332E+04  0.2794326E+04 -0.2372493E+00 -0.1253138E+02  0.0000000E+00  0.0000000E+00  0.0000000E+00  0.0000000E+00  0.0000000E+00  0.0000000E+00  0.0000000E+00  0.0000000E+00  0.0000000E+00  0.0000000E+00  0.0000000E+00  0.0000000E+00
  0.4675510E+01  0.3429705E+04  0.8463946E+04  0.2138363E+00 -0.2084477E+02 -0.7034807E+02 -0.1413480E+03  0.5027481E+02  0.4014990E+03  0.1944862E+05  0.7195355E+05  0.3270152E-01  0.1237838E+00 -0.6136116E+03  0.8072761E+03  0.4306226E+01 -0.1945143E+02  0.8786405E+01  0.2853654E+02 -0.1638985E+02  0.1454044E+03 -0.5629183E+04 -0.2466562E+03 -0.5923521E+01 -0.3172141E+02  0.0000000E+00  0.0000000E+00  0.0000000E+00  0.0000000E+00  0.0000000E+00  0.0000000E+00  0.0000000E+00  0.0000000E+00  0.0000000E+00  0.0000000E+00  0.0000000E+00  0.0000000E+00
  0.4795918E+01  0.3217374E+04  0.5652709E+04  0.5835196E+01  0.4772347E+01 -0.5955176E+02 -0.1196492E+02  0.3032719E+01  0.5661200E+01  0.1837099E+05  0.5823327E+05  0.3557001E-01  0.1123958E+00 -0.5965515E+03  0.1054302E+04  0.4519518E+01 -0.4933068E+01  0.8446635E+01  0.2415908E+00 -0.2265733E+02  0.3634960E+02 -0.5525749E+04  0.2061321E+04 -0.7901691E+00 -0.1103771E+02  0.0000000E+00  0.0000000E+00  0.0000000E+00  0.0000000E+00  0.0000000E+00  0.0000000E+00  0.0000000E+00  0.0000000E+00  0.0000000E+00  0.0000000E+00  0.0000000E+00  0.0000000E+00
  0.4916327E+01  0.3260924E+04  0.5519465E+04  0.7263443E+01  0.3826674E+01 -0.6696778E+02 -0.2261668E+01  0.4435953E+01  0.2975420E+01  0.1818401E+05  0.5552229E+05  0.3464928E-01  0.1182881E+00 -0.6145516E+03  0.9824152E+03  0.4039270E+01 -0.4258942E+01  0.9549836E+01 -0.3553107E+01 -0.2177893E+02  0.2923454E+02 -0.5673162E+04  0.1846050E+04 -0.4633429E+00 -0.1217757E+02  0.0000000E+00  0.0000000E+00  0.0000000E+00  0.0000000E+00  0.0000000E+00  0.0000000E+00  0.0000000E+00  0.0000000E+00  0.0000000E+00  0.0000000E+00  0.0000000E+00  0.0000000E+00
  0.5036735E+01  0.3364790E+04  0.5472507E+04  0.9524969E+01  0.4190768E+01 -0.8157936E+02 -0.8288510E+00  0.6502090E+01  0.3160717E+01  0.1805263E+05  0.5300170E+05  0.3441653E-01  0.1231302E+00 -0.6365274E+03  0.8686883E+03  0.3415392E+01 -0.4294542E+01  0.1337297E+02 -0.5120966E+01 -0.1953894E+02  0.2649681E+02 -0.5898538E+04  0.1393674E+04 -0.1134482E+00 -0.1283711E+02  0.0000000E+00  0.0000000E+00  0.0000000E+00  0.0000000E+00  0.0000000E+00  0.0000000E+00  0.0000000E+00  0.0000000E+00  0.0000000E+00  0.0000000E+00  0.0000000E+00  0.0000000E+00
  0.5157143E+01  0.3676650E+04  0.5530832E+04  0.1583929E+02  0.6997211E+01 -0.1077070E+03 -0.4235869E+02  0.1595809E+02  0.2585924E+01  0.1781035E+05  0.5032601E+05  0.3449624E-01  0.1274305E+00 -0.7069095E+03  0.7756682E+03  0.2200537E+01 -0.4472503E+01  0.1852285E+02  0.9823528E+01 -0.1180264E+02  0.3191859E+02 -0.6532886E+04  0.9162894E+03 -0.6227040E+00 -0.1003037E+02  0.0000000E+00  0.0000000E+00  0.0000000E+00  0.0000000E+00  0.0000000E+00  0.0000000E+00  0.0000000E+00  0.0000000E+00  0.0000000E+00  0.0000000E+00  0.0000000E+00  0.0000000E+00
  0.5277551E+01 -0.1249577E+05 -0.5034119E+04  0.6852284E+03  0.6452925E+03  0.5038064E+03  0.8913176E+03 -0.3584873E+02  0.1973489E+04  0.2595638E+05  0.8479030E+05  0.2656652E-01  0.1493161E+00  0.3400710E+04  0.4929165E+04 -0.1542591E+03 -0.2191746E+03 -0.8292583E+02 -0.2415548E+03  0.1524363E+04  0.1845969E+04  0.2773934E+05  0.3272402E+05  0.3668929E+02 -0.3717955E+02  0.0000000E+00  0.0000000E+00  0.0000000E+00  0.0000000E+00  0.0000000E+00  0.0000000E+00  0.0000000E+00  0.0000000E+00  0.0000000E+00  0.0000000E+00  0.0000000E+00  0.0000000E+00
  0.5397959E+01  0.2582170E+04  0.4761328E+04 -0.9473361E+00 -0.4640124E+01 -0.4650977E+02  0.2328859E+02 -0.1145321E+02 -0.2288749E+02  0.1821482E+05  0.4813464E+05  0.3684254E-01  0.1451808E+00 -0.4348084E+03  0.1050835E+04  0.6863424E+01  0.1374944E+01  0.7196196E+01 -0.3352317E+01 -0.3305647E+02  0.2909819E+01 -0.4343828E+04  0.3171725E+04  0.9300900E-01 -0.8391265E+01  0.0000000E+00  0.0000000E+00  0.0000000E+00  0.0000000E+00  0.0000000E+00  0.0000000E+00  0.0000000E+00  0.0000000E+00  0.0000000E+00  0.0000000E+00  0.0000000E+00  0.0000000E+00
  0.5518367E+01  0.2890408E+04  0.4741473E+04  0.4000033E+01 -0.3822912E+01 -0.7594271E+02  0.3621503E+02 -0.2638297E+01 -0.1885604E+02  0.1806708E+05  0.4527190E+05  0.3936941E-01  0.1625343E+00 -0.5219589E+03  0.9244952E+03  0.5959451E+01 -0.5784482E+00  0.1320184E+02 -0.8731209E+01 -0.2760199E+02  0.6088718E+01 -0.5044662E+04  0.2554033E+04 -0.5176766E+00 -0.9069222E+01  0.0000000E+00  0.0000000E+00  0.0000000E+00  0.0000000E+00  0.0000000E+00  0.0000000E+00  0.0000000E+00  0.0000000E+00  0.0000000E+00  0.0000000E+00  0.0000000E+00  0.0000000E+00
  0.5638775E+01  0.3038972E+04  0.4510882E+04  0.7197245E+01 -0.6432693E+01 -0.1039057E+03  0.3465482E+02  0.5410407E+00 -0.2249297E+02  0.1797007E+05  0.4292409E+05  0.4279150E-01  0.1944399E+00 -0.5586345E+03  0.8721145E+03  0.5497454E+01 -0.1144014E+01  0.2046961E+02 -0.6666325E+01 -0.2496690E+02  0.1350417E+01 -0.5353130E+04  0.2444210E+04 -0.4752509E+00 -0.8995456E+01  0.0000000E+00  0.0000000E+00  0.0000000E+00  0.0000000E+00  0.0000000E+00  0.0000000E+00  0.0000000E+00  0.0000000E+00  0.0000000E+00  0.0000000E+00  0.0000000E+00  0.0000000E+00
  0.5759184E+01  0.3234554E+04  0.2686091E+04  0.1483309E+02 -0.5450161E+02 -0.6753368E+03  0.3773195E+03 -0.2617353E+01 -0.7565936E+02  0.1796903E+05  0.4054239E+05  0.4911084E-01  0.2567919E+00 -0.6126169E+03  0.1337122E+04  0.3145712E+01  0.1130204E+02  0.2131791E+03 -0.5665980E+02 -0.7708725E+01 -0.1008726E+03 -0.5756218E+04  0.5912046E+04 -0.4994144E+01 -0.9550547E+01  0.0000000E+00  0.0000000E+00  0.0000000E+00  0.0000000E+00  0.0000000E+00  0.0000000E+00  0.0000000E+00  0.0000000E+00  0.0000000E+00  0.0000000E+00  0.0000000E+00  0.0000000E+00
  0.5879592E+01  0.3238643E+04  0.5610189E+04  0.7916007E+01  0.9024322E+01 -0.9808959E+02 -0.6060757E+02  0.7953115E+01  0.2471629E+02  0.1762348E+05  0.3758462E+05  0.4223078E-01  0.3355944E+00 -0.6170905E+03  0.3610412E+03  0.5742950E+01 -0.2893259E+01  0.1493637E+02  0.4229605E+01 -0.3037701E+02  0.2207523E+02 -0.5795298E+04 -0.6358155E+03 -0.1108231E+00 -0.6226329E+01  0.0000000E+00  0.0000000E+00  0.0000000E+00  0.0000000E+00  0.0000000E+00  0.0000000E+00  0.0000000E+00  0.0000000E+00  0.0000000E+00  0.0000000E+00  0.0000000E+00  0.0000000E+00
  0.6000000E+01  0.3464895E+04  0.5081735E+04  0.1352448E+02  0.6651662E+01 -0.1395708E+03 -0.4485236E+02  0.1456961E+02  0.1641469E+02  0.1734012E+05  0.3462865E+05  0.2826816E-01  0.4357905E+00 -0.6933647E+03  0.4182229E+03  0.4621418E+01 -0.1878538E+01  0.2224791E+02  0.3969305E+01 -0.2338509E+02  0.1517513E+02 -0.6319087E+04 -0.2261512E+02  0.8144908E-01 -0.6381014E+01  0.0000000E+00  0.0000000E+00  0.0000000E+00  0.0000000E+00  0.0000000E+00  0.0000000E+00  0.0000000E+00  0.0000000E+00  0.0000000E+00  0.0000000E+00  0.0000000E+00  0.0000000E+00
Zone t="Motion of body    1 in DoF   2",I=    50,F=POINT
  0.1000000E+00 -0.6841037E-01 -0.2835618E-07  0.4643184E+04  0.4137386E-04 -0.2540016E+02 -0.3343854E-01 -0.5283320E+05 -0.8675387E-03  0.1471083E+02  0.6336413E-06  0.8389145E-01 -0.1494932E-07  0.2723579E+02 -0.1302964E-03  0.1144601E+04  0.3578145E-03  0.3077740E+02  0.4961339E-04  0.2833550E+04  0.9956090E-03  0.1606219E+03 -0.6918448E-03  0.1437957E+03 -0.1665392E-03  0.0000000E+00  0.0000000E+00  0.0000000E+00  0.0000000E+00  0.0000000E+00  0.0000000E+00  0.0000000E+00  0.0000000E+00  0.0000000E+00  0.0000000E+00  0.0000000E+00  0.0000000E+00
  0.2204082E+00 -0.5211970E-01  0.1311196E-04  0.4658690E+04  0.1036034E-01 -0.2622972E+02 -0.3449010E+00 -0.5310408E+05 -0.2189267E+00  0.1479478E+02  0.1527990E-03  0.8435851E-01  0.9540737E-07  0.2736459E+02 -0.1712936E-02  0.1170640E+04  0.8095045E-01  0.3105865E+02  0.1089031E-01  0.2847797E+04  0.2174225E+00  0.1618708E+03 -0.3016287E-02  0.1449311E+03 -0.4980919E-03  0.0000000E+00  0.0000000E+00  0.0000000E+00  0.0000000E+00  0.0000000E+00  0.0000000E+00  0.0000000E+00  0.0000000E+00  0.0000000E+00  0.0000000E+00  0.0000000E+00  0.0000000E+00