VARIABLES="w (rad/s)"
"abs(F   1   1)" "angle(F   1   1)"
"abs(F   1   2)" "angle(F   1   2)"
"abs(F   1   3)" "angle(F   1   3)"
"abs(F   1   4)" "angle(F   1   4)"
"abs(F   1   5)" "angle(F   1   5)"
"abs(F   1   6)" "angle(F   1   6)"
"abs(F   2   7)" "angle(F   2   7)"
"abs(F   2   8)" "angle(F   2   8)"
"abs(F   2   9)" "angle(F   2   9)"
"abs(F   2  10)" "angle(F   2  10)"
"abs(F   2  11)" "angle(F   2  11)"
"abs(F   2  12)" "angle(F   2  12)"
"abs(F   3  13)" "angle(F   3  13)"
"abs(F   3  14)" "angle(F   3  14)"
"abs(F   3  15)" "angle(F   3  15)"
"abs(F   3  16)" "angle(F   3  16)"
"abs(F   3  17)" "angle(F   3  17)"
"abs(F   3  18)" "angle(F   3  18)"
"abs(F   4  19)" "angle(F   4  19)"
"abs(F   4  20)" "angle(F   4  20)"
"abs(F   4  21)" "angle(F   4  21)"
"abs(F   4  22)" "angle(F   4  22)"
"abs(F   4  23)" "angle(F   4  23)"
"abs(F   4  24)" "angle(F   4  24)"
"abs(F   5  25)" "angle(F   5  25)"
"abs(F   5  26)" "angle(F   5  26)"
"abs(F   5  27)" "angle(F   5  27)"
"abs(F   5  28)" "angle(F   5  28)"
"abs(F   5  29)" "angle(F   5  29)"
"abs(F   5  30)" "angle(F   5  30)"
"abs(F   6  31)" "angle(F   6  31)"
"abs(F   6  32)" "angle(F   6  32)"
"abs(F   6  33)" "angle(F   6  33)"
"abs(F   6  34)" "angle(F   6  34)"
"abs(F   6  35)" "angle(F   6  35)"
"abs(F   6  36)" "angle(F   6  36)"
Zone t="FKforce - beta =   0.000",I=    50,F=POINT
  0.1000000E+00  0.3261605E+03 -0.1570788E+01  0.4283410E-03 -0.7151566E-01  0.8871940E+06  0.5163488E-10  0.2896115E-01  0.1638287E+01  0.6819555E+04 -0.1570792E+01  0.5516427E-01  0.3038363E+01  0.1648282E+04 -0.1570803E+01  0.2257347E-02 -0.3141131E+01  0.7833737E+04 -0.1161706E-07  0.2770627E+01 -0.3138625E+01  0.5202670E+03  0.1570935E+01  0.2757916E+01  0.1572991E+01  0.3261605E+03 -0.1570788E+01  0.4283410E-03 -0.7151566E-01  0.8871940E+06  0.5163488E-10  0.2896115E-01  0.1638287E+01  0.6819555E+04 -0.1570792E+01  0.5516427E-01  0.3038363E+01  0.1648282E+04 -0.1570803E+01  0.2257347E-02 -0.3141131E+01  0.7833737E+04 -0.1161706E-07  0.2770627E+01 -0.3138625E+01  0.5202670E+03  0.1570935E+01  0.2757916E+01  0.1572991E+01  0.3261605E+03 -0.1570788E+01  0.4283410E-03 -0.7151566E-01  0.8871940E+06  0.5163488E-10  0.2896115E-01  0.1638287E+01  0.6819555E+04 -0.1570792E+01  0.5516427E-01  0.3038363E+01  0.1648282E+04 -0.1570803E+01  0.2257347E-02 -0.3141131E+01  0.7833737E+04 -0.1161706E-07  0.2770627E+01 -0.3138625E+01  0.5202670E+03  0.1570935E+01  0.2757916E+01  0.1572991E+01
  0.2204082E+00  0.1583075E+04 -0.1570796E+01  0.3012083E-02 -0.2907154E+01  0.8858546E+06 -0.2472801E-09  0.1422172E+00  0.1393480E+01  0.3308862E+05 -0.1570797E+01  0.2743710E+00  0.3042518E+01  0.7646020E+04 -0.1570796E+01  0.3559468E-02  0.3105937E+01  0.1835225E+04 -0.8746985E-06  0.1320880E+02 -0.3138393E+01  0.1758441E+04  0.1570669E+01  0.1324262E+02  0.1566288E+01  0.1583075E+04 -0.1570796E+01  0.3012083E-02 -0.2907154E+01  0.8858546E+06 -0.2472801E-09  0.1422172E+00  0.1393480E+01  0.3308862E+05 -0.1570797E+01  0.2743710E+00  0.3042518E+01  0.7646020E+04 -0.1570796E+01  0.3559468E-02  0.3105937E+01  0.1835225E+04 -0.8746985E-06  0.1320880E+02 -0.3138393E+01  0.1758441E+04  0.1570669E+01  0.1324262E+02  0.1566288E+01  0.1583075E+04 -0.1570796E+01  0.3012083E-02 -0.2907154E+01  0.8858546E+06 -0.2472801E-09  0.1422172E+00  0.1393480E+01  0.3308862E+05 -0.1570797E+01  0.2743710E+00  0.3042518E+01  0.7646020E+04 -0.1570796E+01  0.3559468E-02  0.3105937E+01  0.1835225E+04 -0.8746985E-06  0.1320880E+02 -0.3138393E+01  0.1758441E+04  0.1570669E+01  0.1324262E+02  0.1566288E+01
  0.3408163E+00  0.3778402E+04 -0.1570797E+01  0.4412818E-02 -0.2013929E+01  0.8832534E+06  0.6968207E-09  0.3340331E+00  0.1653847E+01  0.7893186E+05 -0.1570796E+01  0.6569749E+00  0.3045772E+01  0.1687561E+05 -0.1570796E+01  0.4295580E-02  0.2897755E+01  0.7398224E+04 -0.3141592E+01  0.3105164E+02 -0.3138086E+01  0.1311868E+04  0.1570296E+01  0.3101868E+02  0.1565400E+01  0.3778402E+04 -0.1570797E+01  0.4412818E-02 -0.2013929E+01  0.8832534E+06  0.6968207E-09  0.3340331E+00  0.1653847E+01  0.7893186E+05 -0.1570796E+01  0.6569749E+00  0.3045772E+01  0.1687561E+05 -0.1570796E+01  0.4295580E-02  0.2897755E+01  0.7398224E+04 -0.3141592E+01  0.3105164E+02 -0.3138086E+01  0.1311868E+04  0.1570296E+01  0.3101868E+02  0.1565400E+01  0.3778402E+04 -0.1570797E+01  0.4412818E-02 -0.2013929E+01  0.8832534E+06  0.6968207E-09  0.3340331E+00  0.1653847E+01  0.7893186E+05 -0.1570796E+01  0.6569749E+00  0.3045772E+01  0.1687561E+05 -0.1570796E+01  0.4295580E-02  0.2897755E+01  0.7398224E+04 -0.3141592E+01  0.3105164E+02 -0.3138086E+01  0.1311868E+04  0.1570296E+01  0.3101868E+02  0.1565400E+01
  0.4612245E+00  0.6898431E+04 -0.1570796E+01  0.1337966E-01 -0.1552548E+01  0.8789771E+06 -0.5667790E-09  0.6090737E+00  0.1555263E+01  0.1440170E+06 -0.1570796E+01  0.1196638E+01  0.3049842E+01  0.2761686E+05 -0.1570795E+01  0.8135982E-02  0.4486211E+00  0.1814768E+05 -0.3141591E+01  0.5511584E+02 -0.3137589E+01  0.3980604E+04 -0.1570448E+01  0.5514326E+02  0.1564898E+01  0.6898431E+04 -0.1570796E+01  0.1337966E-01 -0.1552548E+01  0.8789771E+06 -0.5667790E-09  0.6090737E+00  0.1555263E+01  0.1440170E+06 -0.1570796E+01  0.1196638E+01  0.3049842E+01  0.2761686E+05 -0.1570795E+01  0.8135982E-02  0.4486211E+00  0.1814768E+05 -0.3141591E+01  0.5511584E+02 -0.3137589E+01  0.3980604E+04 -0.1570448E+01  0.5514326E+02  0.1564898E+01  0.6898431E+04 -0.1570796E+01  0.1337966E-01 -0.1552548E+01  0.8789771E+06 -0.5667790E-09  0.6090737E+00  0.1555263E+01  0.1440170E+06 -0.1570796E+01  0.1196638E+01  0.3049842E+01  0.2761686E+05 -0.1570795E+01  0.8135982E-02  0.4486211E+00  0.1814768E+05 -0.3141591E+01  0.5511584E+02 -0.3137589E+01  0.3980604E+04 -0.1570448E+01  0.5514326E+02  0.1564898E+01
  0.5816327E+00  0.1091631E+05 -0.1570797E+01  0.3356006E-01 -0.1492513E+01  0.8724424E+06  0.3503255E-08  0.9626582E+00  0.1690341E+01  0.2277567E+06 -0.1570796E+01  0.1879562E+01  0.3054961E+01  0.3806745E+05 -0.1570795E+01  0.9417572E-02  0.1734257E+01  0.2861080E+05 -0.3141591E+01  0.8432040E+02 -0.3136994E+01  0.1670115E+05 -0.1570662E+01  0.8431841E+02  0.1564655E+01  0.1091631E+05 -0.1570797E+01  0.3356006E-01 -0.1492513E+01  0.8724424E+06  0.3503255E-08  0.9626582E+00  0.1690341E+01  0.2277567E+06 -0.1570796E+01  0.1879562E+01  0.3054961E+01  0.3806745E+05 -0.1570795E+01  0.9417572E-02  0.1734257E+01  0.2861080E+05 -0.3141591E+01  0.8432040E+02 -0.3136994E+01  0.1670115E+05 -0.1570662E+01  0.8431841E+02  0.1564655E+01  0.1091631E+05 -0.1570797E+01  0.3356006E-01 -0.1492513E+01  0.8724424E+06  0.3503255E-08  0.9626582E+00  0.1690341E+01  0.2277567E+06 -0.1570796E+01  0.1879562E+01  0.3054961E+01  0.3806745E+05 -0.1570795E+01  0.9417572E-02  0.1734257E+01  0.2861080E+05 -0.3141591E+01  0.8432040E+02 -0.3136994E+01  0.1670115E+05 -0.1570662E+01  0.8431841E+02  0.1564655E+01
  0.7020409E+00  0.1578452E+05 -0.1570796E+01  0.7087099E-01 -0.1647520E+01  0.8629147E+06  0.2151518E-08  0.1370066E+01  0.1592092E+01  0.3291892E+06 -0.1570796E+01  0.2675511E+01  0.3061131E+01  0.4675596E+05 -0.1570794E+01  0.1994409E-01  0.1519226E+01  0.3731454E+05 -0.3141589E+01  0.1169416E+03 -0.3136171E+01  0.3776459E+05 -0.1570706E+01  0.1169449E+03  0.1564307E+01  0.1578452E+05 -0.1570796E+01  0.7087099E-01 -0.1647520E+01  0.8629147E+06  0.2151518E-08  0.1370066E+01  0.1592092E+01  0.3291892E+06 -0.1570796E+01  0.2675511E+01  0.3061131E+01  0.4675596E+05 -0.1570794E+01  0.1994409E-01  0.1519226E+01  0.3731454E+05 -0.3141589E+01  0.1169416E+03 -0.3136171E+01  0.3776459E+05 -0.1570706E+01  0.1169449E+03  0.1564307E+01  0.1578452E+05 -0.1570796E+01  0.7087099E-01 -0.1647520E+01  0.8629147E+06  0.2151518E-08  0.1370066E+01  0.1592092E+01  0.3291892E+06 -0.1570796E+01  0.2675511E+01  0.3061131E+01  0.4675596E+05 -0.1570794E+01  0.1994409E-01  0.1519226E+01  0.3731454E+05 -0.3141589E+01  0.1169416E+03 -0.3136171E+01  0.3776459E+05 -0.1570706E+01  0.1169449E+03  0.1564307E+01
  0.8224490E+00  0.2142559E+05 -0.1570796E+01  0.1320039E+00 -0.1590217E+01  0.8495212E+06  0.6401991E-08  0.1834746E+01  0.1611526E+01  0.4468360E+06 -0.1570796E+01  0.3531058E+01  0.3068470E+01  0.5279448E+05 -0.1570792E+01  0.3753313E-01  0.1607037E+01  0.4336966E+05 -0.3141588E+01  0.1512931E+03 -0.3135024E+01  0.6596313E+05 -0.1570723E+01  0.1511959E+03  0.1563902E+01  0.2142559E+05 -0.1570796E+01  0.1320039E+00 -0.1590217E+01  0.8495212E+06  0.6401991E-08  0.1834746E+01  0.1611526E+01  0.4468360E+06 -0.1570796E+01  0.3531058E+01  0.3068470E+01  0.5279448E+05 -0.1570792E+01  0.3753313E-01  0.1607037E+01  0.4336966E+05 -0.3141588E+01  0.1512931E+03 -0.3135024E+01  0.6596313E+05 -0.1570723E+01  0.1511959E+03  0.1563902E+01  0.2142559E+05 -0.1570796E+01  0.1320039E+00 -0.1590217E+01  0.8495212E+06  0.6401991E-08  0.1834746E+01  0.1611526E+01  0.4468360E+06 -0.1570796E+01  0.3531058E+01  0.3068470E+01  0.5279448E+05 -0.1570792E+01  0.3753313E-01  0.1607037E+01  0.4336966E+05 -0.3141588E+01  0.1512931E+03 -0.3135024E+01  0.6596313E+05 -0.1570723E+01  0.1511959E+03  0.1563902E+01
  0.9428571E+00  0.2772148E+05 -0.1570797E+01  0.2231062E+00 -0.1601441E+01  0.8312944E+06 -0.4561349E-10  0.2316663E+01  0.1594352E+01  0.5785403E+06 -0.1570796E+01  0.4361259E+01  0.3077305E+01  0.5592652E+05 -0.1570790E+01  0.6463105E-01  0.1569365E+01  0.4652050E+05 -0.3141585E+01  0.1852776E+03 -0.3133607E+01  0.9826656E+05 -0.1570729E+01  0.1851025E+03  0.1563419E+01  0.2772148E+05 -0.1570797E+01  0.2231062E+00 -0.1601441E+01  0.8312944E+06 -0.4561349E-10  0.2316663E+01  0.1594352E+01  0.5785403E+06 -0.1570796E+01  0.4361259E+01  0.3077305E+01  0.5592652E+05 -0.1570790E+01  0.6463105E-01  0.1569365E+01  0.4652050E+05 -0.3141585E+01  0.1852776E+03 -0.3133607E+01  0.9826656E+05 -0.1570729E+01  0.1851025E+03  0.1563419E+01  0.2772148E+05 -0.1570797E+01  0.2231062E+00 -0.1601441E+01  0.8312944E+06 -0.4561349E-10  0.2316663E+01  0.1594352E+01  0.5785403E+06 -0.1570796E+01  0.4361259E+01  0.3077305E+01  0.5592652E+05 -0.1570790E+01  0.6463105E-01  0.1569365E+01  0.4652050E+05 -0.3141585E+01  0.1852776E+03 -0.3133607E+01  0.9826656E+05 -0.1570729E+01  0.1851025E+03  0.1563419E+01
  0.1063265E+01  0.3450268E+05 -0.1570796E+01  0.3473418E+00 -0.1567282E+01  0.8072066E+06  0.1831184E-08  0.2813628E+01  0.1626858E+01  0.7212978E+06 -0.1570796E+01  0.5039461E+01  0.3088343E+01  0.5640392E+05 -0.1570787E+01  0.1046749E+00  0.1632388E+01  0.4702241E+05 -0.3141582E+01  0.2169772E+03 -0.3131804E+01  0.1306916E+06 -0.1570730E+01  0.2166648E+03  0.1562815E+01  0.3450268E+05 -0.1570796E+01  0.3473418E+00 -0.1567282E+01  0.8072066E+06  0.1831184E-08  0.2813628E+01  0.1626858E+01  0.7212978E+06 -0.1570796E+01  0.5039461E+01  0.3088343E+01  0.5640392E+05 -0.1570787E+01  0.1046749E+00  0.1632388E+01  0.4702241E+05 -0.3141582E+01  0.2169772E+03 -0.3131804E+01  0.1306916E+06 -0.1570730E+01  0.2166648E+03  0.1562815E+01  0.3450268E+05 -0.1570796E+01  0.3473418E+00 -0.1567282E+01  0.8072066E+06  0.1831184E-08  0.2813628E+01  0.1626858E+01  0.7212978E+06 -0.1570796E+01  0.5039461E+01  0.3088343E+01  0.5640392E+05 -0.1570787E+01  0.1046749E+00  0.1632388E+01  0.4702241E+05 -0.3141582E+01  0.2169772E+03 -0.3131804E+01  0.1306916E+06 -0.1570730E+01  0.2166648E+03  0.1562815E+01
  0.1183674E+01  0.4153791E+05 -0.1570796E+01  0.5061132E+00 -0.1559460E+01  0.7762398E+06 -0.2306975E-07  0.3262243E+01  0.1616089E+01  0.8711002E+06 -0.1570796E+01  0.5392910E+01  0.3103252E+01  0.5477753E+05 -0.1570783E+01  0.1591162E+00  0.1569088E+01  0.4543090E+05 -0.3141577E+01  0.2445399E+03 -0.3129422E+01  0.1593669E+06 -0.1570729E+01  0.2439618E+03  0.1562077E+01  0.4153791E+05 -0.1570796E+01  0.5061132E+00 -0.1559460E+01  0.7762398E+06 -0.2306975E-07  0.3262243E+01  0.1616089E+01  0.8711002E+06 -0.1570796E+01  0.5392910E+01  0.3103252E+01  0.5477753E+05 -0.1570783E+01  0.1591162E+00  0.1569088E+01  0.4543090E+05 -0.3141577E+01  0.2445399E+03 -0.3129422E+01  0.1593669E+06 -0.1570729E+01  0.2439618E+03  0.1562077E+01  0.4153791E+05 -0.1570796E+01  0.5061132E+00 -0.1559460E+01  0.7762398E+06 -0.2306975E-07  0.3262243E+01  0.1616089E+01  0.8711002E+06 -0.1570796E+01  0.5392910E+01  0.3103252E+01  0.5477753E+05 -0.1570783E+01  0.1591162E+00  0.1569088E+01  0.4543090E+05 -0.3141577E+01  0.2445399E+03 -0.3129422E+01  0.1593669E+06 -0.1570729E+01  0.2439618E+03  0.1562077E+01
  0.1304082E+01  0.4852659E+05 -0.1570796E+01  0.6976026E+00 -0.1538506E+01  0.7374666E+06  0.1241273E-08  0.3625242E+01  0.1650870E+01  0.1022825E+07 -0.1570796E+01  0.5202294E+01  0.3126358E+01  0.5168956E+05 -0.1570778E+01  0.2341205E+00  0.1578137E+01  0.4239230E+05 -0.3141570E+01  0.2662365E+03 -0.3126334E+01  0.1814075E+06 -0.1570725E+01  0.2652804E+03  0.1561135E+01  0.4852659E+05 -0.1570796E+01  0.6976026E+00 -0.1538506E+01  0.7374666E+06  0.1241273E-08  0.3625242E+01  0.1650870E+01  0.1022825E+07 -0.1570796E+01  0.5202294E+01  0.3126358E+01  0.5168956E+05 -0.1570778E+01  0.2341205E+00  0.1578137E+01  0.4239230E+05 -0.3141570E+01  0.2662365E+03 -0.3126334E+01  0.1814075E+06 -0.1570725E+01  0.2652804E+03  0.1561135E+01  0.4852659E+05 -0.1570796E+01  0.6976026E+00 -0.1538506E+01  0.7374666E+06  0.1241273E-08  0.3625242E+01  0.1650870E+01  0.1022825E+07 -0.1570796E+01  0.5202294E+01  0.3126358E+01  0.5168956E+05 -0.1570778E+01  0.2341205E+00  0.1578137E+01  0.4239230E+05 -0.3141570E+01  0.2662365E+03 -0.3126334E+01  0.1814075E+06 -0.1570725E+01  0.2652804E+03  0.1561135E+01
  0.1424490E+01  0.5509636E+05 -0.1570795E+01  0.8963420E+00 -0.1521136E+01  0.6901458E+06  0.9451540E-08  0.3843447E+01  0.1651381E+01  0.1170179E+07 -0.1570796E+01  0.4207949E+01 -0.3110633E+01  0.4772621E+05 -0.1570771E+01  0.3312888E+00  0.1582141E+01  0.3849421E+05 -0.3141562E+01  0.2806577E+03 -0.3122244E+01  0.1953618E+06 -0.1570720E+01  0.2792194E+03  0.1559937E+01  0.5509636E+05 -0.1570795E+01  0.8963420E+00 -0.1521136E+01  0.6901458E+06  0.9451540E-08  0.3843447E+01  0.1651381E+01  0.1170179E+07 -0.1570796E+01  0.4207949E+01 -0.3110633E+01  0.4772621E+05 -0.1570771E+01  0.3312888E+00  0.1582141E+01  0.3849421E+05 -0.3141562E+01  0.2806577E+03 -0.3122244E+01  0.1953618E+06 -0.1570720E+01  0.2792194E+03  0.1559937E+01  0.5509636E+05 -0.1570795E+01  0.8963420E+00 -0.1521136E+01  0.6901458E+06  0.9451540E-08  0.3843447E+01  0.1651381E+01  0.1170179E+07 -0.1570796E+01  0.4207949E+01 -0.3110633E+01  0.4772621E+05 -0.1570771E+01  0.3312888E+00  0.1582141E+01  0.3849421E+05 -0.3141562E+01  0.2806577E+03 -0.3122244E+01  0.1953618E+06 -0.1570720E+01  0.2792194E+03  0.1559937E+01
  0.1544898E+01  0.6080779E+05 -0.1570795E+01  0.1077929E+01 -0.1496780E+01  0.6338448E+06 -0.4278523E-07  0.3891614E+01  0.1668741E+01  0.1305761E+07 -0.1570796E+01  0.2158552E+01 -0.2938450E+01  0.4334673E+05 -0.1570763E+01  0.4554519E+00  0.1583986E+01  0.3419427E+05 -0.3141551E+01  0.2868683E+03 -0.3116770E+01  0.2011924E+06 -0.1570714E+01  0.2848028E+03  0.1558363E+01  0.6080779E+05 -0.1570795E+01  0.1077929E+01 -0.1496780E+01  0.6338448E+06 -0.4278523E-07  0.3891614E+01  0.1668741E+01  0.1305761E+07 -0.1570796E+01  0.2158552E+01 -0.2938450E+01  0.4334673E+05 -0.1570763E+01  0.4554519E+00  0.1583986E+01  0.3419427E+05 -0.3141551E+01  0.2868683E+03 -0.3116770E+01  0.2011924E+06 -0.1570714E+01  0.2848028E+03  0.1558363E+01  0.6080779E+05 -0.1570795E+01  0.1077929E+01 -0.1496780E+01  0.6338448E+06 -0.4278523E-07  0.3891614E+01  0.1668741E+01  0.1305761E+07 -0.1570796E+01  0.2158552E+01 -0.2938450E+01  0.4334673E+05 -0.1570763E+01  0.4554519E+00  0.1583986E+01  0.3419427E+05 -0.3141551E+01  0.2868683E+03 -0.3116770E+01  0.2011924E+06 -0.1570714E+01  0.2848028E+03  0.1558363E+01
  0.1665306E+01  0.6516973E+05 -0.1570794E+01  0.1187579E+01 -0.1461054E+01  0.5685601E+06 -0.1155412E-07  0.3695728E+01  0.1697841E+01  0.1421266E+07 -0.1570796E+01  0.1595932E+01 -0.5577870E+00  0.3887452E+05 -0.1570754E+01  0.6107318E+00  0.1584849E+01  0.2981189E+05 -0.3141537E+01  0.2843461E+03 -0.3109338E+01  0.1999271E+06 -0.1570708E+01  0.2815522E+03  0.1556290E+01  0.6516973E+05 -0.1570794E+01  0.1187579E+01 -0.1461054E+01  0.5685601E+06 -0.1155412E-07  0.3695728E+01  0.1697841E+01  0.1421266E+07 -0.1570796E+01  0.1595932E+01 -0.5577870E+00  0.3887452E+05 -0.1570754E+01  0.6107318E+00  0.1584849E+01  0.2981189E+05 -0.3141537E+01  0.2843461E+03 -0.3109338E+01  0.1999271E+06 -0.1570708E+01  0.2815522E+03  0.1556290E+01  0.6516973E+05 -0.1570794E+01  0.1187579E+01 -0.1461054E+01  0.5685601E+06 -0.1155412E-07  0.3695728E+01  0.1697841E+01  0.1421266E+07 -0.1570796E+01  0.1595932E+01 -0.5577870E+00  0.3887452E+05 -0.1570754E+01  0.6107318E+00  0.1584849E+01  0.2981189E+05 -0.3141537E+01  0.2843461E+03 -0.3109338E+01  0.1999271E+06 -0.1570708E+01  0.2815522E+03  0.1556290E+01
  0.1785714E+01  0.6766704E+05 -0.1570793E+01  0.1167472E+01 -0.1392627E+01  0.4948486E+06 -0.3096895E-08  0.3158026E+01  0.1739254E+01  0.1507863E+07 -0.1570796E+01  0.6564206E+01 -0.2083305E+00  0.3452109E+05 -0.1570744E+01  0.8005825E+00  0.1584000E+01  0.2555386E+05 -0.3141521E+01  0.2731061E+03 -0.3098974E+01  0.1931769E+06 -0.1570702E+01  0.2695319E+03  0.1553498E+01  0.6766704E+05 -0.1570793E+01  0.1167472E+01 -0.1392627E+01  0.4948486E+06 -0.3096895E-08  0.3158026E+01  0.1739254E+01  0.1507863E+07 -0.1570796E+01  0.6564206E+01 -0.2083305E+00  0.3452109E+05 -0.1570744E+01  0.8005825E+00  0.1584000E+01  0.2555386E+05 -0.3141521E+01  0.2731061E+03 -0.3098974E+01  0.1931769E+06 -0.1570702E+01  0.2695319E+03  0.1553498E+01  0.6766704E+05 -0.1570793E+01  0.1167472E+01 -0.1392627E+01  0.4948486E+06 -0.3096895E-08  0.3158026E+01  0.1739254E+01  0.1507863E+07 -0.1570796E+01  0.6564206E+01 -0.2083305E+00  0.3452109E+05 -0.1570744E+01  0.8005825E+00  0.1584000E+01  0.2555386E+05 -0.3141521E+01  0.2731061E+03 -0.3098974E+01  0.1931769E+06 -0.1570702E+01  0.2695319E+03  0.1553498E+01
  0.1906122E+01  0.6780380E+05 -0.1570791E+01  0.9342795E+00 -0.1245227E+01  0.4139368E+06  0.2199824E-07  0.2446769E+01  0.1791119E+01  0.1556783E+07 -0.1570796E+01  0.1333698E+02 -0.1475732E+00  0.3041846E+05 -0.1570734E+01  0.1030511E+01  0.1584255E+01  0.2154806E+05 -0.3141503E+01  0.2537329E+03 -0.3084152E+01  0.1826954E+06 -0.1570699E+01  0.2493500E+03  0.1549657E+01  0.6780380E+05 -0.1570791E+01  0.9342795E+00 -0.1245227E+01  0.4139368E+06  0.2199824E-07  0.2446769E+01  0.1791119E+01  0.1556783E+07 -0.1570796E+01  0.1333698E+02 -0.1475732E+00  0.3041846E+05 -0.1570734E+01  0.1030511E+01  0.1584255E+01  0.2154806E+05 -0.3141503E+01  0.2537329E+03 -0.3084152E+01  0.1826954E+06 -0.1570699E+01  0.2493500E+03  0.1549657E+01  0.6780380E+05 -0.1570791E+01  0.9342795E+00 -0.1245227E+01  0.4139368E+06  0.2199824E-07  0.2446769E+01  0.1791119E+01  0.1556783E+07 -0.1570796E+01  0.1333698E+02 -0.1475732E+00  0.3041846E+05 -0.1570734E+01  0.1030511E+01  0.1584255E+01  0.2154806E+05 -0.3141503E+01  0.2537329E+03 -0.3084152E+01  0.1826954E+06 -0.1570699E+01  0.2493500E+03  0.1549657E+01
  0.2026531E+01  0.6515959E+05 -0.1570789E+01  0.5122368E+00 -0.6192747E+00  0.3277955E+06  0.6185341E-08  0.1497822E+01  0.1957453E+01  0.1560099E+07 -0.1570796E+01  0.2172486E+02 -0.1211232E+00  0.2664587E+05 -0.1570725E+01  0.1304684E+01  0.1584460E+01  0.1787089E+05 -0.3141483E+01  0.2273102E+03 -0.3062346E+01  0.1700757E+06 -0.1570700E+01  0.2221261E+03  0.1544166E+01  0.6515959E+05 -0.1570789E+01  0.5122368E+00 -0.6192747E+00  0.3277955E+06  0.6185341E-08  0.1497822E+01  0.1957453E+01  0.1560099E+07 -0.1570796E+01  0.2172486E+02 -0.1211232E+00  0.2664587E+05 -0.1570725E+01  0.1304684E+01  0.1584460E+01  0.1787089E+05 -0.3141483E+01  0.2273102E+03 -0.3062346E+01  0.1700757E+06 -0.1570700E+01  0.2221261E+03  0.1544166E+01  0.6515959E+05 -0.1570789E+01  0.5122368E+00 -0.6192747E+00  0.3277955E+06  0.6185341E-08  0.1497822E+01  0.1957453E+01  0.1560099E+07 -0.1570796E+01  0.2172486E+02 -0.1211232E+00  0.2664587E+05 -0.1570725E+01  0.1304684E+01  0.1584460E+01  0.1787089E+05 -0.3141483E+01  0.2273102E+03 -0.3062346E+01  0.1700757E+06 -0.1570700E+01  0.2221261E+03  0.1544166E+01
  0.2146939E+01  0.5945862E+05 -0.1570785E+01  0.9070514E+00  0.9357368E+00  0.2391571E+06  0.6965670E-07  0.4999318E+00  0.2733733E+01  0.1511710E+07 -0.1570796E+01  0.3134441E+02 -0.1054638E+00  0.2324710E+05 -0.1570719E+01  0.1627275E+01  0.1585485E+01  0.1456474E+05 -0.3141463E+01  0.1953478E+03 -0.3028839E+01  0.1566022E+06 -0.1570706E+01  0.1894052E+03  0.1536025E+01  0.5945862E+05 -0.1570785E+01  0.9070514E+00  0.9357368E+00  0.2391571E+06  0.6965670E-07  0.4999318E+00  0.2733733E+01  0.1511710E+07 -0.1570796E+01  0.3134441E+02 -0.1054638E+00  0.2324710E+05 -0.1570719E+01  0.1627275E+01  0.1585485E+01  0.1456474E+05 -0.3141463E+01  0.1953478E+03 -0.3028839E+01  0.1566022E+06 -0.1570706E+01  0.1894052E+03  0.1536025E+01  0.5945862E+05 -0.1570785E+01  0.9070514E+00  0.9357368E+00  0.2391571E+06  0.6965670E-07  0.4999318E+00  0.2733733E+01  0.1511710E+07 -0.1570796E+01  0.3134441E+02 -0.1054638E+00  0.2324710E+05 -0.1570719E+01  0.1627275E+01  0.1585485E+01  0.1456474E+05 -0.3141463E+01  0.1953478E+03 -0.3028839E+01  0.1566022E+06 -0.1570706E+01  0.1894052E+03  0.1536025E+01
  0.2267347E+01  0.5064276E+05 -0.1570780E+01  0.2385587E+01  0.1290676E+01  0.1514491E+06  0.3398651E-07  0.1231964E+01 -0.1885771E+01  0.1408400E+07 -0.1570796E+01  0.4148110E+02 -0.9448801E-01  0.2024035E+05 -0.1570717E+01  0.2002845E+01  0.1586598E+01  0.1164774E+05 -0.3141446E+01  0.1598078E+03 -0.2974603E+01  0.1432210E+06 -0.1570720E+01  0.1530410E+03  0.1523198E+01  0.5064276E+05 -0.1570780E+01  0.2385587E+01  0.1290676E+01  0.1514491E+06  0.3398651E-07  0.1231964E+01 -0.1885771E+01  0.1408400E+07 -0.1570796E+01  0.4148110E+02 -0.9448801E-01  0.2024035E+05 -0.1570717E+01  0.2002845E+01  0.1586598E+01  0.1164774E+05 -0.3141446E+01  0.1598078E+03 -0.2974603E+01  0.1432210E+06 -0.1570720E+01  0.1530410E+03  0.1523198E+01  0.5064276E+05 -0.1570780E+01  0.2385587E+01  0.1290676E+01  0.1514491E+06  0.3398651E-07  0.1231964E+01 -0.1885771E+01  0.1408400E+07 -0.1570796E+01  0.4148110E+02 -0.9448801E-01  0.2024035E+05 -0.1570717E+01  0.2002845E+01  0.1586598E+01  0.1164774E+05 -0.3141446E+01  0.1598078E+03 -0.2974603E+01  0.1432210E+06 -0.1570720E+01  0.1530410E+03  0.1523198E+01
  0.2387755E+01  0.3894021E+05 -0.1570773E+01  0.4502398E+01  0.1402930E+01  0.6862147E+05 -0.1108219E-06  0.2406809E+01 -0.1645219E+01  0.1250913E+07 -0.1570796E+01  0.5106718E+02 -0.8579227E-01  0.1762463E+05 -0.1570722E+01  0.2434911E+01  0.1587580E+01  0.9119729E+04 -0.3141435E+01  0.1231242E+03 -0.2880421E+01  0.1305757E+06 -0.1570743E+01  0.1150643E+03  0.1501218E+01  0.3894021E+05 -0.1570773E+01  0.4502398E+01  0.1402930E+01  0.6862147E+05 -0.1108219E-06  0.2406809E+01 -0.1645219E+01  0.1250913E+07 -0.1570796E+01  0.5106718E+02 -0.8579227E-01  0.1762463E+05 -0.1570722E+01  0.2434911E+01  0.1587580E+01  0.9119729E+04 -0.3141435E+01  0.1231242E+03 -0.2880421E+01  0.1305757E+06 -0.1570743E+01  0.1150643E+03  0.1501218E+01  0.3894021E+05 -0.1570773E+01  0.4502398E+01  0.1402930E+01  0.6862147E+05 -0.1108219E-06  0.2406809E+01 -0.1645219E+01  0.1250913E+07 -0.1570796E+01  0.5106718E+02 -0.8579227E-01  0.1762463E+05 -0.1570722E+01  0.2434911E+01  0.1587580E+01  0.9119729E+04 -0.3141435E+01  0.1231242E+03 -0.2880421E+01  0.1305757E+06 -0.1570743E+01  0.1150643E+03  0.1501218E+01
  0.2508163E+01  0.2491383E+05 -0.1570758E+01  0.7226782E+01  0.1462454E+01  0.5140780E+04  0.3141591E+01  0.3421982E+01 -0.1542076E+01  0.1044808E+07 -0.1570796E+01  0.5873114E+02 -0.7806686E-01  0.1538469E+05 -0.1570735E+01  0.2928190E+01  0.1588865E+01  0.6966755E+04 -0.3141439E+01  0.8855803E+02 -0.2701699E+01  0.1190693E+06 -0.1570776E+01  0.7755402E+02  0.1457942E+01  0.2491383E+05 -0.1570758E+01  0.7226782E+01  0.1462454E+01  0.5140780E+04  0.3141591E+01  0.3421982E+01 -0.1542076E+01  0.1044808E+07 -0.1570796E+01  0.5873114E+02 -0.7806686E-01  0.1538469E+05 -0.1570735E+01  0.2928190E+01  0.1588865E+01  0.6966755E+04 -0.3141439E+01  0.8855803E+02 -0.2701699E+01  0.1190693E+06 -0.1570776E+01  0.7755402E+02  0.1457942E+01  0.2491383E+05 -0.1570758E+01  0.7226782E+01  0.1462454E+01  0.5140780E+04  0.3141591E+01  0.3421982E+01 -0.1542076E+01  0.1044808E+07 -0.1570796E+01  0.5873114E+02 -0.7806686E-01  0.1538469E+05 -0.1570735E+01  0.2928190E+01  0.1588865E+01  0.6966755E+04 -0.3141439E+01  0.8855803E+02 -0.2701699E+01  0.1190693E+06 -0.1570776E+01  0.7755402E+02  0.1457942E+01
  0.2628571E+01  0.9473395E+04 -0.1570704E+01  0.1045873E+02  0.1501903E+01  0.6581717E+05 -0.3141593E+01  0.4163504E+01 -0.1493066E+01  0.8009606E+06 -0.1570797E+01  0.6294263E+02 -0.7024240E-01  0.1349540E+05 -0.1570759E+01  0.3486213E+01  0.1589407E+01  0.5165383E+04 -0.3141469E+01  0.6177433E+02 -0.2340386E+01  0.1089245E+06 -0.1570818E+01  0.4262549E+02  0.1346572E+01  0.9473395E+04 -0.1570704E+01  0.1045873E+02  0.1501903E+01  0.6581717E+05 -0.3141593E+01  0.4163504E+01 -0.1493066E+01  0.8009606E+06 -0.1570797E+01  0.6294263E+02 -0.7024240E-01  0.1349540E+05 -0.1570759E+01  0.3486213E+01  0.1589407E+01  0.5165383E+04 -0.3141469E+01  0.6177433E+02 -0.2340386E+01  0.1089245E+06 -0.1570818E+01  0.4262549E+02  0.1346572E+01  0.9473395E+04 -0.1570704E+01  0.1045873E+02  0.1501903E+01  0.6581717E+05 -0.3141593E+01  0.4163504E+01 -0.1493066E+01  0.8009606E+06 -0.1570797E+01  0.6294263E+02 -0.7024240E-01  0.1349540E+05 -0.1570759E+01  0.3486213E+01  0.1589407E+01  0.5165383E+04 -0.3141469E+01  0.6177433E+02 -0.2340386E+01  0.1089245E+06 -0.1570818E+01  0.4262549E+02  0.1346572E+01
  0.2748980E+01  0.6165448E+04  0.1570695E+01  0.1401787E+02  0.1533931E+01  0.1100380E+06  0.3141593E+01  0.4284500E+01 -0.1427847E+01  0.5354122E+06 -0.1570798E+01  0.6226657E+02 -0.6092022E-01  0.1192555E+05 -0.1570794E+01  0.4111966E+01  0.1591202E+01  0.3686291E+04 -0.3141549E+01  0.5257767E+02 -0.1745010E+01  0.1002306E+06 -0.1570869E+01  0.1420806E+02  0.7674711E+00  0.6165448E+04  0.1570695E+01  0.1401787E+02  0.1533931E+01  0.1100380E+06  0.3141593E+01  0.4284500E+01 -0.1427847E+01  0.5354122E+06 -0.1570798E+01  0.6226657E+02 -0.6092022E-01  0.1192555E+05 -0.1570794E+01  0.4111966E+01  0.1591202E+01  0.3686291E+04 -0.3141549E+01  0.5257767E+02 -0.1745010E+01  0.1002306E+06 -0.1570869E+01  0.1420806E+02  0.7674711E+00  0.6165448E+04  0.1570695E+01  0.1401787E+02  0.1533931E+01  0.1100380E+06  0.3141593E+01  0.4284500E+01 -0.1427847E+01  0.5354122E+06 -0.1570798E+01  0.6226657E+02 -0.6092022E-01  0.1192555E+05 -0.1570794E+01  0.4111966E+01  0.1591202E+01  0.3686291E+04 -0.3141549E+01  0.5257767E+02 -0.1745010E+01  0.1002306E+06 -0.1570869E+01  0.1420806E+02  0.7674711E+00
  0.2869388E+01  0.2058692E+05  0.1570788E+01  0.1763461E+02  0.1562631E+01  0.1356016E+06  0.3141593E+01  0.3910154E+01 -0.1369674E+01  0.2684369E+06 -0.1570800E+01  0.5571259E+02 -0.4736123E-01  0.1064082E+05 -0.1570839E+01  0.4808369E+01  0.1592381E+01  0.2497226E+04  0.3141461E+01  0.6330730E+02 -0.1246190E+01  0.9298048E+05 -0.1570924E+01  0.2007924E+02 -0.9929380E+00  0.2058692E+05  0.1570788E+01  0.1763461E+02  0.1562631E+01  0.1356016E+06  0.3141593E+01  0.3910154E+01 -0.1369674E+01  0.2684369E+06 -0.1570800E+01  0.5571259E+02 -0.4736123E-01  0.1064082E+05 -0.1570839E+01  0.4808369E+01  0.1592381E+01  0.2497226E+04  0.3141461E+01  0.6330730E+02 -0.1246190E+01  0.9298048E+05 -0.1570924E+01  0.2007924E+02 -0.9929380E+00  0.2058692E+05  0.1570788E+01  0.1763461E+02  0.1562631E+01  0.1356016E+06  0.3141593E+01  0.3910154E+01 -0.1369674E+01  0.2684369E+06 -0.1570800E+01  0.5571259E+02 -0.4736123E-01  0.1064082E+05 -0.1570839E+01  0.4808369E+01  0.1592381E+01  0.2497226E+04  0.3141461E+01  0.6330730E+02 -0.1246190E+01  0.9298048E+05 -0.1570924E+01  0.2007924E+02 -0.9929380E+00
  0.2989796E+01  0.3234796E+05  0.1570812E+01  0.2097497E+02  0.1590527E+01  0.1419465E+06  0.3141593E+01  0.2895171E+01 -0.1275875E+01  0.2269831E+05 -0.1570842E+01  0.4314127E+02 -0.2211437E-01  0.9605887E+04 -0.1570891E+01  0.5577493E+01  0.1593775E+01  0.1564962E+04  0.3141081E+01  0.8188872E+02 -0.1003088E+01  0.8709515E+05 -0.1570980E+01  0.3951464E+02 -0.1270232E+01  0.3234796E+05  0.1570812E+01  0.2097497E+02  0.1590527E+01  0.1419465E+06  0.3141593E+01  0.2895171E+01 -0.1275875E+01  0.2269831E+05 -0.1570842E+01  0.4314127E+02 -0.2211437E-01  0.9605887E+04 -0.1570891E+01  0.5577493E+01  0.1593775E+01  0.1564962E+04  0.3141081E+01  0.8188872E+02 -0.1003088E+01  0.8709515E+05 -0.1570980E+01  0.3951464E+02 -0.1270232E+01  0.3234796E+05  0.1570812E+01  0.2097497E+02  0.1590527E+01  0.1419465E+06  0.3141593E+01  0.2895171E+01 -0.1275875E+01  0.2269831E+05 -0.1570842E+01  0.4314127E+02 -0.2211437E-01  0.9605887E+04 -0.1570891E+01  0.5577493E+01  0.1593775E+01  0.1564962E+04  0.3141081E+01  0.8188872E+02 -0.1003088E+01  0.8709515E+05 -0.1570980E+01  0.3951464E+02 -0.1270232E+01
  0.3110204E+01  0.4020439E+05  0.1570831E+01  0.2369901E+02  0.1619032E+01  0.1304745E+06 -0.3141593E+01  0.1384552E+01 -0.1011040E+01  0.1794411E+06  0.1570801E+01  0.2566097E+02  0.4604347E-01  0.8785714E+04 -0.1570947E+01  0.6421138E+01  0.1595136E+01  0.8565187E+03  0.3140162E+01  0.1003528E+03 -0.9051299E+00  0.8244458E+05 -0.1571031E+01  0.5406556E+02 -0.1339209E+01  0.4020439E+05  0.1570831E+01  0.2369901E+02  0.1619032E+01  0.1304745E+06 -0.3141593E+01  0.1384552E+01 -0.1011040E+01  0.1794411E+06  0.1570801E+01  0.2566097E+02  0.4604347E-01  0.8785714E+04 -0.1570947E+01  0.6421138E+01  0.1595136E+01  0.8565187E+03  0.3140162E+01  0.1003528E+03 -0.9051299E+00  0.8244458E+05 -0.1571031E+01  0.5406556E+02 -0.1339209E+01  0.4020439E+05  0.1570831E+01  0.2369901E+02  0.1619032E+01  0.1304745E+06 -0.3141593E+01  0.1384552E+01 -0.1011040E+01  0.1794411E+06  0.1570801E+01  0.2566097E+02  0.4604347E-01  0.8785714E+04 -0.1570947E+01  0.6421138E+01  0.1595136E+01  0.8565187E+03  0.3140162E+01  0.1003528E+03 -0.9051299E+00  0.8244458E+05 -0.1571031E+01  0.5406556E+02 -0.1339209E+01