 VARIABLES="Time (s)"
"AddedMass    1" "IRF    1"
"AddedMass    2" "IRF    2"
"AddedMass    3" "IRF    3"
"AddedMass    4" "IRF    4"
"AddedMass    5" "IRF    5"
"AddedMass    6" "IRF    6"
"AddedMass    7" "IRF    7"
"AddedMass    8" "IRF    8"
"AddedMass    9" "IRF    9"
"AddedMass   10" "IRF   10"
"AddedMass   11" "IRF   11"
"AddedMass   12" "IRF   12"
"AddedMass   13" "IRF   13"
"AddedMass   14" "IRF   14"
"AddedMass   15" "IRF   15"
"AddedMass   16" "IRF   16"
"AddedMass   17" "IRF   17"
"AddedMass   18" "IRF   18"
"AddedMass   19" "IRF   19"
"AddedMass   20" "IRF   20"
"AddedMass   21" "IRF   21"
"AddedMass   22" "IRF   22"
"AddedMass   23" "IRF   23"
"AddedMass   24" "IRF   24"
"AddedMass   25" "IRF   25"
"AddedMass   26" "IRF   26"
"AddedMass   27" "IRF   27"
"AddedMass   28" "IRF   28"
"AddedMass   29" "IRF   29"
"AddedMass   30" "IRF   30"
"AddedMass   31" "IRF   31"
"AddedMass   32" "IRF   32"
"AddedMass   33" "IRF   33"
"AddedMass   34" "IRF   34"
"AddedMass   35" "IRF   35"
"AddedMass   36" "IRF   36"
Zone t="DoF    1",I=   100,F=POINT
  0.1000000E+00 -0.1762918E+04  0.9019168E+04  0.2607217E+02  0.8121906E+00 -0.1534473E+02 -0.6764987E+02 -0.7321241E+01  0.8905347E+02  0.7610078E+04  0.3764618E+05  0.4999582E+00  0.1240086E+02  0.9260530E+03  0.4869796E+04 -0.1443672E+02 -0.4930509E+00  0.1596548E+01  0.4207967E+01  0.1573339E+03  0.1550101E+02  0.9331225E+04  0.2459900E+05  0.1633332E+00 -0.4176244E+02 -0.1762918E+04  0.9019168E+04  0.2607217E+02  0.8121906E+00 -0.1534473E+02 -0.6764987E+02 -0.7321241E+01  0.8905347E+02  0.7610078E+04  0.3764618E+05  0.4999582E+00  0.1240086E+02  0.9260530E+03  0.4869796E+04 -0.1443672E+02 -0.4930509E+00  0.1596548E+01  0.4207967E+01  0.1573339E+03  0.1550101E+02  0.9331225E+04  0.2459900E+05  0.1633332E+00 -0.4176244E+02 -0.1762918E+04  0.9019168E+04  0.2607217E+02  0.8121906E+00 -0.1534473E+02 -0.6764987E+02 -0.7321241E+01  0.8905347E+02  0.7610078E+04  0.3764618E+05  0.4999582E+00  0.1240086E+02  0.9260530E+03  0.4869796E+04 -0.1443672E+02 -0.4930509E+00  0.1596548E+01  0.4207967E+01  0.1573339E+03  0.1550101E+02  0.9331225E+04  0.2459900E+05  0.1633332E+00 -0.4176244E+02
  0.2000000E+00 -0.1762918E+04  0.7183472E+04  0.2607217E+02 -0.1803452E+01 -0.1534473E+02 -0.5711465E+02 -0.7321241E+01  0.8603030E+02  0.7610078E+04  0.3581623E+05  0.4999582E+00  0.9267838E+01  0.9260530E+03  0.4569266E+04 -0.1443672E+02 -0.1874373E+01  0.1596548E+01  0.3688269E+01  0.1573339E+03  0.2112540E+02  0.9331225E+04  0.2285780E+05  0.1633332E+00 -0.3863793E+02 -0.1762918E+04  0.7183472E+04  0.2607217E+02 -0.1803452E+01 -0.1534473E+02 -0.5711465E+02 -0.7321241E+01  0.8603030E+02  0.7610078E+04  0.3581623E+05  0.4999582E+00  0.9267838E+01  0.9260530E+03  0.4569266E+04 -0.1443672E+02 -0.1874373E+01  0.1596548E+01  0.3688269E+01  0.1573339E+03  0.2112540E+02  0.9331225E+04  0.2285780E+05  0.1633332E+00 -0.3863793E+02 -0.1762918E+04  0.7183472E+04  0.2607217E+02 -0.1803452E+01 -0.1534473E+02 -0.5711465E+02 -0.7321241E+01  0.8603030E+02  0.7610078E+04  0.3581623E+05  0.4999582E+00  0.9267838E+01  0.9260530E+03  0.4569266E+04 -0.1443672E+02 -0.1874373E+01  0.1596548E+01  0.3688269E+01  0.1573339E+03  0.2112540E+02  0.9331225E+04  0.2285780E+05  0.1633332E+00 -0.3863793E+02
  0.3000000E+00 -0.1762918E+04  0.4515229E+04  0.2607217E+02 -0.5397582E+01 -0.1534473E+02 -0.4131403E+02 -0.7321241E+01  0.8069334E+02  0.7610078E+04  0.3255058E+05  0.4999582E+00  0.4787032E+01  0.9260530E+03  0.4083615E+04 -0.1443672E+02 -0.3856767E+01  0.1596548E+01  0.2900908E+01  0.1573339E+03  0.2906218E+02  0.9331225E+04  0.2006560E+05  0.1633332E+00 -0.3363568E+02 -0.1762918E+04  0.4515229E+04  0.2607217E+02 -0.5397582E+01 -0.1534473E+02 -0.4131403E+02 -0.7321241E+01  0.8069334E+02  0.7610078E+04  0.3255058E+05  0.4999582E+00  0.4787032E+01  0.9260530E+03  0.4083615E+04 -0.1443672E+02 -0.3856767E+01  0.1596548E+01  0.2900908E+01  0.1573339E+03  0.2906218E+02  0.9331225E+04  0.2006560E+05  0.1633332E+00 -0.3363568E+02 -0.1762918E+04  0.4515229E+04  0.2607217E+02 -0.5397582E+01 -0.1534473E+02 -0.4131403E+02 -0.7321241E+01  0.8069334E+02  0.7610078E+04  0.3255058E+05  0.4999582E+00  0.4787032E+01  0.9260530E+03  0.4083615E+04 -0.1443672E+02 -0.3856767E+01  0.1596548E+01  0.2900908E+01  0.1573339E+03  0.2906218E+02  0.9331225E+04  0.2006560E+05  0.1633332E+00 -0.3363568E+02
  0.4000000E+00 -0.1762918E+04  0.1505149E+04  0.2607217E+02 -0.9021217E+01 -0.1534473E+02 -0.2254865E+02 -0.7321241E+01  0.7272346E+02  0.7610078E+04  0.2764459E+05  0.4999582E+00 -0.1211215E+00  0.9260530E+03  0.3435776E+04 -0.1443672E+02 -0.6031790E+01  0.1596548E+01  0.1949580E+01  0.1573339E+03  0.3747809E+02  0.9331225E+04  0.1638208E+05  0.1633332E+00 -0.2705484E+02 -0.1762918E+04  0.1505149E+04  0.2607217E+02 -0.9021217E+01 -0.1534473E+02 -0.2254865E+02 -0.7321241E+01  0.7272346E+02  0.7610078E+04  0.2764459E+05  0.4999582E+00 -0.1211215E+00  0.9260530E+03  0.3435776E+04 -0.1443672E+02 -0.6031790E+01  0.1596548E+01  0.1949580E+01  0.1573339E+03  0.3747809E+02  0.9331225E+04  0.1638208E+05  0.1633332E+00 -0.2705484E+02 -0.1762918E+04  0.1505149E+04  0.2607217E+02 -0.9021217E+01 -0.1534473E+02 -0.2254865E+02 -0.7321241E+01  0.7272346E+02  0.7610078E+04  0.2764459E+05  0.4999582E+00 -0.1211215E+00  0.9260530E+03  0.3435776E+04 -0.1443672E+02 -0.6031790E+01  0.1596548E+01  0.1949580E+01  0.1573339E+03  0.3747809E+02  0.9331225E+04  0.1638208E+05  0.1633332E+00 -0.2705484E+02
  0.5000000E+00 -0.1762918E+04 -0.1326230E+04  0.2607217E+02 -0.1169101E+02 -0.1534473E+02 -0.3437712E+01 -0.7321241E+01  0.6189082E+02  0.7610078E+04  0.2100953E+05  0.4999582E+00 -0.4497375E+01  0.9260530E+03  0.2657661E+04 -0.1443672E+02 -0.7952723E+01  0.1596548E+01  0.9535298E+00  0.1573339E+03  0.4437337E+02  0.9331225E+04  0.1201998E+05  0.1633332E+00 -0.1929482E+02 -0.1762918E+04 -0.1326230E+04  0.2607217E+02 -0.1169101E+02 -0.1534473E+02 -0.3437712E+01 -0.7321241E+01  0.6189082E+02  0.7610078E+04  0.2100953E+05  0.4999582E+00 -0.4497375E+01  0.9260530E+03  0.2657661E+04 -0.1443672E+02 -0.7952723E+01  0.1596548E+01  0.9535298E+00  0.1573339E+03  0.4437337E+02  0.9331225E+04  0.1201998E+05  0.1633332E+00 -0.1929482E+02 -0.1762918E+04 -0.1326230E+04  0.2607217E+02 -0.1169101E+02 -0.1534473E+02 -0.3437712E+01 -0.7321241E+01  0.6189082E+02  0.7610078E+04  0.2100953E+05  0.4999582E+00 -0.4497375E+01  0.9260530E+03  0.2657661E+04 -0.1443672E+02 -0.7952723E+01  0.1596548E+01  0.9535298E+00  0.1573339E+03  0.4437337E+02  0.9331225E+04  0.1201998E+05  0.1633332E+00 -0.1929482E+02
  0.6000000E+00 -0.1762918E+04 -0.3542041E+04  0.2607217E+02 -0.1262603E+02 -0.1534473E+02  0.1353208E+02 -0.7321241E+01  0.4819078E+02  0.7610078E+04  0.1278962E+05  0.4999582E+00 -0.7565680E+01  0.9260530E+03  0.1789229E+04 -0.1443672E+02 -0.9223539E+01  0.1596548E+01  0.2804500E-01  0.1573339E+03  0.4798612E+02  0.9331225E+04  0.7233027E+04  0.1633332E+00 -0.1083253E+02 -0.1762918E+04 -0.3542041E+04  0.2607217E+02 -0.1262603E+02 -0.1534473E+02  0.1353208E+02 -0.7321241E+01  0.4819078E+02  0.7610078E+04  0.1278962E+05  0.4999582E+00 -0.7565680E+01  0.9260530E+03  0.1789229E+04 -0.1443672E+02 -0.9223539E+01  0.1596548E+01  0.2804500E-01  0.1573339E+03  0.4798612E+02  0.9331225E+04  0.7233027E+04  0.1633332E+00 -0.1083253E+02 -0.1762918E+04 -0.3542041E+04  0.2607217E+02 -0.1262603E+02 -0.1534473E+02  0.1353208E+02 -0.7321241E+01  0.4819078E+02  0.7610078E+04  0.1278962E+05  0.4999582E+00 -0.7565680E+01  0.9260530E+03  0.1789229E+04 -0.1443672E+02 -0.9223539E+01  0.1596548E+01  0.2804500E-01  0.1573339E+03  0.4798612E+02  0.9331225E+04  0.7233027E+04  0.1633332E+00 -0.1083253E+02
  0.7000000E+00 -0.1762918E+04 -0.4876034E+04  0.2607217E+02 -0.1143045E+02 -0.1534473E+02  0.2640978E+02 -0.7321241E+01  0.3193188E+02  0.7610078E+04  0.3425214E+04  0.4999582E+00 -0.8899559E+01  0.9260530E+03  0.8766044E+03 -0.1443672E+02 -0.9572495E+01  0.1596548E+01 -0.7330824E+00  0.1573339E+03  0.4712796E+02  0.9331225E+04  0.2299698E+04  0.1633332E+00 -0.2190400E+01 -0.1762918E+04 -0.4876034E+04  0.2607217E+02 -0.1143045E+02 -0.1534473E+02  0.2640978E+02 -0.7321241E+01  0.3193188E+02  0.7610078E+04  0.3425214E+04  0.4999582E+00 -0.8899559E+01  0.9260530E+03  0.8766044E+03 -0.1443672E+02 -0.9572495E+01  0.1596548E+01 -0.7330824E+00  0.1573339E+03  0.4712796E+02  0.9331225E+04  0.2299698E+04  0.1633332E+00 -0.2190400E+01 -0.1762918E+04 -0.4876034E+04  0.2607217E+02 -0.1143045E+02 -0.1534473E+02  0.2640978E+02 -0.7321241E+01  0.3193188E+02  0.7610078E+04  0.3425214E+04  0.4999582E+00 -0.8899559E+01  0.9260530E+03  0.8766044E+03 -0.1443672E+02 -0.9572495E+01  0.1596548E+01 -0.7330824E+00  0.1573339E+03  0.4712796E+02  0.9331225E+04  0.2299698E+04  0.1633332E+00 -0.2190400E+01
  0.8000000E+00 -0.1762918E+04 -0.5272768E+04  0.2607217E+02 -0.8178482E+01 -0.1534473E+02  0.3406007E+02 -0.7321241E+01  0.1375013E+02  0.7610078E+04 -0.6363339E+04  0.4999582E+00 -0.8492601E+01  0.9260530E+03 -0.3090348E+02 -0.1443672E+02 -0.8894940E+01  0.1596548E+01 -0.1269958E+01  0.1573339E+03  0.4138223E+02  0.9331225E+04 -0.2496815E+04  0.1633332E+00  0.6103373E+01 -0.1762918E+04 -0.5272768E+04  0.2607217E+02 -0.8178482E+01 -0.1534473E+02  0.3406007E+02 -0.7321241E+01  0.1375013E+02  0.7610078E+04 -0.6363339E+04  0.4999582E+00 -0.8492601E+01  0.9260530E+03 -0.3090348E+02 -0.1443672E+02 -0.8894940E+01  0.1596548E+01 -0.1269958E+01  0.1573339E+03  0.4138223E+02  0.9331225E+04 -0.2496815E+04  0.1633332E+00  0.6103373E+01 -0.1762918E+04 -0.5272768E+04  0.2607217E+02 -0.8178482E+01 -0.1534473E+02  0.3406007E+02 -0.7321241E+01  0.1375013E+02  0.7610078E+04 -0.6363339E+04  0.4999582E+00 -0.8492601E+01  0.9260530E+03 -0.3090348E+02 -0.1443672E+02 -0.8894940E+01  0.1596548E+01 -0.1269958E+01  0.1573339E+03  0.4138223E+02  0.9331225E+04 -0.2496815E+04  0.1633332E+00  0.6103373E+01
  0.9000000E+00 -0.1762918E+04 -0.4874027E+04  0.2607217E+02 -0.3384343E+01 -0.1534473E+02  0.3627310E+02 -0.7321241E+01 -0.5452858E+01  0.7610078E+04 -0.1567334E+05  0.4999582E+00 -0.6720087E+01  0.9260530E+03 -0.8846370E+03 -0.1443672E+02 -0.7258466E+01  0.1596548E+01 -0.1561922E+01  0.1573339E+03  0.3113154E+02  0.9331225E+04 -0.6890533E+04  0.1633332E+00  0.1355919E+02 -0.1762918E+04 -0.4874027E+04  0.2607217E+02 -0.3384343E+01 -0.1534473E+02  0.3627310E+02 -0.7321241E+01 -0.5452858E+01  0.7610078E+04 -0.1567334E+05  0.4999582E+00 -0.6720087E+01  0.9260530E+03 -0.8846370E+03 -0.1443672E+02 -0.7258466E+01  0.1596548E+01 -0.1561922E+01  0.1573339E+03  0.3113154E+02  0.9331225E+04 -0.6890533E+04  0.1633332E+00  0.1355919E+02 -0.1762918E+04 -0.4874027E+04  0.2607217E+02 -0.3384343E+01 -0.1534473E+02  0.3627310E+02 -0.7321241E+01 -0.5452858E+01  0.7610078E+04 -0.1567334E+05  0.4999582E+00 -0.6720087E+01  0.9260530E+03 -0.8846370E+03 -0.1443672E+02 -0.7258466E+01  0.1596548E+01 -0.1561922E+01  0.1573339E+03  0.3113154E+02  0.9331225E+04 -0.6890533E+04  0.1633332E+00  0.1355919E+02
  0.1000000E+01 -0.1762918E+04 -0.3959021E+04  0.2607217E+02  0.2130084E+01 -0.1534473E+02  0.3369579E+02 -0.7321241E+01 -0.2462936E+02  0.7610078E+04 -0.2357732E+05  0.4999582E+00 -0.4208490E+01  0.9260530E+03 -0.1640848E+04 -0.1443672E+02 -0.4872842E+01  0.1596548E+01 -0.1625483E+01  0.1573339E+03  0.1742567E+02  0.9331225E+04 -0.1065430E+05  0.1633332E+00  0.1976936E+02 -0.1762918E+04 -0.3959021E+04  0.2607217E+02  0.2130084E+01 -0.1534473E+02  0.3369579E+02 -0.7321241E+01 -0.2462936E+02  0.7610078E+04 -0.2357732E+05  0.4999582E+00 -0.4208490E+01  0.9260530E+03 -0.1640848E+04 -0.1443672E+02 -0.4872842E+01  0.1596548E+01 -0.1625483E+01  0.1573339E+03  0.1742567E+02  0.9331225E+04 -0.1065430E+05  0.1633332E+00  0.1976936E+02 -0.1762918E+04 -0.3959021E+04  0.2607217E+02  0.2130084E+01 -0.1534473E+02  0.3369579E+02 -0.7321241E+01 -0.2462936E+02  0.7610078E+04 -0.2357732E+05  0.4999582E+00 -0.4208490E+01  0.9260530E+03 -0.1640848E+04 -0.1443672E+02 -0.4872842E+01  0.1596548E+01 -0.1625483E+01  0.1573339E+03  0.1742567E+02  0.9331225E+04 -0.1065430E+05  0.1633332E+00  0.1976936E+02
  0.1100000E+01 -0.1762918E+04 -0.2857658E+04  0.2607217E+02  0.7431965E+01 -0.1534473E+02  0.2761358E+02 -0.7321241E+01 -0.4272770E+02  0.7610078E+04 -0.2930081E+05  0.4999582E+00 -0.1653534E+01  0.9260530E+03 -0.2264702E+04 -0.1443672E+02 -0.2035358E+01  0.1596548E+01 -0.1506059E+01  0.1573339E+03  0.1735207E+01  0.9331225E+04 -0.1361812E+05  0.1633332E+00  0.2444423E+02 -0.1762918E+04 -0.2857658E+04  0.2607217E+02  0.7431965E+01 -0.1534473E+02  0.2761358E+02 -0.7321241E+01 -0.4272770E+02  0.7610078E+04 -0.2930081E+05  0.4999582E+00 -0.1653534E+01  0.9260530E+03 -0.2264702E+04 -0.1443672E+02 -0.2035358E+01  0.1596548E+01 -0.1506059E+01  0.1573339E+03  0.1735207E+01  0.9331225E+04 -0.1361812E+05  0.1633332E+00  0.2444423E+02 -0.1762918E+04 -0.2857658E+04  0.2607217E+02  0.7431965E+01 -0.1534473E+02  0.2761358E+02 -0.7321241E+01 -0.4272770E+02  0.7610078E+04 -0.2930081E+05  0.4999582E+00 -0.1653534E+01  0.9260530E+03 -0.2264702E+04 -0.1443672E+02 -0.2035358E+01  0.1596548E+01 -0.1506059E+01  0.1573339E+03  0.1735207E+01  0.9331225E+04 -0.1361812E+05  0.1633332E+00  0.2444423E+02
  0.1200000E+01 -0.1762918E+04 -0.1862040E+04  0.2607217E+02  0.1168638E+02 -0.1534473E+02  0.1963970E+02 -0.7321241E+01 -0.5881891E+02  0.7610078E+04 -0.3237397E+05  0.4999582E+00  0.3611484E+00  0.9260530E+03 -0.2733321E+04 -0.1443672E+02  0.9330198E+00  0.1596548E+01 -0.1265874E+01  0.1573339E+03 -0.1434013E+02  0.9331225E+04 -0.1568149E+05  0.1633332E+00  0.2743491E+02 -0.1762918E+04 -0.1862040E+04  0.2607217E+02  0.1168638E+02 -0.1534473E+02  0.1963970E+02 -0.7321241E+01 -0.5881891E+02  0.7610078E+04 -0.3237397E+05  0.4999582E+00  0.3611484E+00  0.9260530E+03 -0.2733321E+04 -0.1443672E+02  0.9330198E+00  0.1596548E+01 -0.1265874E+01  0.1573339E+03 -0.1434013E+02  0.9331225E+04 -0.1568149E+05  0.1633332E+00  0.2743491E+02 -0.1762918E+04 -0.1862040E+04  0.2607217E+02  0.1168638E+02 -0.1534473E+02  0.1963970E+02 -0.7321241E+01 -0.5881891E+02  0.7610078E+04 -0.3237397E+05  0.4999582E+00  0.3611484E+00  0.9260530E+03 -0.2733321E+04 -0.1443672E+02  0.9330198E+00  0.1596548E+01 -0.1265874E+01  0.1573339E+03 -0.1434013E+02  0.9331225E+04 -0.1568149E+05  0.1633332E+00  0.2743491E+02
  0.1300000E+01 -0.1762918E+04 -0.1159739E+04  0.2607217E+02  0.1432556E+02 -0.1534473E+02  0.1138404E+02 -0.7321241E+01 -0.7217787E+02  0.7610078E+04 -0.3271773E+05  0.4999582E+00  0.1496422E+01  0.9260530E+03 -0.3037334E+04 -0.1443672E+02  0.3744987E+01  0.1596548E+01 -0.9708751E+00  0.1573339E+03 -0.2933928E+02  0.9331225E+04 -0.1681786E+05  0.1633332E+00  0.2873882E+02 -0.1762918E+04 -0.1159739E+04  0.2607217E+02  0.1432556E+02 -0.1534473E+02  0.1138404E+02 -0.7321241E+01 -0.7217787E+02  0.7610078E+04 -0.3271773E+05  0.4999582E+00  0.1496422E+01  0.9260530E+03 -0.3037334E+04 -0.1443672E+02  0.3744987E+01  0.1596548E+01 -0.9708751E+00  0.1573339E+03 -0.2933928E+02  0.9331225E+04 -0.1681786E+05  0.1633332E+00  0.2873882E+02 -0.1762918E+04 -0.1159739E+04  0.2607217E+02  0.1432556E+02 -0.1534473E+02  0.1138404E+02 -0.7321241E+01 -0.7217787E+02  0.7610078E+04 -0.3271773E+05  0.4999582E+00  0.1496422E+01  0.9260530E+03 -0.3037334E+04 -0.1443672E+02  0.3744987E+01  0.1596548E+01 -0.9708751E+00  0.1573339E+03 -0.2933928E+02  0.9331225E+04 -0.1681786E+05  0.1633332E+00  0.2873882E+02
  0.1400000E+01 -0.1762918E+04 -0.8044755E+03  0.2607217E+02  0.1514038E+02 -0.1534473E+02  0.4170314E+01 -0.7321241E+01 -0.8230681E+02  0.7610078E+04 -0.3064294E+05  0.4999582E+00  0.1709743E+01  0.9260530E+03 -0.3180617E+04 -0.1443672E+02  0.6185743E+01  0.1596548E+01 -0.6793513E+00  0.1573339E+03 -0.4212921E+02  0.9331225E+04 -0.1707046E+05  0.1633332E+00  0.2848696E+02 -0.1762918E+04 -0.8044755E+03  0.2607217E+02  0.1514038E+02 -0.1534473E+02  0.4170314E+01 -0.7321241E+01 -0.8230681E+02  0.7610078E+04 -0.3064294E+05  0.4999582E+00  0.1709743E+01  0.9260530E+03 -0.3180617E+04 -0.1443672E+02  0.6185743E+01  0.1596548E+01 -0.6793513E+00  0.1573339E+03 -0.4212921E+02  0.9331225E+04 -0.1707046E+05  0.1633332E+00  0.2848696E+02 -0.1762918E+04 -0.8044755E+03  0.2607217E+02  0.1514038E+02 -0.1534473E+02  0.4170314E+01 -0.7321241E+01 -0.8230681E+02  0.7610078E+04 -0.3064294E+05  0.4999582E+00  0.1709743E+01  0.9260530E+03 -0.3180617E+04 -0.1443672E+02  0.6185743E+01  0.1596548E+01 -0.6793513E+00  0.1573339E+03 -0.4212921E+02  0.9331225E+04 -0.1707046E+05  0.1633332E+00  0.2848696E+02
  0.1500000E+01 -0.1762918E+04 -0.7279880E+03  0.2607217E+02  0.1427913E+02 -0.1534473E+02 -0.1147720E+01 -0.7321241E+01 -0.8890822E+02  0.7610078E+04 -0.2676449E+05  0.4999582E+00  0.1220436E+01  0.9260530E+03 -0.3178361E+04 -0.1443672E+02  0.8127866E+01  0.1596548E+01 -0.4342047E+00  0.1573339E+03 -0.5199013E+02  0.9331225E+04 -0.1654046E+05  0.1633332E+00  0.2691517E+02 -0.1762918E+04 -0.7279880E+03  0.2607217E+02  0.1427913E+02 -0.1534473E+02 -0.1147720E+01 -0.7321241E+01 -0.8890822E+02  0.7610078E+04 -0.2676449E+05  0.4999582E+00  0.1220436E+01  0.9260530E+03 -0.3178361E+04 -0.1443672E+02  0.8127866E+01  0.1596548E+01 -0.4342047E+00  0.1573339E+03 -0.5199013E+02  0.9331225E+04 -0.1654046E+05  0.1633332E+00  0.2691517E+02 -0.1762918E+04 -0.7279880E+03  0.2607217E+02  0.1427913E+02 -0.1534473E+02 -0.1147720E+01 -0.7321241E+01 -0.8890822E+02  0.7610078E+04 -0.2676449E+05  0.4999582E+00  0.1220436E+01  0.9260530E+03 -0.3178361E+04 -0.1443672E+02  0.8127866E+01  0.1596548E+01 -0.4342047E+00  0.1573339E+03 -0.5199013E+02  0.9331225E+04 -0.1654046E+05  0.1633332E+00  0.2691517E+02
  0.1600000E+01 -0.1762918E+04 -0.7849069E+03  0.2607217E+02  0.1216352E+02 -0.1534473E+02 -0.4246774E+01 -0.7321241E+01 -0.9183179E+02  0.7610078E+04 -0.2185511E+05  0.4999582E+00  0.4065904E+00  0.9260530E+03 -0.3053820E+04 -0.1443672E+02  0.9523816E+01  0.1596548E+01 -0.2597170E+00  0.1573339E+03 -0.5860128E+02  0.9331225E+04 -0.1536952E+05  0.1633332E+00  0.2432498E+02 -0.1762918E+04 -0.7849069E+03  0.2607217E+02  0.1216352E+02 -0.1534473E+02 -0.4246774E+01 -0.7321241E+01 -0.9183179E+02  0.7610078E+04 -0.2185511E+05  0.4999582E+00  0.4065904E+00  0.9260530E+03 -0.3053820E+04 -0.1443672E+02  0.9523816E+01  0.1596548E+01 -0.2597170E+00  0.1573339E+03 -0.5860128E+02  0.9331225E+04 -0.1536952E+05  0.1633332E+00  0.2432498E+02 -0.1762918E+04 -0.7849069E+03  0.2607217E+02  0.1216352E+02 -0.1534473E+02 -0.4246774E+01 -0.7321241E+01 -0.9183179E+02  0.7610078E+04 -0.2185511E+05  0.4999582E+00  0.4065904E+00  0.9260530E+03 -0.3053820E+04 -0.1443672E+02  0.9523816E+01  0.1596548E+01 -0.2597170E+00  0.1573339E+03 -0.5860128E+02  0.9331225E+04 -0.1536952E+05  0.1633332E+00  0.2432498E+02
  0.1700000E+01 -0.1762918E+04 -0.8137438E+03  0.2607217E+02  0.9352559E+01 -0.1534473E+02 -0.5277838E+01 -0.7321241E+01 -0.9102464E+02  0.7610078E+04 -0.1667845E+05  0.4999582E+00 -0.3301175E+00  0.9260530E+03 -0.2834465E+04 -0.1443672E+02  0.1038337E+02  0.1596548E+01 -0.1625402E+00  0.1573339E+03 -0.6195692E+02  0.9331225E+04 -0.1371982E+05  0.1633332E+00  0.2104105E+02 -0.1762918E+04 -0.8137438E+03  0.2607217E+02  0.9352559E+01 -0.1534473E+02 -0.5277838E+01 -0.7321241E+01 -0.9102464E+02  0.7610078E+04 -0.1667845E+05  0.4999582E+00 -0.3301175E+00  0.9260530E+03 -0.2834465E+04 -0.1443672E+02  0.1038337E+02  0.1596548E+01 -0.1625402E+00  0.1573339E+03 -0.6195692E+02  0.9331225E+04 -0.1371982E+05  0.1633332E+00  0.2104105E+02 -0.1762918E+04 -0.8137438E+03  0.2607217E+02  0.9352559E+01 -0.1534473E+02 -0.5277838E+01 -0.7321241E+01 -0.9102464E+02  0.7610078E+04 -0.1667845E+05  0.4999582E+00 -0.3301175E+00  0.9260530E+03 -0.2834465E+04 -0.1443672E+02  0.1038337E+02  0.1596548E+01 -0.1625402E+00  0.1573339E+03 -0.6195692E+02  0.9331225E+04 -0.1371982E+05  0.1633332E+00  0.2104105E+02
  0.1800000E+01 -0.1762918E+04 -0.6940964E+03  0.2607217E+02  0.6395234E+01 -0.1534473E+02 -0.4724041E+01 -0.7321241E+01 -0.8651131E+02  0.7610078E+04 -0.1184413E+05  0.4999582E+00 -0.6892958E+00  0.9260530E+03 -0.2548235E+04 -0.1443672E+02  0.1074613E+02  0.1596548E+01 -0.1357681E+00  0.1573339E+03 -0.6225455E+02  0.9331225E+04 -0.1175490E+05  0.1633332E+00  0.1737281E+02 -0.1762918E+04 -0.6940964E+03  0.2607217E+02  0.6395234E+01 -0.1534473E+02 -0.4724041E+01 -0.7321241E+01 -0.8651131E+02  0.7610078E+04 -0.1184413E+05  0.4999582E+00 -0.6892958E+00  0.9260530E+03 -0.2548235E+04 -0.1443672E+02  0.1074613E+02  0.1596548E+01 -0.1357681E+00  0.1573339E+03 -0.6225455E+02  0.9331225E+04 -0.1175490E+05  0.1633332E+00  0.1737281E+02 -0.1762918E+04 -0.6940964E+03  0.2607217E+02  0.6395234E+01 -0.1534473E+02 -0.4724041E+01 -0.7321241E+01 -0.8651131E+02  0.7610078E+04 -0.1184413E+05  0.4999582E+00 -0.6892958E+00  0.9260530E+03 -0.2548235E+04 -0.1443672E+02  0.1074613E+02  0.1596548E+01 -0.1357681E+00  0.1573339E+03 -0.6225455E+02  0.9331225E+04 -0.1175490E+05  0.1633332E+00  0.1737281E+02
  0.1900000E+01 -0.1762918E+04 -0.3832251E+03  0.2607217E+02  0.3711203E+01 -0.1534473E+02 -0.3218672E+01 -0.7321241E+01 -0.7841434E+02  0.7610078E+04 -0.7718653E+04  0.4999582E+00 -0.5508501E+00  0.9260530E+03 -0.2220543E+04 -0.1443672E+02  0.1065860E+02  0.1596548E+01 -0.1644582E+00  0.1573339E+03 -0.5979518E+02  0.9331225E+04 -0.9624148E+04  0.1633332E+00  0.1358565E+02 -0.1762918E+04 -0.3832251E+03  0.2607217E+02  0.3711203E+01 -0.1534473E+02 -0.3218672E+01 -0.7321241E+01 -0.7841434E+02  0.7610078E+04 -0.7718653E+04  0.4999582E+00 -0.5508501E+00  0.9260530E+03 -0.2220543E+04 -0.1443672E+02  0.1065860E+02  0.1596548E+01 -0.1644582E+00  0.1573339E+03 -0.5979518E+02  0.9331225E+04 -0.9624148E+04  0.1633332E+00  0.1358565E+02 -0.1762918E+04 -0.3832251E+03  0.2607217E+02  0.3711203E+01 -0.1534473E+02 -0.3218672E+01 -0.7321241E+01 -0.7841434E+02  0.7610078E+04 -0.7718653E+04  0.4999582E+00 -0.5508501E+00  0.9260530E+03 -0.2220543E+04 -0.1443672E+02  0.1065860E+02  0.1596548E+01 -0.1644582E+00  0.1573339E+03 -0.5979518E+02  0.9331225E+04 -0.9624148E+04  0.1633332E+00  0.1358565E+02
  0.2000000E+01 -0.1762918E+04  0.7700126E+02  0.2607217E+02  0.1526606E+01 -0.1534473E+02 -0.1371373E+01 -0.7321241E+01 -0.6700742E+02  0.7610078E+04 -0.4408802E+04  0.4999582E+00  0.1061650E-01  0.9260530E+03 -0.1872449E+04 -0.1443672E+02  0.1016203E+02  0.1596548E+01 -0.2310062E+00  0.1573339E+03 -0.5492172E+02  0.9331225E+04 -0.7452770E+04  0.1633332E+00  0.9885560E+01 -0.1762918E+04  0.7700126E+02  0.2607217E+02  0.1526606E+01 -0.1534473E+02 -0.1371373E+01 -0.7321241E+01 -0.6700742E+02  0.7610078E+04 -0.4408802E+04  0.4999582E+00  0.1061650E-01  0.9260530E+03 -0.1872449E+04 -0.1443672E+02  0.1016203E+02  0.1596548E+01 -0.2310062E+00  0.1573339E+03 -0.5492172E+02  0.9331225E+04 -0.7452770E+04  0.1633332E+00  0.9885560E+01 -0.1762918E+04  0.7700126E+02  0.2607217E+02  0.1526606E+01 -0.1534473E+02 -0.1371373E+01 -0.7321241E+01 -0.6700742E+02  0.7610078E+04 -0.4408802E+04  0.4999582E+00  0.1061650E-01  0.9260530E+03 -0.1872449E+04 -0.1443672E+02  0.1016203E+02  0.1596548E+01 -0.2310062E+00  0.1573339E+03 -0.5492172E+02  0.9331225E+04 -0.7452770E+04  0.1633332E+00  0.9885560E+01
  0.2100000E+01 -0.1762918E+04  0.5818435E+03  0.2607217E+02 -0.1264074E+00 -0.1534473E+02  0.3589728E+00 -0.7321241E+01 -0.5277813E+02  0.7610078E+04 -0.1812492E+04  0.4999582E+00  0.7737296E+00  0.9260530E+03 -0.1520065E+04 -0.1443672E+02  0.9292383E+01  0.1596548E+01 -0.3191611E+00  0.1573339E+03 -0.4800195E+02  0.9331225E+04 -0.5337661E+04  0.1633332E+00  0.6416791E+01 -0.1762918E+04  0.5818435E+03  0.2607217E+02 -0.1264074E+00 -0.1534473E+02  0.3589728E+00 -0.7321241E+01 -0.5277813E+02  0.7610078E+04 -0.1812492E+04  0.4999582E+00  0.7737296E+00  0.9260530E+03 -0.1520065E+04 -0.1443672E+02  0.9292383E+01  0.1596548E+01 -0.3191611E+00  0.1573339E+03 -0.4800195E+02  0.9331225E+04 -0.5337661E+04  0.1633332E+00  0.6416791E+01 -0.1762918E+04  0.5818435E+03  0.2607217E+02 -0.1264074E+00 -0.1534473E+02  0.3589728E+00 -0.7321241E+01 -0.5277813E+02  0.7610078E+04 -0.1812492E+04  0.4999582E+00  0.7737296E+00  0.9260530E+03 -0.1520065E+04 -0.1443672E+02  0.9292383E+01  0.1596548E+01 -0.3191611E+00  0.1573339E+03 -0.4800195E+02  0.9331225E+04 -0.5337661E+04  0.1633332E+00  0.6416791E+01
  0.2200000E+01 -0.1762918E+04  0.1004404E+04  0.2607217E+02 -0.1356859E+01 -0.1534473E+02  0.1723710E+01 -0.7321241E+01 -0.3646865E+02  0.7610078E+04  0.2857690E+03  0.4999582E+00  0.1459592E+01  0.9260530E+03 -0.1175020E+04 -0.1443672E+02  0.8089235E+01  0.1596548E+01 -0.4161178E+00  0.1573339E+03 -0.3944392E+02  0.9331225E+04 -0.3348527E+04  0.1633332E+00  0.3269958E+01 -0.1762918E+04  0.1004404E+04  0.2607217E+02 -0.1356859E+01 -0.1534473E+02  0.1723710E+01 -0.7321241E+01 -0.3646865E+02  0.7610078E+04  0.2857690E+03  0.4999582E+00  0.1459592E+01  0.9260530E+03 -0.1175020E+04 -0.1443672E+02  0.8089235E+01  0.1596548E+01 -0.4161178E+00  0.1573339E+03 -0.3944392E+02  0.9331225E+04 -0.3348527E+04  0.1633332E+00  0.3269958E+01 -0.1762918E+04  0.1004404E+04  0.2607217E+02 -0.1356859E+01 -0.1534473E+02  0.1723710E+01 -0.7321241E+01 -0.3646865E+02  0.7610078E+04  0.2857690E+03  0.4999582E+00  0.1459592E+01  0.9260530E+03 -0.1175020E+04 -0.1443672E+02  0.8089235E+01  0.1596548E+01 -0.4161178E+00  0.1573339E+03 -0.3944392E+02  0.9331225E+04 -0.3348527E+04  0.1633332E+00  0.3269958E+01
  0.2300000E+01 -0.1762918E+04  0.1240488E+04  0.2607217E+02 -0.2332856E+01 -0.1534473E+02  0.2675611E+01 -0.7321241E+01 -0.1906556E+02  0.7610078E+04  0.2107882E+04  0.4999582E+00  0.1830556E+01  0.9260530E+03 -0.8455618E+03 -0.1443672E+02  0.6607556E+01  0.1596548E+01 -0.5127701E+00  0.1573339E+03 -0.2972037E+02  0.9331225E+04 -0.1532442E+04  0.1633332E+00  0.4959109E+00 -0.1762918E+04  0.1240488E+04  0.2607217E+02 -0.2332856E+01 -0.1534473E+02  0.2675611E+01 -0.7321241E+01 -0.1906556E+02  0.7610078E+04  0.2107882E+04  0.4999582E+00  0.1830556E+01  0.9260530E+03 -0.8455618E+03 -0.1443672E+02  0.6607556E+01  0.1596548E+01 -0.5127701E+00  0.1573339E+03 -0.2972037E+02  0.9331225E+04 -0.1532442E+04  0.1633332E+00  0.4959109E+00 -0.1762918E+04  0.1240488E+04  0.2607217E+02 -0.2332856E+01 -0.1534473E+02  0.2675611E+01 -0.7321241E+01 -0.1906556E+02  0.7610078E+04  0.2107882E+04  0.4999582E+00  0.1830556E+01  0.9260530E+03 -0.8455618E+03 -0.1443672E+02  0.6607556E+01  0.1596548E+01 -0.5127701E+00  0.1573339E+03 -0.2972037E+02  0.9331225E+04 -0.1532442E+04  0.1633332E+00  0.4959109E+00
  0.2400000E+01 -0.1762918E+04  0.1242706E+04  0.2607217E+02 -0.3199649E+01 -0.1534473E+02  0.3308604E+01 -0.7321241E+01 -0.1725955E+01  0.7610078E+04  0.3796318E+04  0.4999582E+00  0.1766463E+01  0.9260530E+03 -0.5378214E+03 -0.1443672E+02  0.4925770E+01  0.1596548E+01 -0.6027099E+00  0.1573339E+03 -0.1937828E+02  0.9331225E+04  0.8017731E+02  0.1633332E+00 -0.1879428E+01 -0.1762918E+04  0.1242706E+04  0.2607217E+02 -0.3199649E+01 -0.1534473E+02  0.3308604E+01 -0.7321241E+01 -0.1725955E+01  0.7610078E+04  0.3796318E+04  0.4999582E+00  0.1766463E+01  0.9260530E+03 -0.5378214E+03 -0.1443672E+02  0.4925770E+01  0.1596548E+01 -0.6027099E+00  0.1573339E+03 -0.1937828E+02  0.9331225E+04  0.8017731E+02  0.1633332E+00 -0.1879428E+01 -0.1762918E+04  0.1242706E+04  0.2607217E+02 -0.3199649E+01 -0.1534473E+02  0.3308604E+01 -0.7321241E+01 -0.1725955E+01  0.7610078E+04  0.3796318E+04  0.4999582E+00  0.1766463E+01  0.9260530E+03 -0.5378214E+03 -0.1443672E+02  0.4925770E+01  0.1596548E+01 -0.6027099E+00  0.1573339E+03 -0.1937828E+02  0.9331225E+04  0.8017731E+02  0.1633332E+00 -0.1879428E+01
  0.2500000E+01 -0.1762918E+04  0.1033574E+04  0.2607217E+02 -0.4023205E+01 -0.1534473E+02  0.3773304E+01 -0.7321241E+01  0.1435433E+02  0.7610078E+04  0.5372248E+04  0.4999582E+00  0.1296124E+01  0.9260530E+03 -0.2568133E+03 -0.1443672E+02  0.3145640E+01  0.1596548E+01 -0.6807752E+00  0.1573339E+03 -0.9017734E+01  0.9331225E+04  0.1470083E+04  0.1633332E+00 -0.3843593E+01 -0.1762918E+04  0.1033574E+04  0.2607217E+02 -0.4023205E+01 -0.1534473E+02  0.3773304E+01 -0.7321241E+01  0.1435433E+02  0.7610078E+04  0.5372248E+04  0.4999582E+00  0.1296124E+01  0.9260530E+03 -0.2568133E+03 -0.1443672E+02  0.3145640E+01  0.1596548E+01 -0.6807752E+00  0.1573339E+03 -0.9017734E+01  0.9331225E+04  0.1470083E+04  0.1633332E+00 -0.3843593E+01 -0.1762918E+04  0.1033574E+04  0.2607217E+02 -0.4023205E+01 -0.1534473E+02  0.3773304E+01 -0.7321241E+01  0.1435433E+02  0.7610078E+04  0.5372248E+04  0.4999582E+00  0.1296124E+01  0.9260530E+03 -0.2568133E+03 -0.1443672E+02  0.3145640E+01  0.1596548E+01 -0.6807752E+00  0.1573339E+03 -0.9017734E+01  0.9331225E+04  0.1470083E+04  0.1633332E+00 -0.3843593E+01
  0.2600000E+01 -0.1762918E+04  0.6948604E+03  0.2607217E+02 -0.4773438E+01 -0.1534473E+02  0.4197439E+01 -0.7321241E+01  0.2810453E+02  0.7610078E+04  0.6744627E+04  0.4999582E+00  0.5776534E+00  0.9260530E+03 -0.6930964E+01 -0.1443672E+02  0.1382702E+01  0.1596548E+01 -0.7419180E+00  0.1573339E+03  0.7614296E+00  0.9331225E+04  0.2625542E+04  0.1633332E+00 -0.5391565E+01 -0.1762918E+04  0.6948604E+03  0.2607217E+02 -0.4773438E+01 -0.1534473E+02  0.4197439E+01 -0.7321241E+01  0.2810453E+02  0.7610078E+04  0.6744627E+04  0.4999582E+00  0.5776534E+00  0.9260530E+03 -0.6930964E+01 -0.1443672E+02  0.1382702E+01  0.1596548E+01 -0.7419180E+00  0.1573339E+03  0.7614296E+00  0.9331225E+04  0.2625542E+04  0.1633332E+00 -0.5391565E+01 -0.1762918E+04  0.6948604E+03  0.2607217E+02 -0.4773438E+01 -0.1534473E+02  0.4197439E+01 -0.7321241E+01  0.2810453E+02  0.7610078E+04  0.6744627E+04  0.4999582E+00  0.5776534E+00  0.9260530E+03 -0.6930964E+01 -0.1443672E+02  0.1382702E+01  0.1596548E+01 -0.7419180E+00  0.1573339E+03  0.7614296E+00  0.9331225E+04  0.2625542E+04  0.1633332E+00 -0.5391565E+01