 VARIABLES="X" "Y" "Z" "abs(p) (Pa)" "angle(p) (rad)"
ZONE N=   2709,E =    2358, F=FEPOINT, ET=QUADRILATERAL
   0.00000000      -5.48999977     -0.157000005       4559.10693      -1.28454697    
   0.00000000      -4.76741982     -0.246999994       4559.10693      -1.28454697    
  0.930077016      -4.67581606     -0.246999994       4559.10693      -1.28454697    
   1.07104599      -5.38451099     -0.157000005       4559.10693      -1.28454697    
  -1.07104599      -5.38451099     -0.157000005       4562.19287      -1.28487825    
 -0.930077016      -4.67581606     -0.246999994       4562.19287      -1.28487825    
   0.00000000      -4.76741982     -0.246999994       4562.19287      -1.28487825    
   0.00000000      -5.48999977     -0.157000005       4562.19287      -1.28487825    
  -2.10093188      -5.07209921     -0.157000005       4416.51611      -1.28840816    
  -1.82441294      -4.40452194     -0.246999994       4416.51611      -1.28840816    
 -0.930077016      -4.67581606     -0.246999994       4416.51611      -1.28840816    
  -1.07104599      -5.38451099     -0.157000005       4416.51611      -1.28840816    
  -3.05008101      -4.56476784     -0.157000005       4045.69531      -1.28523469    
  -2.64863706      -3.96396494     -0.246999994       4045.69531      -1.28523469    
  -1.82441294      -4.40452194     -0.246999994       4045.69531      -1.28523469    
  -2.10093188      -5.07209921     -0.157000005       4045.69531      -1.28523469    
  -3.88201594      -3.88201594     -0.157000005       3547.37891      -1.28532064    
  -3.37107491      -3.37107491     -0.246999994       3547.37891      -1.28532064    
  -2.64863706      -3.96396494     -0.246999994       3547.37891      -1.28532064    
  -3.05008101      -4.56476784     -0.157000005       3547.37891      -1.28532064    
  -4.56476784      -3.05008101     -0.157000005       2938.72998      -1.29012215    
  -3.96396494      -2.64863706     -0.246999994       2938.72998      -1.29012215    
  -3.37107491      -3.37107491     -0.246999994       2938.72998      -1.29012215    
  -3.88201594      -3.88201594     -0.157000005       2938.72998      -1.29012215    
  -5.07209921      -2.10093188     -0.157000005       2167.52612      -1.28649104    
  -4.40452194      -1.82441294     -0.246999994       2167.52612      -1.28649104    
  -3.96396494      -2.64863706     -0.246999994       2167.52612      -1.28649104    
  -4.56476784      -3.05008101     -0.157000005       2167.52612      -1.28649104    
  -5.38451099      -1.07104599     -0.157000005       1329.13806      -1.28499675    
  -4.67581606     -0.930077016     -0.246999994       1329.13806      -1.28499675    
  -4.40452194      -1.82441294     -0.246999994       1329.13806      -1.28499675    
  -5.07209921      -2.10093188     -0.157000005       1329.13806      -1.28499675    
  -5.48999977       0.00000000     -0.157000005       446.585114      -1.28570294    
  -4.76741982       0.00000000     -0.246999994       446.585114      -1.28570294    
  -4.67581606     -0.930077016     -0.246999994       446.585114      -1.28570294    
  -5.38451099      -1.07104599     -0.157000005       446.585114      -1.28570294    
  -5.38451099       1.07104599     -0.157000005       460.184662       1.84951365    
  -4.67581606      0.930077016     -0.246999994       460.184662       1.84951365    
  -4.76741982       0.00000000     -0.246999994       460.184662       1.84951365    
  -5.48999977       0.00000000     -0.157000005       460.184662       1.84951365    
  -5.07209921       2.10093188     -0.157000005       1350.34680       1.85148132    
  -4.40452194       1.82441294     -0.246999994       1350.34680       1.85148132    
  -4.67581606      0.930077016     -0.246999994       1350.34680       1.85148132    
  -5.38451099       1.07104599     -0.157000005       1350.34680       1.85148132    
  -4.56476784       3.05008101     -0.157000005       2187.02661       1.85252571    
  -3.96396494       2.64863706     -0.246999994       2187.02661       1.85252571    
  -4.40452194       1.82441294     -0.246999994       2187.02661       1.85252571    
  -5.07209921       2.10093188     -0.157000005       2187.02661       1.85252571    
  -3.88201594       3.88201594     -0.157000005       2921.07593       1.85634446    
  -3.37107491       3.37107491     -0.246999994       2921.07593       1.85634446    
  -3.96396494       2.64863706     -0.246999994       2921.07593       1.85634446    
  -4.56476784       3.05008101     -0.157000005       2921.07593       1.85634446    
  -3.05008101       4.56476784     -0.157000005       3578.17700       1.85343134    
  -2.64863706       3.96396494     -0.246999994       3578.17700       1.85343134    
  -3.37107491       3.37107491     -0.246999994       3578.17700       1.85343134    
  -3.88201594       3.88201594     -0.157000005       3578.17700       1.85343134    
  -2.10093188       5.07209921     -0.157000005       4055.65088       1.85668397    
  -1.82441294       4.40452194     -0.246999994       4055.65088       1.85668397    
  -2.64863706       3.96396494     -0.246999994       4055.65088       1.85668397    
  -3.05008101       4.56476784     -0.157000005       4055.65088       1.85668397    
  -1.07104599       5.38451099     -0.157000005       4425.06201       1.85375643    
 -0.930077016       4.67581606     -0.246999994       4425.06201       1.85375643    
  -1.82441294       4.40452194     -0.246999994       4425.06201       1.85375643    
  -2.10093188       5.07209921     -0.157000005       4425.06201       1.85375643    
   0.00000000       5.48999977     -0.157000005       4574.41504       1.85693586    
   0.00000000       4.76741982     -0.246999994       4574.41504       1.85693586    
 -0.930077016       4.67581606     -0.246999994       4574.41504       1.85693586    
  -1.07104599       5.38451099     -0.157000005       4574.41504       1.85693586    
   1.07104599       5.38451099     -0.157000005       4600.00928       1.85404277    
  0.930077016       4.67581606     -0.246999994       4600.00928       1.85404277    
   0.00000000       4.76741982     -0.246999994       4600.00928       1.85404277    
   0.00000000       5.48999977     -0.157000005       4600.00928       1.85404277    
   2.10093188       5.07209921     -0.157000005       4395.38184       1.85742104    
   1.82441294       4.40452194     -0.246999994       4395.38184       1.85742104    
  0.930077016       4.67581606     -0.246999994       4395.38184       1.85742104    
   1.07104599       5.38451099     -0.157000005       4395.38184       1.85742104    
   3.05008101       4.56476784     -0.157000005       4050.56152       1.85757625    
   2.64863706       3.96396494     -0.246999994       4050.56152       1.85757625    
   1.82441294       4.40452194     -0.246999994       4050.56152       1.85757625    
   2.10093188       5.07209921     -0.157000005       4050.56152       1.85757625    
   3.88201594       3.88201594     -0.157000005       3579.43286       1.85355639    
   3.37107491       3.37107491     -0.246999994       3579.43286       1.85355639    
   2.64863706       3.96396494     -0.246999994       3579.43286       1.85355639    
   3.05008101       4.56476784     -0.157000005       3579.43286       1.85355639    
   4.56476784       3.05008101     -0.157000005       2938.17090       1.85377157    
   3.96396494       2.64863706     -0.246999994       2938.17090       1.85377157    
   3.37107491       3.37107491     -0.246999994       2938.17090       1.85377157    
   3.88201594       3.88201594     -0.157000005       2938.17090       1.85377157    
   5.07209921       2.10093188     -0.157000005       2188.63062       1.85279620    
   4.40452194       1.82441294     -0.246999994       2188.63062       1.85279620    
   3.96396494       2.64863706     -0.246999994       2188.63062       1.85279620    
   4.56476784       3.05008101     -0.157000005       2188.63062       1.85279620    
   5.38451099       1.07104599     -0.157000005       1336.64490       1.85793829    
   4.67581606      0.930077016     -0.246999994       1336.64490       1.85793829    
   4.40452194       1.82441294     -0.246999994       1336.64490       1.85793829    
   5.07209921       2.10093188     -0.157000005       1336.64490       1.85793829    
   5.48999977       0.00000000     -0.157000005       449.907471       1.86462128    
   4.76741982       0.00000000     -0.246999994       449.907471       1.86462128    
   4.67581606      0.930077016     -0.246999994       449.907471       1.86462128    
   5.38451099       1.07104599     -0.157000005       449.907471       1.86462128    
   5.38451099      -1.07104599     -0.157000005       450.001587      -1.29276276    
   4.67581606     -0.930077016     -0.246999994       450.001587      -1.29276276    
   4.76741982       0.00000000     -0.246999994       450.001587      -1.29276276    
   5.48999977       0.00000000     -0.157000005       450.001587      -1.29276276    
   5.07209921      -2.10093188     -0.157000005       1332.07043      -1.28718698    
   4.40452194      -1.82441294     -0.246999994       1332.07043      -1.28718698    
   4.67581606     -0.930077016     -0.246999994       1332.07043      -1.28718698    
   5.38451099      -1.07104599     -0.157000005       1332.07043      -1.28718698    
   4.56476784      -3.05008101     -0.157000005       2163.22852      -1.28604186    
   3.96396494      -2.64863706     -0.246999994       2163.22852      -1.28604186    
   4.40452194      -1.82441294     -0.246999994       2163.22852      -1.28604186    
   5.07209921      -2.10093188     -0.157000005       2163.22852      -1.28604186    
   3.88201594      -3.88201594     -0.157000005       2913.02856      -1.28595424    
   3.37107491      -3.37107491     -0.246999994       2913.02856      -1.28595424    
   3.96396494      -2.64863706     -0.246999994       2913.02856      -1.28595424    
   4.56476784      -3.05008101     -0.157000005       2913.02856      -1.28595424    
   3.05008101      -4.56476784     -0.157000005       3571.52197      -1.28909457    
   2.64863706      -3.96396494     -0.246999994       3571.52197      -1.28909457    
   3.37107491      -3.37107491     -0.246999994       3571.52197      -1.28909457    
   3.88201594      -3.88201594     -0.157000005       3571.52197      -1.28909457    
   2.10093188      -5.07209921     -0.157000005       4045.28516      -1.28533232    
   1.82441294      -4.40452194     -0.246999994       4045.28516      -1.28533232    
   2.64863706      -3.96396494     -0.246999994       4045.28516      -1.28533232    
   3.05008101      -4.56476784     -0.157000005       4045.28516      -1.28533232    
   1.07104599      -5.38451099     -0.157000005       4384.36865      -1.28465676    
  0.930077016      -4.67581606     -0.246999994       4384.36865      -1.28465676    
   1.82441294      -4.40452194     -0.246999994       4384.36865      -1.28465676    
   2.10093188      -5.07209921     -0.157000005       4384.36865      -1.28465676    
   0.00000000      -1.87709999     -0.606999993       3032.82935      -1.47114873    
   0.00000000      -1.36500001     -0.606999993       3032.82935      -1.47114873    
  0.266297996      -1.33877206     -0.606999993       3032.82935      -1.47114873    
  0.366203994      -1.84103203     -0.606999993       3032.82935      -1.47114873    
   0.00000000      -1.87709999     -0.606999993       3775.02905      -1.45664382    
   0.00000000      -2.59967995     -0.517000020       3775.02905      -1.45664382    
 -0.507171988      -2.54972792     -0.517000020       3775.02905      -1.45664382    
 -0.366203994      -1.84103203     -0.606999993       3775.02905      -1.45664382    
 -0.366203994      -1.84103203     -0.606999993       3034.64893      -1.47111571    
 -0.266297996      -1.33877206     -0.606999993       3034.64893      -1.47111571    
   0.00000000      -1.36500001     -0.606999993       3034.64893      -1.47111571    
   0.00000000      -1.87709999     -0.606999993       3034.64893      -1.47111571    
 -0.366203994      -1.84103203     -0.606999993       3621.44263      -1.45615685    
 -0.507171988      -2.54972792     -0.517000020       3621.44263      -1.45615685    
 -0.994853973      -2.40179110     -0.517000020       3621.44263      -1.45615685    
 -0.718334973      -1.73421395     -0.606999993       3621.44263      -1.45615685    
 -0.718334973      -1.73421395     -0.606999993       2916.03149      -1.47068799    
 -0.522363007      -1.26109600     -0.606999993       2916.03149      -1.47068799    
 -0.266297996      -1.33877206     -0.606999993       2916.03149      -1.47068799    
 -0.366203994      -1.84103203     -0.606999993       2916.03149      -1.47068799    
 -0.718334973      -1.73421395     -0.606999993       3331.33350      -1.45547581    
 -0.994853973      -2.40179110     -0.517000020       3331.33350      -1.45547581    
  -1.44430494      -2.16155505     -0.517000020       3331.33350      -1.45547581    
  -1.04286098      -1.56075203     -0.606999993       3331.33350      -1.45547581    
  -1.04286098      -1.56075203     -0.606999993       2686.09961      -1.47008920    
 -0.758352995      -1.13495600     -0.606999993       2686.09961      -1.47008920    
 -0.522363007      -1.26109600     -0.606999993       2686.09961      -1.47008920    
 -0.718334973      -1.73421395     -0.606999993       2686.09961      -1.47008920    
  -1.04286098      -1.56075203     -0.606999993       2922.43921      -1.45500374    
  -1.44430494      -2.16155505     -0.517000020       2922.43921      -1.45500374    
  -1.83825099      -1.83825099     -0.517000020       2922.43921      -1.45500374    
  -1.32730997      -1.32730997     -0.606999993       2922.43921      -1.45500374    
  -1.32730997      -1.32730997     -0.606999993       2356.52490      -1.46963525    
 -0.965201020     -0.965201020     -0.606999993       2356.52490      -1.46963525    
 -0.758352995      -1.13495600     -0.606999993       2356.52490      -1.46963525    
  -1.04286098      -1.56075203     -0.606999993       2356.52490      -1.46963525    
  -1.32730997      -1.32730997     -0.606999993       2405.00659      -1.45508039    
  -1.83825099      -1.83825099     -0.517000020       2405.00659      -1.45508039    
  -2.16155505      -1.44430494     -0.517000020       2405.00659      -1.45508039    
  -1.56075203      -1.04286098     -0.606999993       2405.00659      -1.45508039    
  -1.56075203      -1.04286098     -0.606999993       1937.90588      -1.46957088    
  -1.13495600     -0.758352995     -0.606999993       1937.90588      -1.46957088    
 -0.965201020     -0.965201020     -0.606999993       1937.90588      -1.46957088    
  -1.32730997      -1.32730997     -0.606999993       1937.90588      -1.46957088    
  -1.56075203      -1.04286098     -0.606999993       1790.21399      -1.45584607    
  -2.16155505      -1.44430494     -0.517000020       1790.21399      -1.45584607    
  -2.40179110     -0.994853973     -0.517000020       1790.21399      -1.45584607    
  -1.73421395     -0.718334973     -0.606999993       1790.21399      -1.45584607    
  -1.73421395     -0.718334973     -0.606999993       1442.49451      -1.46993852    
  -1.26109600     -0.522363007     -0.606999993       1442.49451      -1.46993852    
  -1.13495600     -0.758352995     -0.606999993       1442.49451      -1.46993852    
  -1.56075203      -1.04286098     -0.606999993       1442.49451      -1.46993852    
  -1.73421395     -0.718334973     -0.606999993       1100.40869      -1.45692921    
  -2.40179110     -0.994853973     -0.517000020       1100.40869      -1.45692921    
  -2.54972792     -0.507171988     -0.517000020       1100.40869      -1.45692921    
  -1.84103203     -0.366203994     -0.606999993       1100.40869      -1.45692921    
  -1.84103203     -0.366203994     -0.606999993       888.302490      -1.47039187    
  -1.33877206     -0.266297996     -0.606999993       888.302490      -1.47039187    
  -1.26109600     -0.522363007     -0.606999993       888.302490      -1.47039187    
  -1.73421395     -0.718334973     -0.606999993       888.302490      -1.47039187    
  -1.84103203     -0.366203994     -0.606999993       368.171326      -1.45766962    
  -2.54972792     -0.507171988     -0.517000020       368.171326      -1.45766962    
  -2.59967995       0.00000000     -0.517000020       368.171326      -1.45766962    
  -1.87709999       0.00000000     -0.606999993       368.171326      -1.45766962    
  -1.87709999       0.00000000     -0.606999993       298.649506      -1.46956432    
  -1.36500001       0.00000000     -0.606999993       298.649506      -1.46956432    
  -1.33877206     -0.266297996     -0.606999993       298.649506      -1.46956432    
  -1.84103203     -0.366203994     -0.606999993       298.649506      -1.46956432    
  -1.87709999       0.00000000     -0.606999993       376.192108       1.68300545    
  -2.59967995       0.00000000     -0.517000020       376.192108       1.68300545    
  -2.54972792      0.507171988     -0.517000020       376.192108       1.68300545    
  -1.84103203      0.366203994     -0.606999993       376.192108       1.68300545    
  -1.84103203      0.366203994     -0.606999993       302.513184       1.66747618    
  -1.33877206      0.266297996     -0.606999993       302.513184       1.66747618    
  -1.36500001       0.00000000     -0.606999993       302.513184       1.66747618    
  -1.87709999       0.00000000     -0.606999993       302.513184       1.66747618    
  -1.84103203      0.366203994     -0.606999993       1108.12708       1.68384731    
  -2.54972792      0.507171988     -0.517000020       1108.12708       1.68384731    
  -2.40179110      0.994853973     -0.517000020       1108.12708       1.68384731    
  -1.73421395      0.718334973     -0.606999993       1108.12708       1.68384731    
  -1.73421395      0.718334973     -0.606999993       892.275757       1.66927350    
  -1.26109600      0.522363007     -0.606999993       892.275757       1.66927350    
  -1.33877206      0.266297996     -0.606999993       892.275757       1.66927350    
  -1.84103203      0.366203994     -0.606999993       892.275757       1.66927350    
  -1.73421395      0.718334973     -0.606999993       1799.22632       1.68494833    
  -2.40179110      0.994853973     -0.517000020       1799.22632       1.68494833    
  -2.16155505       1.44430494     -0.517000020       1799.22632       1.68494833    
  -1.56075203       1.04286098     -0.606999993       1799.22632       1.68494833    
  -1.56075203       1.04286098     -0.606999993       1447.37830       1.67019844    
  -1.13495600      0.758352995     -0.606999993       1447.37830       1.67019844    
  -1.26109600      0.522363007     -0.606999993       1447.37830       1.67019844    
  -1.73421395      0.718334973     -0.606999993       1447.37830       1.67019844    
  -1.56075203       1.04286098     -0.606999993       2416.56812       1.68592167    
  -2.16155505       1.44430494     -0.517000020       2416.56812       1.68592167    
  -1.83825099       1.83825099     -0.517000020       2416.56812       1.68592167    
  -1.32730997       1.32730997     -0.606999993       2416.56812       1.68592167    
  -1.32730997       1.32730997     -0.606999993       1944.72705       1.67089570    
 -0.965201020      0.965201020     -0.606999993       1944.72705       1.67089570    
  -1.13495600      0.758352995     -0.606999993       1944.72705       1.67089570    
  -1.56075203       1.04286098     -0.606999993       1944.72705       1.67089570    
  -1.32730997       1.32730997     -0.606999993       2935.82007       1.68630600    
  -1.83825099       1.83825099     -0.517000020       2935.82007       1.68630600    
  -1.44430494       2.16155505     -0.517000020       2935.82007       1.68630600    
  -1.04286098       1.56075203     -0.606999993       2935.82007       1.68630600    
  -1.04286098       1.56075203     -0.606999993       2365.75513       1.67117369    
 -0.758352995       1.13495600     -0.606999993       2365.75513       1.67117369    
 -0.965201020      0.965201020     -0.606999993       2365.75513       1.67117369    
  -1.32730997       1.32730997     -0.606999993       2365.75513       1.67117369    
  -1.04286098       1.56075203     -0.606999993       3345.26294       1.68606555    
  -1.44430494       2.16155505     -0.517000020       3345.26294       1.68606555    
 -0.994853973       2.40179110     -0.517000020       3345.26294       1.68606555    
 -0.718334973       1.73421395     -0.606999993       3345.26294       1.68606555    
 -0.718334973       1.73421395     -0.606999993       2697.65308       1.67102098    
 -0.522363007       1.26109600     -0.606999993       2697.65308       1.67102098    
 -0.758352995       1.13495600     -0.606999993       2697.65308       1.67102098    
  -1.04286098       1.56075203     -0.606999993       2697.65308       1.67102098    
 -0.718334973       1.73421395     -0.606999993       3635.43066       1.68552959    
 -0.994853973       2.40179110     -0.517000020       3635.43066       1.68552959    
 -0.507171988       2.54972792     -0.517000020       3635.43066       1.68552959    
 -0.366203994       1.84103203     -0.606999993       3635.43066       1.68552959    
 -0.366203994       1.84103203     -0.606999993       2929.79175       1.67063940    
 -0.266297996       1.33877206     -0.606999993       2929.79175       1.67063940    
 -0.522363007       1.26109600     -0.606999993       2929.79175       1.67063940    
 -0.718334973       1.73421395     -0.606999993       2929.79175       1.67063940    
 -0.366203994       1.84103203     -0.606999993       3789.50732       1.68510675    
 -0.507171988       2.54972792     -0.517000020       3789.50732       1.68510675    
   0.00000000       2.59967995     -0.517000020       3789.50732       1.68510675    
   0.00000000       1.87709999     -0.606999993       3789.50732       1.68510675    
   0.00000000       1.87709999     -0.606999993       3050.66455       1.67034817    
   0.00000000       1.36500001     -0.606999993       3050.66455       1.67034817    
 -0.266297996       1.33877206     -0.606999993       3050.66455       1.67034817    
 -0.366203994       1.84103203     -0.606999993       3050.66455       1.67034817    
   0.00000000       1.87709999     -0.606999993       3789.71118       1.68511677    
   0.00000000       2.59967995     -0.517000020       3789.71118       1.68511677    
  0.507171988       2.54972792     -0.517000020       3789.71118       1.68511677    
  0.366203994       1.84103203     -0.606999993       3789.71118       1.68511677    
  0.366203994       1.84103203     -0.606999993       3051.20093       1.67036891    
  0.266297996       1.33877206     -0.606999993       3051.20093       1.67036891    
   0.00000000       1.36500001     -0.606999993       3051.20093       1.67036891    
   0.00000000       1.87709999     -0.606999993       3051.20093       1.67036891    
  0.366203994       1.84103203     -0.606999993       3636.11841       1.68556631    
  0.507171988       2.54972792     -0.517000020       3636.11841       1.68556631    
  0.994853973       2.40179110     -0.517000020       3636.11841       1.68556631    
  0.718334973       1.73421395     -0.606999993       3636.11841       1.68556631    
  0.718334973       1.73421395     -0.606999993       2931.51392       1.67070198    
  0.522363007       1.26109600     -0.606999993       2931.51392       1.67070198    
  0.266297996       1.33877206     -0.606999993       2931.51392       1.67070198    
  0.366203994       1.84103203     -0.606999993       2931.51392       1.67070198    
  0.718334973       1.73421395     -0.606999993       3346.49072       1.68612623    
  0.994853973       2.40179110     -0.517000020       3346.49072       1.68612623    
   1.44430494       2.16155505     -0.517000020       3346.49072       1.68612623    
   1.04286098       1.56075203     -0.606999993       3346.49072       1.68612623    
   1.04286098       1.56075203     -0.606999993       2700.74829       1.67112267    
  0.758352995       1.13495600     -0.606999993       2700.74829       1.67112267    
  0.522363007       1.26109600     -0.606999993       2700.74829       1.67112267    
  0.718334973       1.73421395     -0.606999993       2700.74829       1.67112267    
   1.04286098       1.56075203     -0.606999993       2937.71899       1.68637788    
   1.44430494       2.16155505     -0.517000020       2937.71899       1.68637788    
   1.83825099       1.83825099     -0.517000020       2937.71899       1.68637788    
   1.32730997       1.32730997     -0.606999993       2937.71899       1.68637788    
   1.32730997       1.32730997     -0.606999993       2370.29761       1.67132926    
  0.965201020      0.965201020     -0.606999993       2370.29761       1.67132926    
  0.758352995       1.13495600     -0.606999993       2370.29761       1.67132926    
   1.04286098       1.56075203     -0.606999993       2370.29761       1.67132926    
   1.32730997       1.32730997     -0.606999993       2419.16992       1.68603551    
   1.83825099       1.83825099     -0.517000020       2419.16992       1.68603551    
   2.16155505       1.44430494     -0.517000020       2419.16992       1.68603551    
   1.56075203       1.04286098     -0.606999993       2419.16992       1.68603551    
   1.56075203       1.04286098     -0.606999993       1950.81006       1.67113650    
   1.13495600      0.758352995     -0.606999993       1950.81006       1.67113650    
  0.965201020      0.965201020     -0.606999993       1950.81006       1.67113650    
   1.32730997       1.32730997     -0.606999993       1950.81006       1.67113650    
   1.56075203       1.04286098     -0.606999993       1802.47522       1.68513870    
   2.16155505       1.44430494     -0.517000020       1802.47522       1.68513870    
   2.40179110      0.994853973     -0.517000020       1802.47522       1.68513870    
   1.73421395      0.718334973     -0.606999993       1802.47522       1.68513870    
   1.73421395      0.718334973     -0.606999993       1455.03308       1.67060101    
   1.26109600      0.522363007     -0.606999993       1455.03308       1.67060101    
   1.13495600      0.758352995     -0.606999993       1455.03308       1.67060101    
   1.56075203       1.04286098     -0.606999993       1455.03308       1.67060101    
   1.73421395      0.718334973     -0.606999993       1111.92712       1.68421757    
   2.40179110      0.994853973     -0.517000020       1111.92712       1.68421757    
   2.54972792      0.507171988     -0.517000020       1111.92712       1.68421757    
   1.84103203      0.366203994     -0.606999993       1111.92712       1.68421757    
   1.84103203      0.366203994     -0.606999993       901.340515       1.67003834    
   1.33877206      0.266297996     -0.606999993       901.340515       1.67003834    
   1.26109600      0.522363007     -0.606999993       901.340515       1.67003834    
   1.73421395      0.718334973     -0.606999993       901.340515       1.67003834    
   1.84103203      0.366203994     -0.606999993       380.524597       1.68418682    
   2.54972792      0.507171988     -0.517000020       380.524597       1.68418682    
   2.59967995       0.00000000     -0.517000020       380.524597       1.68418682    
   1.87709999       0.00000000     -0.606999993       380.524597       1.68418682    
   1.87709999       0.00000000     -0.606999993       312.804047       1.66993833    
   1.36500001       0.00000000     -0.606999993       312.804047       1.66993833    
   1.33877206      0.266297996     -0.606999993       312.804047       1.66993833    
   1.84103203      0.366203994     -0.606999993       312.804047       1.66993833    
   1.87709999       0.00000000     -0.606999993       363.330933      -1.45886731    
   2.59967995       0.00000000     -0.517000020       363.330933      -1.45886731    
   2.54972792     -0.507171988     -0.517000020       363.330933      -1.45886731    
   1.84103203     -0.366203994     -0.606999993       363.330933      -1.45886731    
   1.84103203     -0.366203994     -0.606999993       287.308960      -1.47216570    
   1.33877206     -0.266297996     -0.606999993       287.308960      -1.47216570    
   1.36500001       0.00000000     -0.606999993       287.308960      -1.47216570    
   1.87709999       0.00000000     -0.606999993       287.308960      -1.47216570    
   1.84103203     -0.366203994     -0.606999993       1095.14050      -1.45727456    
   2.54972792     -0.507171988     -0.517000020       1095.14050      -1.45727456    
   2.40179110     -0.994853973     -0.517000020       1095.14050      -1.45727456    
   1.73421395     -0.718334973     -0.606999993       1095.14050      -1.45727456    
   1.73421395     -0.718334973     -0.606999993       876.242371      -1.47124779    
   1.26109600     -0.522363007     -0.606999993       876.242371      -1.47124779    
   1.33877206     -0.266297996     -0.606999993       876.242371      -1.47124779    
   1.84103203     -0.366203994     -0.606999993       876.242371      -1.47124779    
   1.73421395     -0.718334973     -0.606999993       1784.68823      -1.45600915    
   2.40179110     -0.994853973     -0.517000020       1784.68823      -1.45600915    
   2.16155505      -1.44430494     -0.517000020       1784.68823      -1.45600915    
   1.56075203      -1.04286098     -0.606999993       1784.68823      -1.45600915    
   1.56075203      -1.04286098     -0.606999993       1430.12305      -1.47043145    
   1.13495600     -0.758352995     -0.606999993       1430.12305      -1.47043145    
   1.26109600     -0.522363007     -0.606999993       1430.12305      -1.47043145    