 VARIABLES="X" "Y" "Z" "abs(p) (Pa)" "angle(p) (rad)"
ZONE N=   2709,E =    2358, F=FEPOINT, ET=QUADRILATERAL
   0.00000000      -5.48999977     -0.157000005       4287.58936      -1.26813149    
   0.00000000      -4.76741982     -0.246999994       4287.58936      -1.26813149    
  0.930077016      -4.67581606     -0.246999994       4287.58936      -1.26813149    
   1.07104599      -5.38451099     -0.157000005       4287.58936      -1.26813149    
  -1.07104599      -5.38451099     -0.157000005       4291.15186      -1.26854610    
 -0.930077016      -4.67581606     -0.246999994       4291.15186      -1.26854610    
   0.00000000      -4.76741982     -0.246999994       4291.15186      -1.26854610    
   0.00000000      -5.48999977     -0.157000005       4291.15186      -1.26854610    
  -2.10093188      -5.07209921     -0.157000005       4165.35156      -1.27391911    
  -1.82441294      -4.40452194     -0.246999994       4165.35156      -1.27391911    
 -0.930077016      -4.67581606     -0.246999994       4165.35156      -1.27391911    
  -1.07104599      -5.38451099     -0.157000005       4165.35156      -1.27391911    
  -3.05008101      -4.56476784     -0.157000005       3807.35181      -1.26898408    
  -2.64863706      -3.96396494     -0.246999994       3807.35181      -1.26898408    
  -1.82441294      -4.40452194     -0.246999994       3807.35181      -1.26898408    
  -2.10093188      -5.07209921     -0.157000005       3807.35181      -1.26898408    
  -3.88201594      -3.88201594     -0.157000005       3339.34155      -1.26906550    
  -3.37107491      -3.37107491     -0.246999994       3339.34155      -1.26906550    
  -2.64863706      -3.96396494     -0.246999994       3339.34155      -1.26906550    
  -3.05008101      -4.56476784     -0.157000005       3339.34155      -1.26906550    
  -4.56476784      -3.05008101     -0.157000005       2776.63745      -1.27636027    
  -3.96396494      -2.64863706     -0.246999994       2776.63745      -1.27636027    
  -3.37107491      -3.37107491     -0.246999994       2776.63745      -1.27636027    
  -3.88201594      -3.88201594     -0.157000005       2776.63745      -1.27636027    
  -5.07209921      -2.10093188     -0.157000005       2043.01025      -1.27064431    
  -4.40452194      -1.82441294     -0.246999994       2043.01025      -1.27064431    
  -3.96396494      -2.64863706     -0.246999994       2043.01025      -1.27064431    
  -4.56476784      -3.05008101     -0.157000005       2043.01025      -1.27064431    
  -5.38451099      -1.07104599     -0.157000005       1251.24792      -1.26777232    
  -4.67581606     -0.930077016     -0.246999994       1251.24792      -1.26777232    
  -4.40452194      -1.82441294     -0.246999994       1251.24792      -1.26777232    
  -5.07209921      -2.10093188     -0.157000005       1251.24792      -1.26777232    
  -5.48999977       0.00000000     -0.157000005       420.182709      -1.26635993    
  -4.76741982       0.00000000     -0.246999994       420.182709      -1.26635993    
  -4.67581606     -0.930077016     -0.246999994       420.182709      -1.26635993    
  -5.38451099      -1.07104599     -0.157000005       420.182709      -1.26635993    
  -5.38451099       1.07104599     -0.157000005       436.223114       1.85835814    
  -4.67581606      0.930077016     -0.246999994       436.223114       1.85835814    
  -4.76741982       0.00000000     -0.246999994       436.223114       1.85835814    
  -5.48999977       0.00000000     -0.157000005       436.223114       1.85835814    
  -5.07209921       2.10093188     -0.157000005       1276.59241       1.86367083    
  -4.40452194       1.82441294     -0.246999994       1276.59241       1.86367083    
  -4.67581606      0.930077016     -0.246999994       1276.59241       1.86367083    
  -5.38451099       1.07104599     -0.157000005       1276.59241       1.86367083    
  -4.56476784       3.05008101     -0.157000005       2065.12573       1.86564517    
  -3.96396494       2.64863706     -0.246999994       2065.12573       1.86564517    
  -4.40452194       1.82441294     -0.246999994       2065.12573       1.86564517    
  -5.07209921       2.10093188     -0.157000005       2065.12573       1.86564517    
  -3.88201594       3.88201594     -0.157000005       2749.53809       1.87166476    
  -3.37107491       3.37107491     -0.246999994       2749.53809       1.87166476    
  -3.96396494       2.64863706     -0.246999994       2749.53809       1.87166476    
  -4.56476784       3.05008101     -0.157000005       2749.53809       1.87166476    
  -3.05008101       4.56476784     -0.157000005       3374.59229       1.86720169    
  -2.64863706       3.96396494     -0.246999994       3374.59229       1.86720169    
  -3.37107491       3.37107491     -0.246999994       3374.59229       1.86720169    
  -3.88201594       3.88201594     -0.157000005       3374.59229       1.86720169    
  -2.10093188       5.07209921     -0.157000005       3814.78101       1.87230134    
  -1.82441294       4.40452194     -0.246999994       3814.78101       1.87230134    
  -2.64863706       3.96396494     -0.246999994       3814.78101       1.87230134    
  -3.05008101       4.56476784     -0.157000005       3814.78101       1.87230134    
  -1.07104599       5.38451099     -0.157000005       4170.92285       1.86783469    
 -0.930077016       4.67581606     -0.246999994       4170.92285       1.86783469    
  -1.82441294       4.40452194     -0.246999994       4170.92285       1.86783469    
  -2.10093188       5.07209921     -0.157000005       4170.92285       1.86783469    
   0.00000000       5.48999977     -0.157000005       4301.28125       1.87281477    
   0.00000000       4.76741982     -0.246999994       4301.28125       1.87281477    
 -0.930077016       4.67581606     -0.246999994       4301.28125       1.87281477    
  -1.07104599       5.38451099     -0.157000005       4301.28125       1.87281477    
   1.07104599       5.38451099     -0.157000005       4335.36475       1.86840093    
  0.930077016       4.67581606     -0.246999994       4335.36475       1.86840093    
   0.00000000       4.76741982     -0.246999994       4335.36475       1.86840093    
   0.00000000       5.48999977     -0.157000005       4335.36475       1.86840093    
   2.10093188       5.07209921     -0.157000005       4133.25293       1.87367880    
   1.82441294       4.40452194     -0.246999994       4133.25293       1.87367880    
  0.930077016       4.67581606     -0.246999994       4133.25293       1.87367880    
   1.07104599       5.38451099     -0.157000005       4133.25293       1.87367880    
   3.05008101       4.56476784     -0.157000005       3809.93335       1.87397397    
   2.64863706       3.96396494     -0.246999994       3809.93335       1.87397397    
   1.82441294       4.40452194     -0.246999994       3809.93335       1.87397397    
   2.10093188       5.07209921     -0.157000005       3809.93335       1.87397397    
   3.88201594       3.88201594     -0.157000005       3378.21802       1.86776733    
   3.37107491       3.37107491     -0.246999994       3378.21802       1.86776733    
   2.64863706       3.96396494     -0.246999994       3378.21802       1.86776733    
   3.05008101       4.56476784     -0.157000005       3378.21802       1.86776733    
   4.56476784       3.05008101     -0.157000005       2773.29102       1.86817396    
   3.96396494       2.64863706     -0.246999994       2773.29102       1.86817396    
   3.37107491       3.37107491     -0.246999994       2773.29102       1.86817396    
   3.88201594       3.88201594     -0.157000005       2773.29102       1.86817396    
   5.07209921       2.10093188     -0.157000005       2068.24292       1.86662185    
   4.40452194       1.82441294     -0.246999994       2068.24292       1.86662185    
   3.96396494       2.64863706     -0.246999994       2068.24292       1.86662185    
   4.56476784       3.05008101     -0.157000005       2068.24292       1.86662185    
   5.38451099       1.07104599     -0.157000005       1258.82568       1.87456644    
   4.67581606      0.930077016     -0.246999994       1258.82568       1.87456644    
   4.40452194       1.82441294     -0.246999994       1258.82568       1.87456644    
   5.07209921       2.10093188     -0.157000005       1258.82568       1.87456644    
   5.48999977       0.00000000     -0.157000005       421.974976       1.88447273    
   4.76741982       0.00000000     -0.246999994       421.974976       1.88447273    
   4.67581606      0.930077016     -0.246999994       421.974976       1.88447273    
   5.38451099       1.07104599     -0.157000005       421.974976       1.88447273    
   5.38451099      -1.07104599     -0.157000005       426.000946      -1.27973938    
   4.67581606     -0.930077016     -0.246999994       426.000946      -1.27973938    
   4.76741982       0.00000000     -0.246999994       426.000946      -1.27973938    
   5.48999977       0.00000000     -0.157000005       426.000946      -1.27973938    
   5.07209921      -2.10093188     -0.157000005       1256.50305      -1.27177620    
   4.40452194      -1.82441294     -0.246999994       1256.50305      -1.27177620    
   4.67581606     -0.930077016     -0.246999994       1256.50305      -1.27177620    
   5.38451099      -1.07104599     -0.157000005       1256.50305      -1.27177620    
   4.56476784      -3.05008101     -0.157000005       2038.31970      -1.27010441    
   3.96396494      -2.64863706     -0.246999994       2038.31970      -1.27010441    
   4.40452194      -1.82441294     -0.246999994       2038.31970      -1.27010441    
   5.07209921      -2.10093188     -0.157000005       2038.31970      -1.27010441    
   3.88201594      -3.88201594     -0.157000005       2743.68237      -1.26999342    
   3.37107491      -3.37107491     -0.246999994       2743.68237      -1.26999342    
   3.96396494      -2.64863706     -0.246999994       2743.68237      -1.26999342    
   4.56476784      -3.05008101     -0.157000005       2743.68237      -1.26999342    
   3.05008101      -4.56476784     -0.157000005       3371.00342      -1.27490556    
   2.64863706      -3.96396494     -0.246999994       3371.00342      -1.27490556    
   3.37107491      -3.37107491     -0.246999994       3371.00342      -1.27490556    
   3.88201594      -3.88201594     -0.157000005       3371.00342      -1.27490556    
   2.10093188      -5.07209921     -0.157000005       3806.97803      -1.26921201    
   1.82441294      -4.40452194     -0.246999994       3806.97803      -1.26921201    
   2.64863706      -3.96396494     -0.246999994       3806.97803      -1.26921201    
   3.05008101      -4.56476784     -0.157000005       3806.97803      -1.26921201    
   1.07104599      -5.38451099     -0.157000005       4123.79639      -1.26826429    
  0.930077016      -4.67581606     -0.246999994       4123.79639      -1.26826429    
   1.82441294      -4.40452194     -0.246999994       4123.79639      -1.26826429    
   2.10093188      -5.07209921     -0.157000005       4123.79639      -1.26826429    
   0.00000000      -1.87709999     -0.606999993       3466.46118      -1.49227881    
   0.00000000      -1.36500001     -0.606999993       3466.46118      -1.49227881    
  0.266297996      -1.33877206     -0.606999993       3466.46118      -1.49227881    
  0.366203994      -1.84103203     -0.606999993       3466.46118      -1.49227881    
   0.00000000      -1.87709999     -0.606999993       3974.11621      -1.48086429    
   0.00000000      -2.59967995     -0.517000020       3974.11621      -1.48086429    
 -0.507171988      -2.54972792     -0.517000020       3974.11621      -1.48086429    
 -0.366203994      -1.84103203     -0.606999993       3974.11621      -1.48086429    
 -0.366203994      -1.84103203     -0.606999993       3468.20654      -1.49226427    
 -0.266297996      -1.33877206     -0.606999993       3468.20654      -1.49226427    
   0.00000000      -1.36500001     -0.606999993       3468.20654      -1.49226427    
   0.00000000      -1.87709999     -0.606999993       3468.20654      -1.49226427    
 -0.366203994      -1.84103203     -0.606999993       3811.47559      -1.48048961    
 -0.507171988      -2.54972792     -0.517000020       3811.47559      -1.48048961    
 -0.994853973      -2.40179110     -0.517000020       3811.47559      -1.48048961    
 -0.718334973      -1.73421395     -0.606999993       3811.47559      -1.48048961    
 -0.718334973      -1.73421395     -0.606999993       3331.92065      -1.49194551    
 -0.522363007      -1.26109600     -0.606999993       3331.92065      -1.49194551    
 -0.266297996      -1.33877206     -0.606999993       3331.92065      -1.49194551    
 -0.366203994      -1.84103203     -0.606999993       3331.92065      -1.49194551    
 -0.718334973      -1.73421395     -0.606999993       3504.93628      -1.47996724    
 -0.994853973      -2.40179110     -0.517000020       3504.93628      -1.47996724    
  -1.44430494      -2.16155505     -0.517000020       3504.93628      -1.47996724    
  -1.04286098      -1.56075203     -0.606999993       3504.93628      -1.47996724    
  -1.04286098      -1.56075203     -0.606999993       3068.25195      -1.49151206    
 -0.758352995      -1.13495600     -0.606999993       3068.25195      -1.49151206    
 -0.522363007      -1.26109600     -0.606999993       3068.25195      -1.49151206    
 -0.718334973      -1.73421395     -0.606999993       3068.25195      -1.49151206    
  -1.04286098      -1.56075203     -0.606999993       3073.92456      -1.47957242    
  -1.44430494      -2.16155505     -0.517000020       3073.92456      -1.47957242    
  -1.83825099      -1.83825099     -0.517000020       3073.92456      -1.47957242    
  -1.32730997      -1.32730997     -0.606999993       3073.92456      -1.47957242    
  -1.32730997      -1.32730997     -0.606999993       2690.76221      -1.49114895    
 -0.965201020     -0.965201020     -0.606999993       2690.76221      -1.49114895    
 -0.758352995      -1.13495600     -0.606999993       2690.76221      -1.49114895    
  -1.04286098      -1.56075203     -0.606999993       2690.76221      -1.49114895    
  -1.32730997      -1.32730997     -0.606999993       2529.78760      -1.47957706    
  -1.83825099      -1.83825099     -0.517000020       2529.78760      -1.47957706    
  -2.16155505      -1.44430494     -0.517000020       2529.78760      -1.47957706    
  -1.56075203      -1.04286098     -0.606999993       2529.78760      -1.47957706    
  -1.56075203      -1.04286098     -0.606999993       2212.15576      -1.49104476    
  -1.13495600     -0.758352995     -0.606999993       2212.15576      -1.49104476    
 -0.965201020     -0.965201020     -0.606999993       2212.15576      -1.49104476    
  -1.32730997      -1.32730997     -0.606999993       2212.15576      -1.49104476    
  -1.56075203      -1.04286098     -0.606999993       1883.99146      -1.48007524    
  -2.16155505      -1.44430494     -0.517000020       1883.99146      -1.48007524    
  -2.40179110     -0.994853973     -0.517000020       1883.99146      -1.48007524    
  -1.73421395     -0.718334973     -0.606999993       1883.99146      -1.48007524    
  -1.73421395     -0.718334973     -0.606999993       1646.63623      -1.49119532    
  -1.26109600     -0.522363007     -0.606999993       1646.63623      -1.49119532    
  -1.13495600     -0.758352995     -0.606999993       1646.63623      -1.49119532    
  -1.56075203      -1.04286098     -0.606999993       1646.63623      -1.49119532    
  -1.73421395     -0.718334973     -0.606999993       1158.99146      -1.48072922    
  -2.40179110     -0.994853973     -0.517000020       1158.99146      -1.48072922    
  -2.54972792     -0.507171988     -0.517000020       1158.99146      -1.48072922    
  -1.84103203     -0.366203994     -0.606999993       1158.99146      -1.48072922    
  -1.84103203     -0.366203994     -0.606999993       1014.19226      -1.49126351    
  -1.33877206     -0.266297996     -0.606999993       1014.19226      -1.49126351    
  -1.26109600     -0.522363007     -0.606999993       1014.19226      -1.49126351    
  -1.73421395     -0.718334973     -0.606999993       1014.19226      -1.49126351    
  -1.84103203     -0.366203994     -0.606999993       388.285919      -1.48026109    
  -2.54972792     -0.507171988     -0.517000020       388.285919      -1.48026109    
  -2.59967995       0.00000000     -0.517000020       388.285919      -1.48026109    
  -1.87709999       0.00000000     -0.606999993       388.285919      -1.48026109    
  -1.87709999       0.00000000     -0.606999993       340.801025      -1.48930812    
  -1.36500001       0.00000000     -0.606999993       340.801025      -1.48930812    
  -1.33877206     -0.266297996     -0.606999993       340.801025      -1.48930812    
  -1.84103203     -0.366203994     -0.606999993       340.801025      -1.48930812    
  -1.87709999       0.00000000     -0.606999993       395.909790       1.65749907    
  -2.59967995       0.00000000     -0.517000020       395.909790       1.65749907    
  -2.54972792      0.507171988     -0.517000020       395.909790       1.65749907    
  -1.84103203      0.366203994     -0.606999993       395.909790       1.65749907    
  -1.84103203      0.366203994     -0.606999993       346.080872       1.64497590    
  -1.33877206      0.266297996     -0.606999993       346.080872       1.64497590    
  -1.36500001       0.00000000     -0.606999993       346.080872       1.64497590    
  -1.87709999       0.00000000     -0.606999993       346.080872       1.64497590    
  -1.84103203      0.366203994     -0.606999993       1166.58557       1.65919697    
  -2.54972792      0.507171988     -0.517000020       1166.58557       1.65919697    
  -2.40179110      0.994853973     -0.517000020       1166.58557       1.65919697    
  -1.73421395      0.718334973     -0.606999993       1166.58557       1.65919697    
  -1.73421395      0.718334973     -0.606999993       1019.73846       1.64760017    
  -1.26109600      0.522363007     -0.606999993       1019.73846       1.64760017    
  -1.33877206      0.266297996     -0.606999993       1019.73846       1.64760017    
  -1.84103203      0.366203994     -0.606999993       1019.73846       1.64760017    
  -1.73421395      0.718334973     -0.606999993       1893.16443       1.66027689    
  -2.40179110      0.994853973     -0.517000020       1893.16443       1.66027689    
  -2.16155505       1.44430494     -0.517000020       1893.16443       1.66027689    
  -1.56075203       1.04286098     -0.606999993       1893.16443       1.66027689    
  -1.56075203       1.04286098     -0.606999993       1653.29761       1.64854538    
  -1.13495600      0.758352995     -0.606999993       1653.29761       1.64854538    
  -1.26109600      0.522363007     -0.606999993       1653.29761       1.64854538    
  -1.73421395      0.718334973     -0.606999993       1653.29761       1.64854538    
  -1.56075203       1.04286098     -0.606999993       2541.44043       1.66112983    
  -2.16155505       1.44430494     -0.517000020       2541.44043       1.66112983    
  -1.83825099       1.83825099     -0.517000020       2541.44043       1.66112983    
  -1.32730997       1.32730997     -0.606999993       2541.44043       1.66112983    
  -1.32730997       1.32730997     -0.606999993       2220.73364       1.64917028    
 -0.965201020      0.965201020     -0.606999993       2220.73364       1.64917028    
  -1.13495600      0.758352995     -0.606999993       2220.73364       1.64917028    
  -1.56075203       1.04286098     -0.606999993       2220.73364       1.64917028    
  -1.32730997       1.32730997     -0.606999993       3087.04712       1.66145647    
  -1.83825099       1.83825099     -0.517000020       3087.04712       1.66145647    
  -1.44430494       2.16155505     -0.517000020       3087.04712       1.66145647    
  -1.04286098       1.56075203     -0.606999993       3087.04712       1.66145647    
  -1.04286098       1.56075203     -0.606999993       2701.36816       1.64943647    
 -0.758352995       1.13495600     -0.606999993       2701.36816       1.64943647    
 -0.965201020      0.965201020     -0.606999993       2701.36816       1.64943647    
  -1.32730997       1.32730997     -0.606999993       2701.36816       1.64943647    
  -1.04286098       1.56075203     -0.606999993       3518.17969       1.66130745    
  -1.44430494       2.16155505     -0.517000020       3518.17969       1.66130745    
 -0.994853973       2.40179110     -0.517000020       3518.17969       1.66130745    
 -0.718334973       1.73421395     -0.606999993       3518.17969       1.66130745    
 -0.718334973       1.73421395     -0.606999993       3080.66040       1.64936197    
 -0.522363007       1.26109600     -0.606999993       3080.66040       1.64936197    
 -0.758352995       1.13495600     -0.606999993       3080.66040       1.64936197    
  -1.04286098       1.56075203     -0.606999993       3080.66040       1.64936197    
 -0.718334973       1.73421395     -0.606999993       3824.56934       1.66093028    
 -0.994853973       2.40179110     -0.517000020       3824.56934       1.66093028    
 -0.507171988       2.54972792     -0.517000020       3824.56934       1.66093028    
 -0.366203994       1.84103203     -0.606999993       3824.56934       1.66093028    
 -0.366203994       1.84103203     -0.606999993       3346.12695       1.64912856    
 -0.266297996       1.33877206     -0.606999993       3346.12695       1.64912856    
 -0.522363007       1.26109600     -0.606999993       3346.12695       1.64912856    
 -0.718334973       1.73421395     -0.606999993       3346.12695       1.64912856    
 -0.366203994       1.84103203     -0.606999993       3987.56201       1.66063881    
 -0.507171988       2.54972792     -0.517000020       3987.56201       1.66063881    
   0.00000000       2.59967995     -0.517000020       3987.56201       1.66063881    
   0.00000000       1.87709999     -0.606999993       3987.56201       1.66063881    
   0.00000000       1.87709999     -0.606999993       3484.33496       1.64895701    
   0.00000000       1.36500001     -0.606999993       3484.33496       1.64895701    
 -0.266297996       1.33877206     -0.606999993       3484.33496       1.64895701    
 -0.366203994       1.84103203     -0.606999993       3484.33496       1.64895701    
   0.00000000       1.87709999     -0.606999993       3987.87427       1.66067231    
   0.00000000       2.59967995     -0.517000020       3987.87427       1.66067231    
  0.507171988       2.54972792     -0.517000020       3987.87427       1.66067231    
  0.366203994       1.84103203     -0.606999993       3987.87427       1.66067231    
  0.366203994       1.84103203     -0.606999993       3484.89819       1.64899564    
  0.266297996       1.33877206     -0.606999993       3484.89819       1.64899564    
   0.00000000       1.36500001     -0.606999993       3484.89819       1.64899564    
   0.00000000       1.87709999     -0.606999993       3484.89819       1.64899564    
  0.366203994       1.84103203     -0.606999993       3825.51343       1.66101825    
  0.507171988       2.54972792     -0.517000020       3825.51343       1.66101825    
  0.994853973       2.40179110     -0.517000020       3825.51343       1.66101825    
  0.718334973       1.73421395     -0.606999993       3825.51343       1.66101825    
  0.718334973       1.73421395     -0.606999993       3347.86865       1.64925301    
  0.522363007       1.26109600     -0.606999993       3347.86865       1.64925301    
  0.266297996       1.33877206     -0.606999993       3347.86865       1.64925301    
  0.366203994       1.84103203     -0.606999993       3347.86865       1.64925301    
  0.718334973       1.73421395     -0.606999993       3519.82666       1.66146421    
  0.994853973       2.40179110     -0.517000020       3519.82666       1.66146421    
   1.44430494       2.16155505     -0.517000020       3519.82666       1.66146421    
   1.04286098       1.56075203     -0.606999993       3519.82666       1.66146421    
   1.04286098       1.56075203     -0.606999993       3083.82983       1.64956117    
  0.758352995       1.13495600     -0.606999993       3083.82983       1.64956117    
  0.522363007       1.26109600     -0.606999993       3083.82983       1.64956117    
  0.718334973       1.73421395     -0.606999993       3083.82983       1.64956117    
   1.04286098       1.56075203     -0.606999993       3089.48193       1.66166484    
   1.44430494       2.16155505     -0.517000020       3089.48193       1.66166484    
   1.83825099       1.83825099     -0.517000020       3089.48193       1.66166484    
   1.32730997       1.32730997     -0.606999993       3089.48193       1.66166484    
   1.32730997       1.32730997     -0.606999993       2706.00317       1.64972222    
  0.965201020      0.965201020     -0.606999993       2706.00317       1.64972222    
  0.758352995       1.13495600     -0.606999993       2706.00317       1.64972222    
   1.04286098       1.56075203     -0.606999993       2706.00317       1.64972222    
   1.32730997       1.32730997     -0.606999993       2544.62231       1.66142559    
   1.83825099       1.83825099     -0.517000020       2544.62231       1.66142559    
   2.16155505       1.44430494     -0.517000020       2544.62231       1.66142559    
   1.56075203       1.04286098     -0.606999993       2544.62231       1.66142559    
   1.56075203       1.04286098     -0.606999993       2226.82983       1.64958549    
   1.13495600      0.758352995     -0.606999993       2226.82983       1.64958549    
  0.965201020      0.965201020     -0.606999993       2226.82983       1.64958549    
   1.32730997       1.32730997     -0.606999993       2226.82983       1.64958549    
   1.56075203       1.04286098     -0.606999993       1896.88367       1.66071749    
   2.16155505       1.44430494     -0.517000020       1896.88367       1.66071749    
   2.40179110      0.994853973     -0.517000020       1896.88367       1.66071749    
   1.73421395      0.718334973     -0.606999993       1896.88367       1.66071749    
   1.73421395      0.718334973     -0.606999993       1660.73059       1.64917338    
   1.26109600      0.522363007     -0.606999993       1660.73059       1.64917338    
   1.13495600      0.758352995     -0.606999993       1660.73059       1.64917338    
   1.56075203       1.04286098     -0.606999993       1660.73059       1.64917338    
   1.73421395      0.718334973     -0.606999993       1170.69165       1.65995741    
   2.40179110      0.994853973     -0.517000020       1170.69165       1.65995741    
   2.54972792      0.507171988     -0.517000020       1170.69165       1.65995741    
   1.84103203      0.366203994     -0.606999993       1170.69165       1.65995741    
   1.84103203      0.366203994     -0.606999993       1028.28784       1.64865971    
   1.33877206      0.266297996     -0.606999993       1028.28784       1.64865971    
   1.26109600      0.522363007     -0.606999993       1028.28784       1.64865971    
   1.73421395      0.718334973     -0.606999993       1028.28784       1.64865971    
   1.84103203      0.366203994     -0.606999993       400.380859       1.65967631    
   2.54972792      0.507171988     -0.517000020       400.380859       1.65967631    
   2.59967995       0.00000000     -0.517000020       400.380859       1.65967631    
   1.87709999       0.00000000     -0.606999993       400.380859       1.65967631    
   1.87709999       0.00000000     -0.606999993       355.637146       1.64806747    
   1.36500001       0.00000000     -0.606999993       355.637146       1.64806747    
   1.33877206      0.266297996     -0.606999993       355.637146       1.64806747    
   1.84103203      0.366203994     -0.606999993       355.637146       1.64806747    
   1.87709999       0.00000000     -0.606999993       383.423126      -1.48224247    
   2.59967995       0.00000000     -0.517000020       383.423126      -1.48224247    
   2.54972792     -0.507171988     -0.517000020       383.423126      -1.48224247    
   1.84103203     -0.366203994     -0.606999993       383.423126      -1.48224247    
   1.84103203     -0.366203994     -0.606999993       330.363953      -1.49220836    
   1.33877206     -0.266297996     -0.606999993       330.363953      -1.49220836    
   1.36500001       0.00000000     -0.606999993       330.363953      -1.49220836    
   1.87709999       0.00000000     -0.606999993       330.363953      -1.49220836    
   1.84103203     -0.366203994     -0.606999993       1153.75183      -1.48126805    
   2.54972792     -0.507171988     -0.517000020       1153.75183      -1.48126805    
   2.40179110     -0.994853973     -0.517000020       1153.75183      -1.48126805    
   1.73421395     -0.718334973     -0.606999993       1153.75183      -1.48126805    
   1.73421395     -0.718334973     -0.606999993       1003.12543      -1.49212515    
   1.26109600     -0.522363007     -0.606999993       1003.12543      -1.49212515    
   1.33877206     -0.266297996     -0.606999993       1003.12543      -1.49212515    
   1.84103203     -0.366203994     -0.606999993       1003.12543      -1.49212515    
   1.73421395     -0.718334973     -0.606999993       1878.47986      -1.48032725    
   2.40179110     -0.994853973     -0.517000020       1878.47986      -1.48032725    
   2.16155505      -1.44430494     -0.517000020       1878.47986      -1.48032725    
   1.56075203      -1.04286098     -0.606999993       1878.47986      -1.48032725    
   1.56075203      -1.04286098     -0.606999993       1635.29517      -1.49165261    
   1.13495600     -0.758352995     -0.606999993       1635.29517      -1.49165261    
   1.26109600     -0.522363007     -0.606999993       1635.29517      -1.49165261    