 VARIABLES="X" "Y" "Z" "abs(p) (Pa)" "angle(p) (rad)"
ZONE N=   2709,E =    2358, F=FEPOINT, ET=QUADRILATERAL
   0.00000000      -5.48999977     -0.157000005       4049.30884      -1.39536881    
   0.00000000      -4.76741982     -0.246999994       4049.30884      -1.39536881    
  0.930077016      -4.67581606     -0.246999994       4049.30884      -1.39536881    
   1.07104599      -5.38451099     -0.157000005       4049.30884      -1.39536881    
  -1.07104599      -5.38451099     -0.157000005       4053.05591      -1.39547157    
 -0.930077016      -4.67581606     -0.246999994       4053.05591      -1.39547157    
   0.00000000      -4.76741982     -0.246999994       4053.05591      -1.39547157    
   0.00000000      -5.48999977     -0.157000005       4053.05591      -1.39547157    
  -2.10093188      -5.07209921     -0.157000005       3950.50024      -1.39946210    
  -1.82441294      -4.40452194     -0.246999994       3950.50024      -1.39946210    
 -0.930077016      -4.67581606     -0.246999994       3950.50024      -1.39946210    
  -1.07104599      -5.38451099     -0.157000005       3950.50024      -1.39946210    
  -3.05008101      -4.56476784     -0.157000005       3597.85571      -1.39455950    
  -2.64863706      -3.96396494     -0.246999994       3597.85571      -1.39455950    
  -1.82441294      -4.40452194     -0.246999994       3597.85571      -1.39455950    
  -2.10093188      -5.07209921     -0.157000005       3597.85571      -1.39455950    
  -3.88201594      -3.88201594     -0.157000005       3157.61670      -1.39391458    
  -3.37107491      -3.37107491     -0.246999994       3157.61670      -1.39391458    
  -2.64863706      -3.96396494     -0.246999994       3157.61670      -1.39391458    
  -3.05008101      -4.56476784     -0.157000005       3157.61670      -1.39391458    
  -4.56476784      -3.05008101     -0.157000005       2640.81689      -1.39933550    
  -3.96396494      -2.64863706     -0.246999994       2640.81689      -1.39933550    
  -3.37107491      -3.37107491     -0.246999994       2640.81689      -1.39933550    
  -3.88201594      -3.88201594     -0.157000005       2640.81689      -1.39933550    
  -5.07209921      -2.10093188     -0.157000005       1935.63013      -1.39402926    
  -4.40452194      -1.82441294     -0.246999994       1935.63013      -1.39402926    
  -3.96396494      -2.64863706     -0.246999994       1935.63013      -1.39402926    
  -4.56476784      -3.05008101     -0.157000005       1935.63013      -1.39402926    
  -5.38451099      -1.07104599     -0.157000005       1182.86902      -1.39129531    
  -4.67581606     -0.930077016     -0.246999994       1182.86902      -1.39129531    
  -4.40452194      -1.82441294     -0.246999994       1182.86902      -1.39129531    
  -5.07209921      -2.10093188     -0.157000005       1182.86902      -1.39129531    
  -5.48999977       0.00000000     -0.157000005       396.118652      -1.39039838    
  -4.76741982       0.00000000     -0.246999994       396.118652      -1.39039838    
  -4.67581606     -0.930077016     -0.246999994       396.118652      -1.39039838    
  -5.38451099      -1.07104599     -0.157000005       396.118652      -1.39039838    
  -5.38451099       1.07104599     -0.157000005       417.801514       1.73812473    
  -4.67581606      0.930077016     -0.246999994       417.801514       1.73812473    
  -4.76741982       0.00000000     -0.246999994       417.801514       1.73812473    
  -5.48999977       0.00000000     -0.157000005       417.801514       1.73812473    
  -5.07209921       2.10093188     -0.157000005       1215.85559       1.74157667    
  -4.40452194       1.82441294     -0.246999994       1215.85559       1.74157667    
  -4.67581606      0.930077016     -0.246999994       1215.85559       1.74157667    
  -5.38451099       1.07104599     -0.157000005       1215.85559       1.74157667    
  -4.56476784       3.05008101     -0.157000005       1963.20129       1.74226177    
  -3.96396494       2.64863706     -0.246999994       1963.20129       1.74226177    
  -4.40452194       1.82441294     -0.246999994       1963.20129       1.74226177    
  -5.07209921       2.10093188     -0.157000005       1963.20129       1.74226177    
  -3.88201594       3.88201594     -0.157000005       2601.07349       1.74632263    
  -3.37107491       3.37107491     -0.246999994       2601.07349       1.74632263    
  -3.96396494       2.64863706     -0.246999994       2601.07349       1.74632263    
  -4.56476784       3.05008101     -0.157000005       2601.07349       1.74632263    
  -3.05008101       4.56476784     -0.157000005       3203.07764       1.74159229    
  -2.64863706       3.96396494     -0.246999994       3203.07764       1.74159229    
  -3.37107491       3.37107491     -0.246999994       3203.07764       1.74159229    
  -3.88201594       3.88201594     -0.157000005       3203.07764       1.74159229    
  -2.10093188       5.07209921     -0.157000005       3605.53711       1.74514079    
  -1.82441294       4.40452194     -0.246999994       3605.53711       1.74514079    
  -2.64863706       3.96396494     -0.246999994       3605.53711       1.74514079    
  -3.05008101       4.56476784     -0.157000005       3605.53711       1.74514079    
  -1.07104599       5.38451099     -0.157000005       3955.47046       1.74094784    
 -0.930077016       4.67581606     -0.246999994       3955.47046       1.74094784    
  -1.82441294       4.40452194     -0.246999994       3955.47046       1.74094784    
  -2.10093188       5.07209921     -0.157000005       3955.47046       1.74094784    
   0.00000000       5.48999977     -0.157000005       4062.15259       1.74514472    
   0.00000000       4.76741982     -0.246999994       4062.15259       1.74514472    
 -0.930077016       4.67581606     -0.246999994       4062.15259       1.74514472    
  -1.07104599       5.38451099     -0.157000005       4062.15259       1.74514472    
   1.07104599       5.38451099     -0.157000005       4108.88672       1.74178243    
  0.930077016       4.67581606     -0.246999994       4108.88672       1.74178243    
   0.00000000       4.76741982     -0.246999994       4108.88672       1.74178243    
   0.00000000       5.48999977     -0.157000005       4108.88672       1.74178243    
   2.10093188       5.07209921     -0.157000005       3901.92432       1.74699080    
   1.82441294       4.40452194     -0.246999994       3901.92432       1.74699080    
  0.930077016       4.67581606     -0.246999994       3901.92432       1.74699080    
   1.07104599       5.38451099     -0.157000005       3901.92432       1.74699080    
   3.05008101       4.56476784     -0.157000005       3597.54077       1.74822080    
   2.64863706       3.96396494     -0.246999994       3597.54077       1.74822080    
   1.82441294       4.40452194     -0.246999994       3597.54077       1.74822080    
   2.10093188       5.07209921     -0.157000005       3597.54077       1.74822080    
   3.88201594       3.88201594     -0.157000005       3206.77271       1.74404299    
   3.37107491       3.37107491     -0.246999994       3206.77271       1.74404299    
   2.64863706       3.96396494     -0.246999994       3206.77271       1.74404299    
   3.05008101       4.56476784     -0.157000005       3206.77271       1.74404299    
   4.56476784       3.05008101     -0.157000005       2632.33081       1.74545693    
   3.96396494       2.64863706     -0.246999994       2632.33081       1.74545693    
   3.37107491       3.37107491     -0.246999994       2632.33081       1.74545693    
   3.88201594       3.88201594     -0.157000005       2632.33081       1.74545693    
   5.07209921       2.10093188     -0.157000005       1966.23486       1.74488735    
   4.40452194       1.82441294     -0.246999994       1966.23486       1.74488735    
   3.96396494       2.64863706     -0.246999994       1966.23486       1.74488735    
   4.56476784       3.05008101     -0.157000005       1966.23486       1.74488735    
   5.38451099       1.07104599     -0.157000005       1189.28491       1.75219679    
   4.67581606      0.930077016     -0.246999994       1189.28491       1.75219679    
   4.40452194       1.82441294     -0.246999994       1189.28491       1.75219679    
   5.07209921       2.10093188     -0.157000005       1189.28491       1.75219679    
   5.48999977       0.00000000     -0.157000005       394.625153       1.76075459    
   4.76741982       0.00000000     -0.246999994       394.625153       1.76075459    
   4.67581606      0.930077016     -0.246999994       394.625153       1.76075459    
   5.38451099       1.07104599     -0.157000005       394.625153       1.76075459    
   5.38451099      -1.07104599     -0.157000005       407.882690      -1.39968014    
   4.67581606     -0.930077016     -0.246999994       407.882690      -1.39968014    
   4.76741982       0.00000000     -0.246999994       407.882690      -1.39968014    
   5.48999977       0.00000000     -0.157000005       407.882690      -1.39968014    
   5.07209921      -2.10093188     -0.157000005       1192.38098      -1.39377904    
   4.40452194      -1.82441294     -0.246999994       1192.38098      -1.39377904    
   4.67581606     -0.930077016     -0.246999994       1192.38098      -1.39377904    
   5.38451099      -1.07104599     -0.157000005       1192.38098      -1.39377904    
   4.56476784      -3.05008101     -0.157000005       1929.76758      -1.39325953    
   3.96396494      -2.64863706     -0.246999994       1929.76758      -1.39325953    
   4.40452194      -1.82441294     -0.246999994       1929.76758      -1.39325953    
   5.07209921      -2.10093188     -0.157000005       1929.76758      -1.39325953    
   3.88201594      -3.88201594     -0.157000005       2595.42407      -1.39416349    
   3.37107491      -3.37107491     -0.246999994       2595.42407      -1.39416349    
   3.96396494      -2.64863706     -0.246999994       2595.42407      -1.39416349    
   4.56476784      -3.05008101     -0.157000005       2595.42407      -1.39416349    
   3.05008101      -4.56476784     -0.157000005       3200.17212      -1.39935589    
   2.64863706      -3.96396494     -0.246999994       3200.17212      -1.39935589    
   3.37107491      -3.37107491     -0.246999994       3200.17212      -1.39935589    
   3.88201594      -3.88201594     -0.157000005       3200.17212      -1.39935589    
   2.10093188      -5.07209921     -0.157000005       3598.08057      -1.39542794    
   1.82441294      -4.40452194     -0.246999994       3598.08057      -1.39542794    
   2.64863706      -3.96396494     -0.246999994       3598.08057      -1.39542794    
   3.05008101      -4.56476784     -0.157000005       3598.08057      -1.39542794    
   1.07104599      -5.38451099     -0.157000005       3895.31934      -1.39528632    
  0.930077016      -4.67581606     -0.246999994       3895.31934      -1.39528632    
   1.82441294      -4.40452194     -0.246999994       3895.31934      -1.39528632    
   2.10093188      -5.07209921     -0.157000005       3895.31934      -1.39528632    
   0.00000000      -1.87709999     -0.606999993       3822.36328      -1.53669119    
   0.00000000      -1.36500001     -0.606999993       3822.36328      -1.53669119    
  0.266297996      -1.33877206     -0.606999993       3822.36328      -1.53669119    
  0.366203994      -1.84103203     -0.606999993       3822.36328      -1.53669119    
   0.00000000      -1.87709999     -0.606999993       4074.91406      -1.53190267    
   0.00000000      -2.59967995     -0.517000020       4074.91406      -1.53190267    
 -0.507171988      -2.54972792     -0.517000020       4074.91406      -1.53190267    
 -0.366203994      -1.84103203     -0.606999993       4074.91406      -1.53190267    
 -0.366203994      -1.84103203     -0.606999993       3823.90381      -1.53669477    
 -0.266297996      -1.33877206     -0.606999993       3823.90381      -1.53669477    
   0.00000000      -1.36500001     -0.606999993       3823.90381      -1.53669477    
   0.00000000      -1.87709999     -0.606999993       3823.90381      -1.53669477    
 -0.366203994      -1.84103203     -0.606999993       3907.96021      -1.53173494    
 -0.507171988      -2.54972792     -0.517000020       3907.96021      -1.53173494    
 -0.994853973      -2.40179110     -0.517000020       3907.96021      -1.53173494    
 -0.718334973      -1.73421395     -0.606999993       3907.96021      -1.53173494    
 -0.718334973      -1.73421395     -0.606999993       3673.45386      -1.53657138    
 -0.522363007      -1.26109600     -0.606999993       3673.45386      -1.53657138    
 -0.266297996      -1.33877206     -0.606999993       3673.45386      -1.53657138    
 -0.366203994      -1.84103203     -0.606999993       3673.45386      -1.53657138    
 -0.718334973      -1.73421395     -0.606999993       3593.36011      -1.53149235    
 -0.994853973      -2.40179110     -0.517000020       3593.36011      -1.53149235    
  -1.44430494      -2.16155505     -0.517000020       3593.36011      -1.53149235    
  -1.04286098      -1.56075203     -0.606999993       3593.36011      -1.53149235    
  -1.04286098      -1.56075203     -0.606999993       3382.46045      -1.53639245    
 -0.758352995      -1.13495600     -0.606999993       3382.46045      -1.53639245    
 -0.522363007      -1.26109600     -0.606999993       3382.46045      -1.53639245    
 -0.718334973      -1.73421395     -0.606999993       3382.46045      -1.53639245    
  -1.04286098      -1.56075203     -0.606999993       3151.18750      -1.53127587    
  -1.44430494      -2.16155505     -0.517000020       3151.18750      -1.53127587    
  -1.83825099      -1.83825099     -0.517000020       3151.18750      -1.53127587    
  -1.32730997      -1.32730997     -0.606999993       3151.18750      -1.53127587    
  -1.32730997      -1.32730997     -0.606999993       2965.71924      -1.53622198    
 -0.965201020     -0.965201020     -0.606999993       2965.71924      -1.53622198    
 -0.758352995      -1.13495600     -0.606999993       2965.71924      -1.53622198    
  -1.04286098      -1.56075203     -0.606999993       2965.71924      -1.53622198    
  -1.32730997      -1.32730997     -0.606999993       2593.29712      -1.53122318    
  -1.83825099      -1.83825099     -0.517000020       2593.29712      -1.53122318    
  -2.16155505      -1.44430494     -0.517000020       2593.29712      -1.53122318    
  -1.56075203      -1.04286098     -0.606999993       2593.29712      -1.53122318    
  -1.56075203      -1.04286098     -0.606999993       2437.55591      -1.53615105    
  -1.13495600     -0.758352995     -0.606999993       2437.55591      -1.53615105    
 -0.965201020     -0.965201020     -0.606999993       2437.55591      -1.53615105    
  -1.32730997      -1.32730997     -0.606999993       2437.55591      -1.53615105    
  -1.56075203      -1.04286098     -0.606999993       1931.59692      -1.53136861    
  -2.16155505      -1.44430494     -0.517000020       1931.59692      -1.53136861    
  -2.40179110     -0.994853973     -0.517000020       1931.59692      -1.53136861    
  -1.73421395     -0.718334973     -0.606999993       1931.59692      -1.53136861    
  -1.73421395     -0.718334973     -0.606999993       1814.05164      -1.53615105    
  -1.26109600     -0.522363007     -0.606999993       1814.05164      -1.53615105    
  -1.13495600     -0.758352995     -0.606999993       1814.05164      -1.53615105    
  -1.56075203      -1.04286098     -0.606999993       1814.05164      -1.53615105    
  -1.73421395     -0.718334973     -0.606999993       1188.69849      -1.53153074    
  -2.40179110     -0.994853973     -0.517000020       1188.69849      -1.53153074    
  -2.54972792     -0.507171988     -0.517000020       1188.69849      -1.53153074    
  -1.84103203     -0.366203994     -0.606999993       1188.69849      -1.53153074    
  -1.84103203     -0.366203994     -0.606999993       1117.10242      -1.53607941    
  -1.33877206     -0.266297996     -0.606999993       1117.10242      -1.53607941    
  -1.26109600     -0.522363007     -0.606999993       1117.10242      -1.53607941    
  -1.73421395     -0.718334973     -0.606999993       1117.10242      -1.53607941    
  -1.84103203     -0.366203994     -0.606999993       398.513550      -1.53085709    
  -2.54972792     -0.507171988     -0.517000020       398.513550      -1.53085709    
  -2.59967995       0.00000000     -0.517000020       398.513550      -1.53085709    
  -1.87709999       0.00000000     -0.606999993       398.513550      -1.53085709    
  -1.87709999       0.00000000     -0.606999993       374.965271      -1.53474164    
  -1.36500001       0.00000000     -0.606999993       374.965271      -1.53474164    
  -1.33877206     -0.266297996     -0.606999993       374.965271      -1.53474164    
  -1.84103203     -0.366203994     -0.606999993       374.965271      -1.53474164    
  -1.87709999       0.00000000     -0.606999993       405.762726       1.60766673    
  -2.59967995       0.00000000     -0.517000020       405.762726       1.60766673    
  -2.54972792      0.507171988     -0.517000020       405.762726       1.60766673    
  -1.84103203      0.366203994     -0.606999993       405.762726       1.60766673    
  -1.84103203      0.366203994     -0.606999993       382.097900       1.60224068    
  -1.33877206      0.266297996     -0.606999993       382.097900       1.60224068    
  -1.36500001       0.00000000     -0.606999993       382.097900       1.60224068    
  -1.87709999       0.00000000     -0.606999993       382.097900       1.60224068    
  -1.84103203      0.366203994     -0.606999993       1195.95410       1.60881805    
  -2.54972792      0.507171988     -0.517000020       1195.95410       1.60881805    
  -2.40179110      0.994853973     -0.517000020       1195.95410       1.60881805    
  -1.73421395      0.718334973     -0.606999993       1195.95410       1.60881805    
  -1.73421395      0.718334973     -0.606999993       1124.45398       1.60381782    
  -1.26109600      0.522363007     -0.606999993       1124.45398       1.60381782    
  -1.33877206      0.266297996     -0.606999993       1124.45398       1.60381782    
  -1.84103203      0.366203994     -0.606999993       1124.45398       1.60381782    
  -1.73421395      0.718334973     -0.606999993       1940.41882       1.60932887    
  -2.40179110      0.994853973     -0.517000020       1940.41882       1.60932887    
  -2.16155505       1.44430494     -0.517000020       1940.41882       1.60932887    
  -1.56075203       1.04286098     -0.606999993       1940.41882       1.60932887    
  -1.56075203       1.04286098     -0.606999993       1822.39319       1.60428500    
  -1.13495600      0.758352995     -0.606999993       1822.39319       1.60428500    
  -1.26109600      0.522363007     -0.606999993       1822.39319       1.60428500    
  -1.73421395      0.718334973     -0.606999993       1822.39319       1.60428500    
  -1.56075203       1.04286098     -0.606999993       2604.43506       1.60969341    
  -2.16155505       1.44430494     -0.517000020       2604.43506       1.60969341    
  -1.83825099       1.83825099     -0.517000020       2604.43506       1.60969341    
  -1.32730997       1.32730997     -0.606999993       2604.43506       1.60969341    
  -1.32730997       1.32730997     -0.606999993       2447.51294       1.60455167    
 -0.965201020      0.965201020     -0.606999993       2447.51294       1.60455167    
  -1.13495600      0.758352995     -0.606999993       2447.51294       1.60455167    
  -1.56075203       1.04286098     -0.606999993       2447.51294       1.60455167    
  -1.32730997       1.32730997     -0.606999993       3163.47583       1.60980690    
  -1.83825099       1.83825099     -0.517000020       3163.47583       1.60980690    
  -1.44430494       2.16155505     -0.517000020       3163.47583       1.60980690    
  -1.04286098       1.56075203     -0.606999993       3163.47583       1.60980690    
  -1.04286098       1.56075203     -0.606999993       2977.09937       1.60466754    
 -0.758352995       1.13495600     -0.606999993       2977.09937       1.60466754    
 -0.965201020      0.965201020     -0.606999993       2977.09937       1.60466754    
  -1.32730997       1.32730997     -0.606999993       2977.09937       1.60466754    
  -1.04286098       1.56075203     -0.606999993       3605.50488       1.60972977    
  -1.44430494       2.16155505     -0.517000020       3605.50488       1.60972977    
 -0.994853973       2.40179110     -0.517000020       3605.50488       1.60972977    
 -0.718334973       1.73421395     -0.606999993       3605.50488       1.60972977    
 -0.718334973       1.73421395     -0.606999993       3395.00757       1.60465384    
 -0.522363007       1.26109600     -0.606999993       3395.00757       1.60465384    
 -0.758352995       1.13495600     -0.606999993       3395.00757       1.60465384    
  -1.04286098       1.56075203     -0.606999993       3395.00757       1.60465384    
 -0.718334973       1.73421395     -0.606999993       3919.69946       1.60958016    
 -0.994853973       2.40179110     -0.517000020       3919.69946       1.60958016    
 -0.507171988       2.54972792     -0.517000020       3919.69946       1.60958016    
 -0.366203994       1.84103203     -0.606999993       3919.69946       1.60958016    
 -0.366203994       1.84103203     -0.606999993       3687.19385       1.60459208    
 -0.266297996       1.33877206     -0.606999993       3687.19385       1.60459208    
 -0.522363007       1.26109600     -0.606999993       3687.19385       1.60459208    
 -0.718334973       1.73421395     -0.606999993       3687.19385       1.60459208    
 -0.366203994       1.84103203     -0.606999993       4086.83105       1.60948384    
 -0.507171988       2.54972792     -0.517000020       4086.83105       1.60948384    
   0.00000000       2.59967995     -0.517000020       4086.83105       1.60948384    
   0.00000000       1.87709999     -0.606999993       4086.83105       1.60948384    
   0.00000000       1.87709999     -0.606999993       3839.05078       1.60457218    
   0.00000000       1.36500001     -0.606999993       3839.05078       1.60457218    
 -0.266297996       1.33877206     -0.606999993       3839.05078       1.60457218    
 -0.366203994       1.84103203     -0.606999993       3839.05078       1.60457218    
   0.00000000       1.87709999     -0.606999993       4087.02124       1.60955906    
   0.00000000       2.59967995     -0.517000020       4087.02124       1.60955906    
  0.507171988       2.54972792     -0.517000020       4087.02124       1.60955906    
  0.366203994       1.84103203     -0.606999993       4087.02124       1.60955906    
  0.366203994       1.84103203     -0.606999993       3839.34058       1.60463691    
  0.266297996       1.33877206     -0.606999993       3839.34058       1.60463691    
   0.00000000       1.36500001     -0.606999993       3839.34058       1.60463691    
   0.00000000       1.87709999     -0.606999993       3839.34058       1.60463691    
  0.366203994       1.84103203     -0.606999993       3920.31641       1.60977328    
  0.507171988       2.54972792     -0.517000020       3920.31641       1.60977328    
  0.994853973       2.40179110     -0.517000020       3920.31641       1.60977328    
  0.718334973       1.73421395     -0.606999993       3920.31641       1.60977328    
  0.718334973       1.73421395     -0.606999993       3688.21606       1.60480940    
  0.522363007       1.26109600     -0.606999993       3688.21606       1.60480940    
  0.266297996       1.33877206     -0.606999993       3688.21606       1.60480940    
  0.366203994       1.84103203     -0.606999993       3688.21606       1.60480940    
  0.718334973       1.73421395     -0.606999993       3606.69702       1.61004150    
  0.994853973       2.40179110     -0.517000020       3606.69702       1.61004150    
   1.44430494       2.16155505     -0.517000020       3606.69702       1.61004150    
   1.04286098       1.56075203     -0.606999993       3606.69702       1.61004150    
   1.04286098       1.56075203     -0.606999993       3397.02148       1.60500634    
  0.758352995       1.13495600     -0.606999993       3397.02148       1.60500634    
  0.522363007       1.26109600     -0.606999993       3397.02148       1.60500634    
  0.718334973       1.73421395     -0.606999993       3397.02148       1.60500634    
   1.04286098       1.56075203     -0.606999993       3165.37427       1.61022317    
   1.44430494       2.16155505     -0.517000020       3165.37427       1.61022317    
   1.83825099       1.83825099     -0.517000020       3165.37427       1.61022317    
   1.32730997       1.32730997     -0.606999993       3165.37427       1.61022317    
   1.32730997       1.32730997     -0.606999993       2980.24170       1.60513818    
  0.965201020      0.965201020     -0.606999993       2980.24170       1.60513818    
  0.758352995       1.13495600     -0.606999993       2980.24170       1.60513818    
   1.04286098       1.56075203     -0.606999993       2980.24170       1.60513818    
   1.32730997       1.32730997     -0.606999993       2606.97241       1.61022520    
   1.83825099       1.83825099     -0.517000020       2606.97241       1.61022520    
   2.16155505       1.44430494     -0.517000020       2606.97241       1.61022520    
   1.56075203       1.04286098     -0.606999993       2606.97241       1.61022520    
   1.56075203       1.04286098     -0.606999993       2451.81201       1.60515523    
   1.13495600      0.758352995     -0.606999993       2451.81201       1.60515523    
  0.965201020      0.965201020     -0.606999993       2451.81201       1.60515523    
   1.32730997       1.32730997     -0.606999993       2451.81201       1.60515523    
   1.56075203       1.04286098     -0.606999993       1943.39502       1.61000550    
   2.16155505       1.44430494     -0.517000020       1943.39502       1.61000550    
   2.40179110      0.994853973     -0.517000020       1943.39502       1.61000550    
   1.73421395      0.718334973     -0.606999993       1943.39502       1.61000550    
   1.73421395      0.718334973     -0.606999993       1827.67175       1.60505414    
   1.26109600      0.522363007     -0.606999993       1827.67175       1.60505414    
   1.13495600      0.758352995     -0.606999993       1827.67175       1.60505414    
   1.56075203       1.04286098     -0.606999993       1827.67175       1.60505414    
   1.73421395      0.718334973     -0.606999993       1199.16284       1.60977113    
   2.40179110      0.994853973     -0.517000020       1199.16284       1.60977113    
   2.54972792      0.507171988     -0.517000020       1199.16284       1.60977113    
   1.84103203      0.366203994     -0.606999993       1199.16284       1.60977113    
   1.84103203      0.366203994     -0.606999993       1130.52600       1.60494089    
   1.33877206      0.266297996     -0.606999993       1130.52600       1.60494089    
   1.26109600      0.522363007     -0.606999993       1130.52600       1.60494089    
   1.73421395      0.718334973     -0.606999993       1130.52600       1.60494089    
   1.84103203      0.366203994     -0.606999993       409.256470       1.60989988    
   2.54972792      0.507171988     -0.517000020       409.256470       1.60989988    
   2.59967995       0.00000000     -0.517000020       409.256470       1.60989988    
   1.87709999       0.00000000     -0.606999993       409.256470       1.60989988    
   1.87709999       0.00000000     -0.606999993       389.021606       1.60487735    
   1.36500001       0.00000000     -0.606999993       389.021606       1.60487735    
   1.33877206      0.266297996     -0.606999993       389.021606       1.60487735    
   1.84103203      0.366203994     -0.606999993       389.021606       1.60487735    
   1.87709999       0.00000000     -0.606999993       394.611664      -1.53252971    
   2.59967995       0.00000000     -0.517000020       394.611664      -1.53252971    
   2.54972792     -0.507171988     -0.517000020       394.611664      -1.53252971    
   1.84103203     -0.366203994     -0.606999993       394.611664      -1.53252971    
   1.84103203     -0.366203994     -0.606999993       367.158875      -1.53666151    
   1.33877206     -0.266297996     -0.606999993       367.158875      -1.53666151    
   1.36500001       0.00000000     -0.606999993       367.158875      -1.53666151    
   1.87709999       0.00000000     -0.606999993       367.158875      -1.53666151    
   1.84103203     -0.366203994     -0.606999993       1184.30200      -1.53189218    
   2.54972792     -0.507171988     -0.517000020       1184.30200      -1.53189218    
   2.40179110     -0.994853973     -0.517000020       1184.30200      -1.53189218    
   1.73421395     -0.718334973     -0.606999993       1184.30200      -1.53189218    
   1.73421395     -0.718334973     -0.606999993       1108.54346      -1.53646696    
   1.26109600     -0.522363007     -0.606999993       1108.54346      -1.53646696    
   1.33877206     -0.266297996     -0.606999993       1108.54346      -1.53646696    
   1.84103203     -0.366203994     -0.606999993       1108.54346      -1.53646696    
   1.73421395     -0.718334973     -0.606999993       1926.76990      -1.53149927    
   2.40179110     -0.994853973     -0.517000020       1926.76990      -1.53149927    
   2.16155505      -1.44430494     -0.517000020       1926.76990      -1.53149927    
   1.56075203      -1.04286098     -0.606999993       1926.76990      -1.53149927    
   1.56075203      -1.04286098     -0.606999993       1805.02576      -1.53628588    
   1.13495600     -0.758352995     -0.606999993       1805.02576      -1.53628588    
   1.26109600     -0.522363007     -0.606999993       1805.02576      -1.53628588    