 VARIABLES="X" "Y" "Z" "abs(p) (Pa)" "angle(p) (rad)"
ZONE N=   2709,E =    2358, F=FEPOINT, ET=QUADRILATERAL
   0.00000000      -5.48999977     -0.157000005       339.840271      -1.54525244    
   0.00000000      -4.76741982     -0.246999994       339.840271      -1.54525244    
  0.930077016      -4.67581606     -0.246999994       339.840271      -1.54525244    
   1.07104599      -5.38451099     -0.157000005       339.840271      -1.54525244    
  -1.07104599      -5.38451099     -0.157000005       339.878723      -1.54668248    
 -0.930077016      -4.67581606     -0.246999994       339.878723      -1.54668248    
   0.00000000      -4.76741982     -0.246999994       339.878723      -1.54668248    
   0.00000000      -5.48999977     -0.157000005       339.878723      -1.54668248    
  -2.10093188      -5.07209921     -0.157000005       331.760498      -1.54234755    
  -1.82441294      -4.40452194     -0.246999994       331.760498      -1.54234755    
 -0.930077016      -4.67581606     -0.246999994       331.760498      -1.54234755    
  -1.07104599      -5.38451099     -0.157000005       331.760498      -1.54234755    
  -3.05008101      -4.56476784     -0.157000005       295.273468      -1.55124259    
  -2.64863706      -3.96396494     -0.246999994       295.273468      -1.55124259    
  -1.82441294      -4.40452194     -0.246999994       295.273468      -1.55124259    
  -2.10093188      -5.07209921     -0.157000005       295.273468      -1.55124259    
  -3.88201594      -3.88201594     -0.157000005       263.522888      -1.54926383    
  -3.37107491      -3.37107491     -0.246999994       263.522888      -1.54926383    
  -2.64863706      -3.96396494     -0.246999994       263.522888      -1.54926383    
  -3.05008101      -4.56476784     -0.157000005       263.522888      -1.54926383    
  -4.56476784      -3.05008101     -0.157000005       226.230667      -1.54593861    
  -3.96396494      -2.64863706     -0.246999994       226.230667      -1.54593861    
  -3.37107491      -3.37107491     -0.246999994       226.230667      -1.54593861    
  -3.88201594      -3.88201594     -0.157000005       226.230667      -1.54593861    
  -5.07209921      -2.10093188     -0.157000005       164.454315      -1.54577911    
  -4.40452194      -1.82441294     -0.246999994       164.454315      -1.54577911    
  -3.96396494      -2.64863706     -0.246999994       164.454315      -1.54577911    
  -4.56476784      -3.05008101     -0.157000005       164.454315      -1.54577911    
  -5.38451099      -1.07104599     -0.157000005       98.4217377      -1.54677713    
  -4.67581606     -0.930077016     -0.246999994       98.4217377      -1.54677713    
  -4.40452194      -1.82441294     -0.246999994       98.4217377      -1.54677713    
  -5.07209921      -2.10093188     -0.157000005       98.4217377      -1.54677713    
  -5.48999977       0.00000000     -0.157000005       33.1331635      -1.52496350    
  -4.76741982       0.00000000     -0.246999994       33.1331635      -1.52496350    
  -4.67581606     -0.930077016     -0.246999994       33.1331635      -1.52496350    
  -5.38451099      -1.07104599     -0.157000005       33.1331635      -1.52496350    
  -5.38451099       1.07104599     -0.157000005       33.1436539       1.63162529    
  -4.67581606      0.930077016     -0.246999994       33.1436539       1.63162529    
  -4.76741982       0.00000000     -0.246999994       33.1436539       1.63162529    
  -5.48999977       0.00000000     -0.157000005       33.1436539       1.63162529    
  -5.07209921       2.10093188     -0.157000005       99.7805634       1.59528100    
  -4.40452194       1.82441294     -0.246999994       99.7805634       1.59528100    
  -4.67581606      0.930077016     -0.246999994       99.7805634       1.59528100    
  -5.38451099       1.07104599     -0.157000005       99.7805634       1.59528100    
  -4.56476784       3.05008101     -0.157000005       168.035812       1.61023557    
  -3.96396494       2.64863706     -0.246999994       168.035812       1.61023557    
  -4.40452194       1.82441294     -0.246999994       168.035812       1.61023557    
  -5.07209921       2.10093188     -0.157000005       168.035812       1.61023557    
  -3.88201594       3.88201594     -0.157000005       225.643448       1.58870900    
  -3.37107491       3.37107491     -0.246999994       225.643448       1.58870900    
  -3.96396494       2.64863706     -0.246999994       225.643448       1.58870900    
  -4.56476784       3.05008101     -0.157000005       225.643448       1.58870900    
  -3.05008101       4.56476784     -0.157000005       276.706970       1.60250080    
  -2.64863706       3.96396494     -0.246999994       276.706970       1.60250080    
  -3.37107491       3.37107491     -0.246999994       276.706970       1.60250080    
  -3.88201594       3.88201594     -0.157000005       276.706970       1.60250080    
  -2.10093188       5.07209921     -0.157000005       301.316315       1.58580363    
  -1.82441294       4.40452194     -0.246999994       301.316315       1.58580363    
  -2.64863706       3.96396494     -0.246999994       301.316315       1.58580363    
  -3.05008101       4.56476784     -0.157000005       301.316315       1.58580363    
  -1.07104599       5.38451099     -0.157000005       335.860779       1.60344148    
 -0.930077016       4.67581606     -0.246999994       335.860779       1.60344148    
  -1.82441294       4.40452194     -0.246999994       335.860779       1.60344148    
  -2.10093188       5.07209921     -0.157000005       335.860779       1.60344148    
   0.00000000       5.48999977     -0.157000005       347.171051       1.59081030    
   0.00000000       4.76741982     -0.246999994       347.171051       1.59081030    
 -0.930077016       4.67581606     -0.246999994       347.171051       1.59081030    
  -1.07104599       5.38451099     -0.157000005       347.171051       1.59081030    
   1.07104599       5.38451099     -0.157000005       352.432556       1.60440052    
  0.930077016       4.67581606     -0.246999994       352.432556       1.60440052    
   0.00000000       4.76741982     -0.246999994       352.432556       1.60440052    
   0.00000000       5.48999977     -0.157000005       352.432556       1.60440052    
   2.10093188       5.07209921     -0.157000005       330.675842       1.58998632    
   1.82441294       4.40452194     -0.246999994       330.675842       1.58998632    
  0.930077016       4.67581606     -0.246999994       330.675842       1.58998632    
   1.07104599       5.38451099     -0.157000005       330.675842       1.58998632    
   3.05008101       4.56476784     -0.157000005       301.311615       1.59375679    
   2.64863706       3.96396494     -0.246999994       301.311615       1.59375679    
   1.82441294       4.40452194     -0.246999994       301.311615       1.59375679    
   2.10093188       5.07209921     -0.157000005       301.311615       1.59375679    
   3.88201594       3.88201594     -0.157000005       275.907501       1.59282386    
   3.37107491       3.37107491     -0.246999994       275.907501       1.59282386    
   2.64863706       3.96396494     -0.246999994       275.907501       1.59282386    
   3.05008101       4.56476784     -0.157000005       275.907501       1.59282386    
   4.56476784       3.05008101     -0.157000005       228.318283       1.59823096    
   3.96396494       2.64863706     -0.246999994       228.318283       1.59823096    
   3.37107491       3.37107491     -0.246999994       228.318283       1.59823096    
   3.88201594       3.88201594     -0.157000005       228.318283       1.59823096    
   5.07209921       2.10093188     -0.157000005       165.943634       1.59789145    
   4.40452194       1.82441294     -0.246999994       165.943634       1.59789145    
   3.96396494       2.64863706     -0.246999994       165.943634       1.59789145    
   4.56476784       3.05008101     -0.157000005       165.943634       1.59789145    
   5.38451099       1.07104599     -0.157000005       97.7009583       1.59972894    
   4.67581606      0.930077016     -0.246999994       97.7009583       1.59972894    
   4.40452194       1.82441294     -0.246999994       97.7009583       1.59972894    
   5.07209921       2.10093188     -0.157000005       97.7009583       1.59972894    
   5.48999977       0.00000000     -0.157000005       30.5524101       1.59581602    
   4.76741982       0.00000000     -0.246999994       30.5524101       1.59581602    
   4.67581606      0.930077016     -0.246999994       30.5524101       1.59581602    
   5.38451099       1.07104599     -0.157000005       30.5524101       1.59581602    
   5.38451099      -1.07104599     -0.157000005       33.3044205      -1.53633809    
   4.67581606     -0.930077016     -0.246999994       33.3044205      -1.53633809    
   4.76741982       0.00000000     -0.246999994       33.3044205      -1.53633809    
   5.48999977       0.00000000     -0.157000005       33.3044205      -1.53633809    
   5.07209921      -2.10093188     -0.157000005       100.114937      -1.54304409    
   4.40452194      -1.82441294     -0.246999994       100.114937      -1.54304409    
   4.67581606     -0.930077016     -0.246999994       100.114937      -1.54304409    
   5.38451099      -1.07104599     -0.157000005       100.114937      -1.54304409    
   4.56476784      -3.05008101     -0.157000005       164.740326      -1.54352415    
   3.96396494      -2.64863706     -0.246999994       164.740326      -1.54352415    
   4.40452194      -1.82441294     -0.246999994       164.740326      -1.54352415    
   5.07209921      -2.10093188     -0.157000005       164.740326      -1.54352415    
   3.88201594      -3.88201594     -0.157000005       222.998871      -1.54957592    
   3.37107491      -3.37107491     -0.246999994       222.998871      -1.54957592    
   3.96396494      -2.64863706     -0.246999994       222.998871      -1.54957592    
   4.56476784      -3.05008101     -0.157000005       222.998871      -1.54957592    
   3.05008101      -4.56476784     -0.157000005       268.142670      -1.54477715    
   2.64863706      -3.96396494     -0.246999994       268.142670      -1.54477715    
   3.37107491      -3.37107491     -0.246999994       268.142670      -1.54477715    
   3.88201594      -3.88201594     -0.157000005       268.142670      -1.54477715    
   2.10093188      -5.07209921     -0.157000005       295.228729      -1.55043602    
   1.82441294      -4.40452194     -0.246999994       295.228729      -1.55043602    
   2.64863706      -3.96396494     -0.246999994       295.228729      -1.55043602    
   3.05008101      -4.56476784     -0.157000005       295.228729      -1.55043602    
   1.07104599      -5.38451099     -0.157000005       326.768402      -1.54759097    
  0.930077016      -4.67581606     -0.246999994       326.768402      -1.54759097    
   1.82441294      -4.40452194     -0.246999994       326.768402      -1.54759097    
   2.10093188      -5.07209921     -0.157000005       326.768402      -1.54759097    
   0.00000000      -1.87709999     -0.606999993       13263.3740      -1.56947958    
   0.00000000      -1.36500001     -0.606999993       13263.3740      -1.56947958    
  0.266297996      -1.33877206     -0.606999993       13263.3740      -1.56947958    
  0.366203994      -1.84103203     -0.606999993       13263.3740      -1.56947958    
   0.00000000      -1.87709999     -0.606999993       1564.69739      -1.58168852    
   0.00000000      -2.59967995     -0.517000020       1564.69739      -1.58168852    
 -0.507171988      -2.54972792     -0.517000020       1564.69739      -1.58168852    
 -0.366203994      -1.84103203     -0.606999993       1564.69739      -1.58168852    
 -0.366203994      -1.84103203     -0.606999993       13734.3760      -1.57165122    
 -0.266297996      -1.33877206     -0.606999993       13734.3760      -1.57165122    
   0.00000000      -1.36500001     -0.606999993       13734.3760      -1.57165122    
   0.00000000      -1.87709999     -0.606999993       13734.3760      -1.57165122    
 -0.366203994      -1.84103203     -0.606999993       1833.65576      -1.58586788    
 -0.507171988      -2.54972792     -0.517000020       1833.65576      -1.58586788    
 -0.994853973      -2.40179110     -0.517000020       1833.65576      -1.58586788    
 -0.718334973      -1.73421395     -0.606999993       1833.65576      -1.58586788    
 -0.718334973      -1.73421395     -0.606999993       13796.5938      -1.57331407    
 -0.522363007      -1.26109600     -0.606999993       13796.5938      -1.57331407    
 -0.266297996      -1.33877206     -0.606999993       13796.5938      -1.57331407    
 -0.366203994      -1.84103203     -0.606999993       13796.5938      -1.57331407    
 -0.718334973      -1.73421395     -0.606999993       1993.68445      -1.58636606    
 -0.994853973      -2.40179110     -0.517000020       1993.68445      -1.58636606    
  -1.44430494      -2.16155505     -0.517000020       1993.68445      -1.58636606    
  -1.04286098      -1.56075203     -0.606999993       1993.68445      -1.58636606    
  -1.04286098      -1.56075203     -0.606999993       13230.4199      -1.57409191    
 -0.758352995      -1.13495600     -0.606999993       13230.4199      -1.57409191    
 -0.522363007      -1.26109600     -0.606999993       13230.4199      -1.57409191    
 -0.718334973      -1.73421395     -0.606999993       13230.4199      -1.57409191    
  -1.04286098      -1.56075203     -0.606999993       1912.49207      -1.58439314    
  -1.44430494      -2.16155505     -0.517000020       1912.49207      -1.58439314    
  -1.83825099      -1.83825099     -0.517000020       1912.49207      -1.58439314    
  -1.32730997      -1.32730997     -0.606999993       1912.49207      -1.58439314    
  -1.32730997      -1.32730997     -0.606999993       11863.9385      -1.57376313    
 -0.965201020     -0.965201020     -0.606999993       11863.9385      -1.57376313    
 -0.758352995      -1.13495600     -0.606999993       11863.9385      -1.57376313    
  -1.04286098      -1.56075203     -0.606999993       11863.9385      -1.57376313    
  -1.32730997      -1.32730997     -0.606999993       1532.43445      -1.57970798    
  -1.83825099      -1.83825099     -0.517000020       1532.43445      -1.57970798    
  -2.16155505      -1.44430494     -0.517000020       1532.43445      -1.57970798    
  -1.56075203      -1.04286098     -0.606999993       1532.43445      -1.57970798    
  -1.56075203      -1.04286098     -0.606999993       9683.51758      -1.57208037    
  -1.13495600     -0.758352995     -0.606999993       9683.51758      -1.57208037    
 -0.965201020     -0.965201020     -0.606999993       9683.51758      -1.57208037    
  -1.32730997      -1.32730997     -0.606999993       9683.51758      -1.57208037    
  -1.56075203      -1.04286098     -0.606999993       913.075439      -1.56818879    
  -2.16155505      -1.44430494     -0.517000020       913.075439      -1.56818879    
  -2.40179110     -0.994853973     -0.517000020       913.075439      -1.56818879    
  -1.73421395     -0.718334973     -0.606999993       913.075439      -1.56818879    
  -1.73421395     -0.718334973     -0.606999993       6866.73828      -1.56839085    
  -1.26109600     -0.522363007     -0.606999993       6866.73828      -1.56839085    
  -1.13495600     -0.758352995     -0.606999993       6866.73828      -1.56839085    
  -1.56075203      -1.04286098     -0.606999993       6866.73828      -1.56839085    
  -1.73421395     -0.718334973     -0.606999993       255.038605      -1.50469387    
  -2.40179110     -0.994853973     -0.517000020       255.038605      -1.50469387    
  -2.54972792     -0.507171988     -0.517000020       255.038605      -1.50469387    
  -1.84103203     -0.366203994     -0.606999993       255.038605      -1.50469387    
  -1.84103203     -0.366203994     -0.606999993       3733.21729      -1.55977190    
  -1.33877206     -0.266297996     -0.606999993       3733.21729      -1.55977190    
  -1.26109600     -0.522363007     -0.606999993       3733.21729      -1.55977190    
  -1.73421395     -0.718334973     -0.606999993       3733.21729      -1.55977190    
  -1.84103203     -0.366203994     -0.606999993       270.097046       1.47870409    
  -2.54972792     -0.507171988     -0.517000020       270.097046       1.47870409    
  -2.59967995       0.00000000     -0.517000020       270.097046       1.47870409    
  -1.87709999       0.00000000     -0.606999993       270.097046       1.47870409    
  -1.87709999       0.00000000     -0.606999993       609.884644      -1.48471308    
  -1.36500001       0.00000000     -0.606999993       609.884644      -1.48471308    
  -1.33877206     -0.266297996     -0.606999993       609.884644      -1.48471308    
  -1.84103203     -0.366203994     -0.606999993       609.884644      -1.48471308    
  -1.87709999       0.00000000     -0.606999993       598.096130       1.53062654    
  -2.59967995       0.00000000     -0.517000020       598.096130       1.53062654    
  -2.54972792      0.507171988     -0.517000020       598.096130       1.53062654    
  -1.84103203      0.366203994     -0.606999993       598.096130       1.53062654    
  -1.84103203      0.366203994     -0.606999993       2278.77954       1.55056894    
  -1.33877206      0.266297996     -0.606999993       2278.77954       1.55056894    
  -1.36500001       0.00000000     -0.606999993       2278.77954       1.55056894    
  -1.87709999       0.00000000     -0.606999993       2278.77954       1.55056894    
  -1.84103203      0.366203994     -0.606999993       815.263184       1.55188990    
  -2.54972792      0.507171988     -0.517000020       815.263184       1.55188990    
  -2.40179110      0.994853973     -0.517000020       815.263184       1.55188990    
  -1.73421395      0.718334973     -0.606999993       815.263184       1.55188990    
  -1.73421395      0.718334973     -0.606999993       4831.11865       1.56582606    
  -1.26109600      0.522363007     -0.606999993       4831.11865       1.56582606    
  -1.33877206      0.266297996     -0.606999993       4831.11865       1.56582606    
  -1.84103203      0.366203994     -0.606999993       4831.11865       1.56582606    
  -1.73421395      0.718334973     -0.606999993       992.934692       1.56838131    
  -2.40179110      0.994853973     -0.517000020       992.934692       1.56838131    
  -2.16155505       1.44430494     -0.517000020       992.934692       1.56838131    
  -1.56075203       1.04286098     -0.606999993       992.934692       1.56838131    
  -1.56075203       1.04286098     -0.606999993       7027.18018       1.57174587    
  -1.13495600      0.758352995     -0.606999993       7027.18018       1.57174587    
  -1.26109600      0.522363007     -0.606999993       7027.18018       1.57174587    
  -1.73421395      0.718334973     -0.606999993       7027.18018       1.57174587    
  -1.56075203       1.04286098     -0.606999993       1140.01001       1.58011591    
  -2.16155505       1.44430494     -0.517000020       1140.01001       1.58011591    
  -1.83825099       1.83825099     -0.517000020       1140.01001       1.58011591    
  -1.32730997       1.32730997     -0.606999993       1140.01001       1.58011591    
  -1.32730997       1.32730997     -0.606999993       8868.16504       1.57487690    
 -0.965201020      0.965201020     -0.606999993       8868.16504       1.57487690    
  -1.13495600      0.758352995     -0.606999993       8868.16504       1.57487690    
  -1.56075203       1.04286098     -0.606999993       8868.16504       1.57487690    
  -1.32730997       1.32730997     -0.606999993       1205.77722       1.58664632    
  -1.83825099       1.83825099     -0.517000020       1205.77722       1.58664632    
  -1.44430494       2.16155505     -0.517000020       1205.77722       1.58664632    
  -1.04286098       1.56075203     -0.606999993       1205.77722       1.58664632    
  -1.04286098       1.56075203     -0.606999993       10356.5576       1.57613301    
 -0.758352995       1.13495600     -0.606999993       10356.5576       1.57613301    
 -0.965201020      0.965201020     -0.606999993       10356.5576       1.57613301    
  -1.32730997       1.32730997     -0.606999993       10356.5576       1.57613301    
  -1.04286098       1.56075203     -0.606999993       1211.19629       1.58708596    
  -1.44430494       2.16155505     -0.517000020       1211.19629       1.58708596    
 -0.994853973       2.40179110     -0.517000020       1211.19629       1.58708596    
 -0.718334973       1.73421395     -0.606999993       1211.19629       1.58708596    
 -0.718334973       1.73421395     -0.606999993       11533.7490       1.57583201    
 -0.522363007       1.26109600     -0.606999993       11533.7490       1.57583201    
 -0.758352995       1.13495600     -0.606999993       11533.7490       1.57583201    
  -1.04286098       1.56075203     -0.606999993       11533.7490       1.57583201    
 -0.718334973       1.73421395     -0.606999993       1233.98804       1.58037293    
 -0.994853973       2.40179110     -0.517000020       1233.98804       1.58037293    
 -0.507171988       2.54972792     -0.517000020       1233.98804       1.58037293    
 -0.366203994       1.84103203     -0.606999993       1233.98804       1.58037293    
 -0.366203994       1.84103203     -0.606999993       12462.2500       1.57432806    
 -0.266297996       1.33877206     -0.606999993       12462.2500       1.57432806    
 -0.522363007       1.26109600     -0.606999993       12462.2500       1.57432806    
 -0.718334973       1.73421395     -0.606999993       12462.2500       1.57432806    
 -0.366203994       1.84103203     -0.606999993       1354.00537       1.56941628    
 -0.507171988       2.54972792     -0.517000020       1354.00537       1.56941628    
   0.00000000       2.59967995     -0.517000020       1354.00537       1.56941628    
   0.00000000       1.87709999     -0.606999993       1354.00537       1.56941628    
   0.00000000       1.87709999     -0.606999993       13183.2012       1.57215917    
   0.00000000       1.36500001     -0.606999993       13183.2012       1.57215917    
 -0.266297996       1.33877206     -0.606999993       13183.2012       1.57215917    
 -0.366203994       1.84103203     -0.606999993       13183.2012       1.57215917    
   0.00000000       1.87709999     -0.606999993       1587.27612       1.56054246    
   0.00000000       2.59967995     -0.517000020       1587.27612       1.56054246    
  0.507171988       2.54972792     -0.517000020       1587.27612       1.56054246    
  0.366203994       1.84103203     -0.606999993       1587.27612       1.56054246    
  0.366203994       1.84103203     -0.606999993       13646.5195       1.56997430    
  0.266297996       1.33877206     -0.606999993       13646.5195       1.56997430    
   0.00000000       1.36500001     -0.606999993       13646.5195       1.56997430    
   0.00000000       1.87709999     -0.606999993       13646.5195       1.56997430    
  0.366203994       1.84103203     -0.606999993       1854.80273       1.55648673    
  0.507171988       2.54972792     -0.517000020       1854.80273       1.55648673    
  0.994853973       2.40179110     -0.517000020       1854.80273       1.55648673    
  0.718334973       1.73421395     -0.606999993       1854.80273       1.55648673    
  0.718334973       1.73421395     -0.606999993       13693.3887       1.56833589    
  0.522363007       1.26109600     -0.606999993       13693.3887       1.56833589    
  0.266297996       1.33877206     -0.606999993       13693.3887       1.56833589    
  0.366203994       1.84103203     -0.606999993       13693.3887       1.56833589    
  0.718334973       1.73421395     -0.606999993       2009.35815       1.55605149    
  0.994853973       2.40179110     -0.517000020       2009.35815       1.55605149    
   1.44430494       2.16155505     -0.517000020       2009.35815       1.55605149    
   1.04286098       1.56075203     -0.606999993       2009.35815       1.55605149    
   1.04286098       1.56075203     -0.606999993       13109.9746       1.56759763    
  0.758352995       1.13495600     -0.606999993       13109.9746       1.56759763    
  0.522363007       1.26109600     -0.606999993       13109.9746       1.56759763    
  0.718334973       1.73421395     -0.606999993       13109.9746       1.56759763    
   1.04286098       1.56075203     -0.606999993       1911.19263       1.55792725    
   1.44430494       2.16155505     -0.517000020       1911.19263       1.55792725    
   1.83825099       1.83825099     -0.517000020       1911.19263       1.55792725    
   1.32730997       1.32730997     -0.606999993       1911.19263       1.55792725    
   1.32730997       1.32730997     -0.606999993       11734.6514       1.56795740    
  0.965201020      0.965201020     -0.606999993       11734.6514       1.56795740    
  0.758352995       1.13495600     -0.606999993       11734.6514       1.56795740    
   1.04286098       1.56075203     -0.606999993       11734.6514       1.56795740    
   1.32730997       1.32730997     -0.606999993       1512.67346       1.56239867    
   1.83825099       1.83825099     -0.517000020       1512.67346       1.56239867    
   2.16155505       1.44430494     -0.517000020       1512.67346       1.56239867    
   1.56075203       1.04286098     -0.606999993       1512.67346       1.56239867    
   1.56075203       1.04286098     -0.606999993       9566.85938       1.56963861    
   1.13495600      0.758352995     -0.606999993       9566.85938       1.56963861    
  0.965201020      0.965201020     -0.606999993       9566.85938       1.56963861    
   1.32730997       1.32730997     -0.606999993       9566.85938       1.56963861    
   1.56075203       1.04286098     -0.606999993       903.678833       1.57361519    
   2.16155505       1.44430494     -0.517000020       903.678833       1.57361519    
   2.40179110      0.994853973     -0.517000020       903.678833       1.57361519    
   1.73421395      0.718334973     -0.606999993       903.678833       1.57361519    
   1.73421395      0.718334973     -0.606999993       6789.01074       1.57325602    
   1.26109600      0.522363007     -0.606999993       6789.01074       1.57325602    
   1.13495600      0.758352995     -0.606999993       6789.01074       1.57325602    
   1.56075203       1.04286098     -0.606999993       6789.01074       1.57325602    
   1.73421395      0.718334973     -0.606999993       290.924011       1.62630975    
   2.40179110      0.994853973     -0.517000020       290.924011       1.62630975    
   2.54972792      0.507171988     -0.517000020       290.924011       1.62630975    
   1.84103203      0.366203994     -0.606999993       290.924011       1.62630975    
   1.84103203      0.366203994     -0.606999993       3713.05933       1.58156109    
   1.33877206      0.266297996     -0.606999993       3713.05933       1.58156109    
   1.26109600      0.522363007     -0.606999993       3713.05933       1.58156109    
   1.73421395      0.718334973     -0.606999993       3713.05933       1.58156109    
   1.84103203      0.366203994     -0.606999993       190.164108      -1.69489539    
   2.54972792      0.507171988     -0.517000020       190.164108      -1.69489539    
   2.59967995       0.00000000     -0.517000020       190.164108      -1.69489539    
   1.87709999       0.00000000     -0.606999993       190.164108      -1.69489539    
   1.87709999       0.00000000     -0.606999993       634.011353       1.65029633    
   1.36500001       0.00000000     -0.606999993       634.011353       1.65029633    
   1.33877206      0.266297996     -0.606999993       634.011353       1.65029633    
   1.84103203      0.366203994     -0.606999993       634.011353       1.65029633    
   1.87709999       0.00000000     -0.606999993       517.810486      -1.61468601    
   2.59967995       0.00000000     -0.517000020       517.810486      -1.61468601    
   2.54972792     -0.507171988     -0.517000020       517.810486      -1.61468601    
   1.84103203     -0.366203994     -0.606999993       517.810486      -1.61468601    
   1.84103203     -0.366203994     -0.606999993       2254.31836      -1.59033215    
   1.33877206     -0.266297996     -0.606999993       2254.31836      -1.59033215    
   1.36500001       0.00000000     -0.606999993       2254.31836      -1.59033215    
   1.87709999       0.00000000     -0.606999993       2254.31836      -1.59033215    
   1.84103203     -0.366203994     -0.606999993       778.769470      -1.58968210    
   2.54972792     -0.507171988     -0.517000020       778.769470      -1.58968210    
   2.40179110     -0.994853973     -0.517000020       778.769470      -1.58968210    
   1.73421395     -0.718334973     -0.606999993       778.769470      -1.58968210    
   1.73421395     -0.718334973     -0.606999993       4850.69385      -1.57551932    
   1.26109600     -0.522363007     -0.606999993       4850.69385      -1.57551932    
   1.33877206     -0.266297996     -0.606999993       4850.69385      -1.57551932    
   1.84103203     -0.366203994     -0.606999993       4850.69385      -1.57551932    
   1.73421395     -0.718334973     -0.606999993       1000.29755      -1.57333517    
   2.40179110     -0.994853973     -0.517000020       1000.29755      -1.57333517    
   2.16155505      -1.44430494     -0.517000020       1000.29755      -1.57333517    
   1.56075203      -1.04286098     -0.606999993       1000.29755      -1.57333517    
   1.56075203      -1.04286098     -0.606999993       7103.03711      -1.56989515    
   1.13495600     -0.758352995     -0.606999993       7103.03711      -1.56989515    
   1.26109600     -0.522363007     -0.606999993       7103.03711      -1.56989515    