 VARIABLES="X" "Y" "Z" "abs(p) (Pa)" "angle(p) (rad)"
ZONE N=   2709,E =    2358, F=FEPOINT, ET=QUADRILATERAL
   0.00000000      -5.48999977     -0.157000005       1172.45850       2.17670035    
   0.00000000      -4.76741982     -0.246999994       1172.45850       2.17670035    
  0.930077016      -4.67581606     -0.246999994       1172.45850       2.17670035    
   1.07104599      -5.38451099     -0.157000005       1172.45850       2.17670035    
  -1.07104599      -5.38451099     -0.157000005       1173.57043       2.17575932    
 -0.930077016      -4.67581606     -0.246999994       1173.57043       2.17575932    
   0.00000000      -4.76741982     -0.246999994       1173.57043       2.17575932    
   0.00000000      -5.48999977     -0.157000005       1173.57043       2.17575932    
  -2.10093188      -5.07209921     -0.157000005       1179.28333       2.16811466    
  -1.82441294      -4.40452194     -0.246999994       1179.28333       2.16811466    
 -0.930077016      -4.67581606     -0.246999994       1179.28333       2.16811466    
  -1.07104599      -5.38451099     -0.157000005       1179.28333       2.16811466    
  -3.05008101      -4.56476784     -0.157000005       1175.55847       2.17428589    
  -2.64863706      -3.96396494     -0.246999994       1175.55847       2.17428589    
  -1.82441294      -4.40452194     -0.246999994       1175.55847       2.17428589    
  -2.10093188      -5.07209921     -0.157000005       1175.55847       2.17428589    
  -3.88201594      -3.88201594     -0.157000005       1176.36646       2.17338109    
  -3.37107491      -3.37107491     -0.246999994       1176.36646       2.17338109    
  -2.64863706      -3.96396494     -0.246999994       1176.36646       2.17338109    
  -3.05008101      -4.56476784     -0.157000005       1176.36646       2.17338109    
  -4.56476784      -3.05008101     -0.157000005       1182.54785       2.16422558    
  -3.96396494      -2.64863706     -0.246999994       1182.54785       2.16422558    
  -3.37107491      -3.37107491     -0.246999994       1182.54785       2.16422558    
  -3.88201594      -3.88201594     -0.157000005       1182.54785       2.16422558    
  -5.07209921      -2.10093188     -0.157000005       1176.99719       2.17225695    
  -4.40452194      -1.82441294     -0.246999994       1176.99719       2.17225695    
  -3.96396494      -2.64863706     -0.246999994       1176.99719       2.17225695    
  -4.56476784      -3.05008101     -0.157000005       1176.99719       2.17225695    
  -5.38451099      -1.07104599     -0.157000005       1175.86804       2.17372251    
  -4.67581606     -0.930077016     -0.246999994       1175.86804       2.17372251    
  -4.40452194      -1.82441294     -0.246999994       1175.86804       2.17372251    
  -5.07209921      -2.10093188     -0.157000005       1175.86804       2.17372251    
  -5.48999977       0.00000000     -0.157000005       1180.57471       2.16634417    
  -4.76741982       0.00000000     -0.246999994       1180.57471       2.16634417    
  -4.67581606     -0.930077016     -0.246999994       1180.57471       2.16634417    
  -5.38451099      -1.07104599     -0.157000005       1180.57471       2.16634417    
  -5.38451099       1.07104599     -0.157000005       1180.73645       2.16552663    
  -4.67581606      0.930077016     -0.246999994       1180.73645       2.16552663    
  -4.76741982       0.00000000     -0.246999994       1180.73645       2.16552663    
  -5.48999977       0.00000000     -0.157000005       1180.73645       2.16552663    
  -5.07209921       2.10093188     -0.157000005       1180.11572       2.16576481    
  -4.40452194       1.82441294     -0.246999994       1180.11572       2.16576481    
  -4.67581606      0.930077016     -0.246999994       1180.11572       2.16576481    
  -5.38451099       1.07104599     -0.157000005       1180.11572       2.16576481    
  -4.56476784       3.05008101     -0.157000005       1179.08386       2.16674280    
  -3.96396494       2.64863706     -0.246999994       1179.08386       2.16674280    
  -4.40452194       1.82441294     -0.246999994       1179.08386       2.16674280    
  -5.07209921       2.10093188     -0.157000005       1179.08386       2.16674280    
  -3.88201594       3.88201594     -0.157000005       1174.05249       2.17398047    
  -3.37107491       3.37107491     -0.246999994       1174.05249       2.17398047    
  -3.96396494       2.64863706     -0.246999994       1174.05249       2.17398047    
  -4.56476784       3.05008101     -0.157000005       1174.05249       2.17398047    
  -3.05008101       4.56476784     -0.157000005       1178.26367       2.16785479    
  -2.64863706       3.96396494     -0.246999994       1178.26367       2.16785479    
  -3.37107491       3.37107491     -0.246999994       1178.26367       2.16785479    
  -3.88201594       3.88201594     -0.157000005       1178.26367       2.16785479    
  -2.10093188       5.07209921     -0.157000005       1174.27124       2.17403650    
  -1.82441294       4.40452194     -0.246999994       1174.27124       2.17403650    
  -2.64863706       3.96396494     -0.246999994       1174.27124       2.17403650    
  -3.05008101       4.56476784     -0.157000005       1174.27124       2.17403650    
  -1.07104599       5.38451099     -0.157000005       1178.64844       2.16799021    
 -0.930077016       4.67581606     -0.246999994       1178.64844       2.16799021    
  -1.82441294       4.40452194     -0.246999994       1178.64844       2.16799021    
  -2.10093188       5.07209921     -0.157000005       1178.64844       2.16799021    
   0.00000000       5.48999977     -0.157000005       1174.83228       2.17420006    
   0.00000000       4.76741982     -0.246999994       1174.83228       2.17420006    
 -0.930077016       4.67581606     -0.246999994       1174.83228       2.17420006    
  -1.07104599       5.38451099     -0.157000005       1174.83228       2.17420006    
   1.07104599       5.38451099     -0.157000005       1179.51050       2.16797924    
  0.930077016       4.67581606     -0.246999994       1179.51050       2.16797924    
   0.00000000       4.76741982     -0.246999994       1179.51050       2.16797924    
   0.00000000       5.48999977     -0.157000005       1179.51050       2.16797924    
   2.10093188       5.07209921     -0.157000005       1175.71228       2.17438698    
   1.82441294       4.40452194     -0.246999994       1175.71228       2.17438698    
  0.930077016       4.67581606     -0.246999994       1175.71228       2.17438698    
   1.07104599       5.38451099     -0.157000005       1175.71228       2.17438698    
   3.05008101       4.56476784     -0.157000005       1176.37048       2.17393804    
   2.64863706       3.96396494     -0.246999994       1176.37048       2.17393804    
   1.82441294       4.40452194     -0.246999994       1176.37048       2.17393804    
   2.10093188       5.07209921     -0.157000005       1176.37048       2.17393804    
   3.88201594       3.88201594     -0.157000005       1182.51587       2.16499615    
   3.37107491       3.37107491     -0.246999994       1182.51587       2.16499615    
   2.64863706       3.96396494     -0.246999994       1182.51587       2.16499615    
   3.05008101       4.56476784     -0.157000005       1182.51587       2.16499615    
   4.56476784       3.05008101     -0.157000005       1181.87817       2.16561460    
   3.96396494       2.64863706     -0.246999994       1181.87817       2.16561460    
   3.37107491       3.37107491     -0.246999994       1181.87817       2.16561460    
   3.88201594       3.88201594     -0.157000005       1181.87817       2.16561460    
   5.07209921       2.10093188     -0.157000005       1182.81250       2.16391969    
   4.40452194       1.82441294     -0.246999994       1182.81250       2.16391969    
   3.96396494       2.64863706     -0.246999994       1182.81250       2.16391969    
   4.56476784       3.05008101     -0.157000005       1182.81250       2.16391969    
   5.38451099       1.07104599     -0.157000005       1176.26990       2.17333984    
   4.67581606      0.930077016     -0.246999994       1176.26990       2.17333984    
   4.40452194       1.82441294     -0.246999994       1176.26990       2.17333984    
   5.07209921       2.10093188     -0.157000005       1176.26990       2.17333984    
   5.48999977       0.00000000     -0.157000005       1174.43103       2.17555928    
   4.76741982       0.00000000     -0.246999994       1174.43103       2.17555928    
   4.67581606      0.930077016     -0.246999994       1174.43103       2.17555928    
   5.38451099       1.07104599     -0.157000005       1174.43103       2.17555928    
   5.38451099      -1.07104599     -0.157000005       1173.44458       2.17622447    
   4.67581606     -0.930077016     -0.246999994       1173.44458       2.17622447    
   4.76741982       0.00000000     -0.246999994       1173.44458       2.17622447    
   5.48999977       0.00000000     -0.157000005       1173.44458       2.17622447    
   5.07209921      -2.10093188     -0.157000005       1172.63525       2.17659330    
   4.40452194      -1.82441294     -0.246999994       1172.63525       2.17659330    
   4.67581606     -0.930077016     -0.246999994       1172.63525       2.17659330    
   5.38451099      -1.07104599     -0.157000005       1172.63525       2.17659330    
   4.56476784      -3.05008101     -0.157000005       1172.13171       2.17667699    
   3.96396494      -2.64863706     -0.246999994       1172.13171       2.17667699    
   4.40452194      -1.82441294     -0.246999994       1172.13171       2.17667699    
   5.07209921      -2.10093188     -0.157000005       1172.13171       2.17667699    
   3.88201594      -3.88201594     -0.157000005       1172.48621       2.17582631    
   3.37107491      -3.37107491     -0.246999994       1172.48621       2.17582631    
   3.96396494      -2.64863706     -0.246999994       1172.48621       2.17582631    
   4.56476784      -3.05008101     -0.157000005       1172.48621       2.17582631    
   3.05008101      -4.56476784     -0.157000005       1177.30371       2.16858077    
   2.64863706      -3.96396494     -0.246999994       1177.30371       2.16858077    
   3.37107491      -3.37107491     -0.246999994       1177.30371       2.16858077    
   3.88201594      -3.88201594     -0.157000005       1177.30371       2.16858077    
   2.10093188      -5.07209921     -0.157000005       1172.74060       2.17551064    
   1.82441294      -4.40452194     -0.246999994       1172.74060       2.17551064    
   2.64863706      -3.96396494     -0.246999994       1172.74060       2.17551064    
   3.05008101      -4.56476784     -0.157000005       1172.74060       2.17551064    
   1.07104599      -5.38451099     -0.157000005       1172.21545       2.17665076    
  0.930077016      -4.67581606     -0.246999994       1172.21545       2.17665076    
   1.82441294      -4.40452194     -0.246999994       1172.21545       2.17665076    
   2.10093188      -5.07209921     -0.157000005       1172.21545       2.17665076    
   0.00000000      -1.87709999     -0.606999993       2361.14429       1.74275279    
   0.00000000      -1.36500001     -0.606999993       2361.14429       1.74275279    
  0.266297996      -1.33877206     -0.606999993       2361.14429       1.74275279    
  0.366203994      -1.84103203     -0.606999993       2361.14429       1.74275279    
   0.00000000      -1.87709999     -0.606999993       2124.10889       1.74839592    
   0.00000000      -2.59967995     -0.517000020       2124.10889       1.74839592    
 -0.507171988      -2.54972792     -0.517000020       2124.10889       1.74839592    
 -0.366203994      -1.84103203     -0.606999993       2124.10889       1.74839592    
 -0.366203994      -1.84103203     -0.606999993       2361.50024       1.74273908    
 -0.266297996      -1.33877206     -0.606999993       2361.50024       1.74273908    
   0.00000000      -1.36500001     -0.606999993       2361.50024       1.74273908    
   0.00000000      -1.87709999     -0.606999993       2361.50024       1.74273908    
 -0.366203994      -1.84103203     -0.606999993       2119.49365       1.74874389    
 -0.507171988      -2.54972792     -0.517000020       2119.49365       1.74874389    
 -0.994853973      -2.40179110     -0.517000020       2119.49365       1.74874389    
 -0.718334973      -1.73421395     -0.606999993       2119.49365       1.74874389    
 -0.718334973      -1.73421395     -0.606999993       2359.75342       1.74286222    
 -0.522363007      -1.26109600     -0.606999993       2359.75342       1.74286222    
 -0.266297996      -1.33877206     -0.606999993       2359.75342       1.74286222    
 -0.366203994      -1.84103203     -0.606999993       2359.75342       1.74286222    
 -0.718334973      -1.73421395     -0.606999993       2115.78271       1.74900234    
 -0.994853973      -2.40179110     -0.517000020       2115.78271       1.74900234    
  -1.44430494      -2.16155505     -0.517000020       2115.78271       1.74900234    
  -1.04286098      -1.56075203     -0.606999993       2115.78271       1.74900234    
  -1.04286098      -1.56075203     -0.606999993       2358.82788       1.74290466    
 -0.758352995      -1.13495600     -0.606999993       2358.82788       1.74290466    
 -0.522363007      -1.26109600     -0.606999993       2358.82788       1.74290466    
 -0.718334973      -1.73421395     -0.606999993       2358.82788       1.74290466    
  -1.04286098      -1.56075203     -0.606999993       2117.40527       1.74883413    
  -1.44430494      -2.16155505     -0.517000020       2117.40527       1.74883413    
  -1.83825099      -1.83825099     -0.517000020       2117.40527       1.74883413    
  -1.32730997      -1.32730997     -0.606999993       2117.40527       1.74883413    
  -1.32730997      -1.32730997     -0.606999993       2361.01343       1.74269772    
 -0.965201020     -0.965201020     -0.606999993       2361.01343       1.74269772    
 -0.758352995      -1.13495600     -0.606999993       2361.01343       1.74269772    
  -1.04286098      -1.56075203     -0.606999993       2361.01343       1.74269772    
  -1.32730997      -1.32730997     -0.606999993       2123.39380       1.74832892    
  -1.83825099      -1.83825099     -0.517000020       2123.39380       1.74832892    
  -2.16155505      -1.44430494     -0.517000020       2123.39380       1.74832892    
  -1.56075203      -1.04286098     -0.606999993       2123.39380       1.74832892    
  -1.56075203      -1.04286098     -0.606999993       2365.74805       1.74232662    
  -1.13495600     -0.758352995     -0.606999993       2365.74805       1.74232662    
 -0.965201020     -0.965201020     -0.606999993       2365.74805       1.74232662    
  -1.32730997      -1.32730997     -0.606999993       2365.74805       1.74232662    
  -1.56075203      -1.04286098     -0.606999993       2128.37012       1.74789667    
  -2.16155505      -1.44430494     -0.517000020       2128.37012       1.74789667    
  -2.40179110     -0.994853973     -0.517000020       2128.37012       1.74789667    
  -1.73421395     -0.718334973     -0.606999993       2128.37012       1.74789667    
  -1.73421395     -0.718334973     -0.606999993       2370.01514       1.74199414    
  -1.26109600     -0.522363007     -0.606999993       2370.01514       1.74199414    
  -1.13495600     -0.758352995     -0.606999993       2370.01514       1.74199414    
  -1.56075203      -1.04286098     -0.606999993       2370.01514       1.74199414    
  -1.73421395     -0.718334973     -0.606999993       2128.29004       1.74785721    
  -2.40179110     -0.994853973     -0.517000020       2128.29004       1.74785721    
  -2.54972792     -0.507171988     -0.517000020       2128.29004       1.74785721    
  -1.84103203     -0.366203994     -0.606999993       2128.29004       1.74785721    
  -1.84103203     -0.366203994     -0.606999993       2371.52344       1.74183857    
  -1.33877206     -0.266297996     -0.606999993       2371.52344       1.74183857    
  -1.26109600     -0.522363007     -0.606999993       2371.52344       1.74183857    
  -1.73421395     -0.718334973     -0.606999993       2371.52344       1.74183857    
  -1.84103203     -0.366203994     -0.606999993       2125.74927       1.74800360    
  -2.54972792     -0.507171988     -0.517000020       2125.74927       1.74800360    
  -2.59967995       0.00000000     -0.517000020       2125.74927       1.74800360    
  -1.87709999       0.00000000     -0.606999993       2125.74927       1.74800360    
  -1.87709999       0.00000000     -0.606999993       2371.17651       1.74182963    
  -1.36500001       0.00000000     -0.606999993       2371.17651       1.74182963    
  -1.33877206     -0.266297996     -0.606999993       2371.17651       1.74182963    
  -1.84103203     -0.366203994     -0.606999993       2371.17651       1.74182963    
  -1.87709999       0.00000000     -0.606999993       2125.94092       1.74797070    
  -2.59967995       0.00000000     -0.517000020       2125.94092       1.74797070    
  -2.54972792      0.507171988     -0.517000020       2125.94092       1.74797070    
  -1.84103203      0.366203994     -0.606999993       2125.94092       1.74797070    
  -1.84103203      0.366203994     -0.606999993       2371.39648       1.74179029    
  -1.33877206      0.266297996     -0.606999993       2371.39648       1.74179029    
  -1.36500001       0.00000000     -0.606999993       2371.39648       1.74179029    
  -1.87709999       0.00000000     -0.606999993       2371.39648       1.74179029    
  -1.84103203      0.366203994     -0.606999993       2129.71484       1.74766099    
  -2.54972792      0.507171988     -0.517000020       2129.71484       1.74766099    
  -2.40179110      0.994853973     -0.517000020       2129.71484       1.74766099    
  -1.73421395      0.718334973     -0.606999993       2129.71484       1.74766099    
  -1.73421395      0.718334973     -0.606999993       2372.69287       1.74169064    
  -1.26109600      0.522363007     -0.606999993       2372.69287       1.74169064    
  -1.33877206      0.266297996     -0.606999993       2372.69287       1.74169064    
  -1.84103203      0.366203994     -0.606999993       2372.69287       1.74169064    
  -1.73421395      0.718334973     -0.606999993       2132.36987       1.74746895    
  -2.40179110      0.994853973     -0.517000020       2132.36987       1.74746895    
  -2.16155505       1.44430494     -0.517000020       2132.36987       1.74746895    
  -1.56075203       1.04286098     -0.606999993       2132.36987       1.74746895    
  -1.56075203       1.04286098     -0.606999993       2372.99609       1.74165201    
  -1.13495600      0.758352995     -0.606999993       2372.99609       1.74165201    
  -1.26109600      0.522363007     -0.606999993       2372.99609       1.74165201    
  -1.73421395      0.718334973     -0.606999993       2372.99609       1.74165201    
  -1.56075203       1.04286098     -0.606999993       2129.65771       1.74767351    
  -2.16155505       1.44430494     -0.517000020       2129.65771       1.74767351    
  -1.83825099       1.83825099     -0.517000020       2129.65771       1.74767351    
  -1.32730997       1.32730997     -0.606999993       2129.65771       1.74767351    
  -1.32730997       1.32730997     -0.606999993       2370.66431       1.74180102    
 -0.965201020      0.965201020     -0.606999993       2370.66431       1.74180102    
  -1.13495600      0.758352995     -0.606999993       2370.66431       1.74180102    
  -1.56075203       1.04286098     -0.606999993       2370.66431       1.74180102    
  -1.32730997       1.32730997     -0.606999993       2124.16113       1.74809039    
  -1.83825099       1.83825099     -0.517000020       2124.16113       1.74809039    
  -1.44430494       2.16155505     -0.517000020       2124.16113       1.74809039    
  -1.04286098       1.56075203     -0.606999993       2124.16113       1.74809039    
  -1.04286098       1.56075203     -0.606999993       2367.02710       1.74205446    
 -0.758352995       1.13495600     -0.606999993       2367.02710       1.74205446    
 -0.965201020      0.965201020     -0.606999993       2367.02710       1.74205446    
  -1.32730997       1.32730997     -0.606999993       2367.02710       1.74205446    
  -1.04286098       1.56075203     -0.606999993       2121.85449       1.74827754    
  -1.44430494       2.16155505     -0.517000020       2121.85449       1.74827754    
 -0.994853973       2.40179110     -0.517000020       2121.85449       1.74827754    
 -0.718334973       1.73421395     -0.606999993       2121.85449       1.74827754    
 -0.718334973       1.73421395     -0.606999993       2365.08838       1.74218190    
 -0.522363007       1.26109600     -0.606999993       2365.08838       1.74218190    
 -0.758352995       1.13495600     -0.606999993       2365.08838       1.74218190    
  -1.04286098       1.56075203     -0.606999993       2365.08838       1.74218190    
 -0.718334973       1.73421395     -0.606999993       2124.87061       1.74806881    
 -0.994853973       2.40179110     -0.517000020       2124.87061       1.74806881    
 -0.507171988       2.54972792     -0.517000020       2124.87061       1.74806881    
 -0.366203994       1.84103203     -0.606999993       2124.87061       1.74806881    
 -0.366203994       1.84103203     -0.606999993       2366.01294       1.74212360    
 -0.266297996       1.33877206     -0.606999993       2366.01294       1.74212360    
 -0.522363007       1.26109600     -0.606999993       2366.01294       1.74212360    
 -0.718334973       1.73421395     -0.606999993       2366.01294       1.74212360    
 -0.366203994       1.84103203     -0.606999993       2129.29492       1.74774778    
 -0.507171988       2.54972792     -0.517000020       2129.29492       1.74774778    
   0.00000000       2.59967995     -0.517000020       2129.29492       1.74774778    
   0.00000000       1.87709999     -0.606999993       2129.29492       1.74774778    
   0.00000000       1.87709999     -0.606999993       2367.88013       1.74200487    
   0.00000000       1.36500001     -0.606999993       2367.88013       1.74200487    
 -0.266297996       1.33877206     -0.606999993       2367.88013       1.74200487    
 -0.366203994       1.84103203     -0.606999993       2367.88013       1.74200487    
   0.00000000       1.87709999     -0.606999993       2129.43750       1.74774218    
   0.00000000       2.59967995     -0.517000020       2129.43750       1.74774218    
  0.507171988       2.54972792     -0.517000020       2129.43750       1.74774218    
  0.366203994       1.84103203     -0.606999993       2129.43750       1.74774218    
  0.366203994       1.84103203     -0.606999993       2368.05005       1.74198675    
  0.266297996       1.33877206     -0.606999993       2368.05005       1.74198675    
   0.00000000       1.36500001     -0.606999993       2368.05005       1.74198675    
   0.00000000       1.87709999     -0.606999993       2368.05005       1.74198675    
  0.366203994       1.84103203     -0.606999993       2125.29541       1.74806786    
  0.507171988       2.54972792     -0.517000020       2125.29541       1.74806786    
  0.994853973       2.40179110     -0.517000020       2125.29541       1.74806786    
  0.718334973       1.73421395     -0.606999993       2125.29541       1.74806786    
  0.718334973       1.73421395     -0.606999993       2366.50708       1.74210751    
  0.522363007       1.26109600     -0.606999993       2366.50708       1.74210751    
  0.266297996       1.33877206     -0.606999993       2366.50708       1.74210751    
  0.366203994       1.84103203     -0.606999993       2366.50708       1.74210751    
  0.718334973       1.73421395     -0.606999993       2122.50073       1.74826992    
  0.994853973       2.40179110     -0.517000020       2122.50073       1.74826992    
   1.44430494       2.16155505     -0.517000020       2122.50073       1.74826992    
   1.04286098       1.56075203     -0.606999993       2122.50073       1.74826992    
   1.04286098       1.56075203     -0.606999993       2365.84448       1.74215519    
  0.758352995       1.13495600     -0.606999993       2365.84448       1.74215519    
  0.522363007       1.26109600     -0.606999993       2365.84448       1.74215519    
  0.718334973       1.73421395     -0.606999993       2365.84448       1.74215519    
   1.04286098       1.56075203     -0.606999993       2124.92188       1.74808586    
   1.44430494       2.16155505     -0.517000020       2124.92188       1.74808586    
   1.83825099       1.83825099     -0.517000020       2124.92188       1.74808586    
   1.32730997       1.32730997     -0.606999993       2124.92188       1.74808586    
   1.32730997       1.32730997     -0.606999993       2367.88110       1.74201643    
  0.965201020      0.965201020     -0.606999993       2367.88110       1.74201643    
  0.758352995       1.13495600     -0.606999993       2367.88110       1.74201643    
   1.04286098       1.56075203     -0.606999993       2367.88110       1.74201643    
   1.32730997       1.32730997     -0.606999993       2130.37476       1.74767447    
   1.83825099       1.83825099     -0.517000020       2130.37476       1.74767447    
   2.16155505       1.44430494     -0.517000020       2130.37476       1.74767447    
   1.56075203       1.04286098     -0.606999993       2130.37476       1.74767447    
   1.56075203       1.04286098     -0.606999993       2371.40112       1.74178779    
   1.13495600      0.758352995     -0.606999993       2371.40112       1.74178779    
  0.965201020      0.965201020     -0.606999993       2371.40112       1.74178779    
   1.32730997       1.32730997     -0.606999993       2371.40112       1.74178779    
   1.56075203       1.04286098     -0.606999993       2132.82397       1.74750149    
   2.16155505       1.44430494     -0.517000020       2132.82397       1.74750149    
   2.40179110      0.994853973     -0.517000020       2132.82397       1.74750149    
   1.73421395      0.718334973     -0.606999993       2132.82397       1.74750149    
   1.73421395      0.718334973     -0.606999993       2373.37134       1.74166358    
   1.26109600      0.522363007     -0.606999993       2373.37134       1.74166358    
   1.13495600      0.758352995     -0.606999993       2373.37134       1.74166358    
   1.56075203       1.04286098     -0.606999993       2373.37134       1.74166358    
   1.73421395      0.718334973     -0.606999993       2129.72192       1.74776423    
   2.40179110      0.994853973     -0.517000020       2129.72192       1.74776423    
   2.54972792      0.507171988     -0.517000020       2129.72192       1.74776423    
   1.84103203      0.366203994     -0.606999993       2129.72192       1.74776423    
   1.84103203      0.366203994     -0.606999993       2372.52734       1.74170864    
   1.33877206      0.266297996     -0.606999993       2372.52734       1.74170864    
   1.26109600      0.522363007     -0.606999993       2372.52734       1.74170864    
   1.73421395      0.718334973     -0.606999993       2372.52734       1.74170864    
   1.84103203      0.366203994     -0.606999993       2125.44141       1.74812317    
   2.54972792      0.507171988     -0.517000020       2125.44141       1.74812317    
   2.59967995       0.00000000     -0.517000020       2125.44141       1.74812317    
   1.87709999       0.00000000     -0.606999993       2125.44141       1.74812317    
   1.87709999       0.00000000     -0.606999993       2370.67554       1.74185824    
   1.36500001       0.00000000     -0.606999993       2370.67554       1.74185824    
   1.33877206      0.266297996     -0.606999993       2370.67554       1.74185824    
   1.84103203      0.366203994     -0.606999993       2370.67554       1.74185824    
   1.87709999       0.00000000     -0.606999993       2124.78882       1.74819350    
   2.59967995       0.00000000     -0.517000020       2124.78882       1.74819350    
   2.54972792     -0.507171988     -0.517000020       2124.78882       1.74819350    
   1.84103203     -0.366203994     -0.606999993       2124.78882       1.74819350    
   1.84103203     -0.366203994     -0.606999993       2369.92700       1.74192536    
   1.33877206     -0.266297996     -0.606999993       2369.92700       1.74192536    
   1.36500001       0.00000000     -0.606999993       2369.92700       1.74192536    
   1.87709999       0.00000000     -0.606999993       2369.92700       1.74192536    
   1.84103203     -0.366203994     -0.606999993       2126.97559       1.74804413    
   2.54972792     -0.507171988     -0.517000020       2126.97559       1.74804413    
   2.40179110     -0.994853973     -0.517000020       2126.97559       1.74804413    
   1.73421395     -0.718334973     -0.606999993       2126.97559       1.74804413    
   1.73421395     -0.718334973     -0.606999993       2369.83374       1.74195409    
   1.26109600     -0.522363007     -0.606999993       2369.83374       1.74195409    
   1.33877206     -0.266297996     -0.606999993       2369.83374       1.74195409    
   1.84103203     -0.366203994     -0.606999993       2369.83374       1.74195409    
   1.73421395     -0.718334973     -0.606999993       2126.81909       1.74807250    
   2.40179110     -0.994853973     -0.517000020       2126.81909       1.74807250    
   2.16155505      -1.44430494     -0.517000020       2126.81909       1.74807250    
   1.56075203      -1.04286098     -0.606999993       2126.81909       1.74807250    
   1.56075203      -1.04286098     -0.606999993       2368.08105       1.74211419    
   1.13495600     -0.758352995     -0.606999993       2368.08105       1.74211419    
   1.26109600     -0.522363007     -0.606999993       2368.08105       1.74211419    