 VARIABLES="X" "Y" "Z" "abs(p) (Pa)" "angle(p) (rad)"
ZONE N=   2709,E =    2358, F=FEPOINT, ET=QUADRILATERAL
   0.00000000      -5.48999977     -0.157000005       7.86210251      -1.56379163    
   0.00000000      -4.76741982     -0.246999994       7.86210251      -1.56379163    
  0.930077016      -4.67581606     -0.246999994       7.86210251      -1.56379163    
   1.07104599      -5.38451099     -0.157000005       7.86210251      -1.56379163    
  -1.07104599      -5.38451099     -0.157000005       8.08900070       1.58237815    
 -0.930077016      -4.67581606     -0.246999994       8.08900070       1.58237815    
   0.00000000      -4.76741982     -0.246999994       8.08900070       1.58237815    
   0.00000000      -5.48999977     -0.157000005       8.08900070       1.58237815    
  -2.10093188      -5.07209921     -0.157000005       23.3344288       1.60591745    
  -1.82441294      -4.40452194     -0.246999994       23.3344288       1.60591745    
 -0.930077016      -4.67581606     -0.246999994       23.3344288       1.60591745    
  -1.07104599      -5.38451099     -0.157000005       23.3344288       1.60591745    
  -3.05008101      -4.56476784     -0.157000005       35.6963921       1.59485996    
  -2.64863706      -3.96396494     -0.246999994       35.6963921       1.59485996    
  -1.82441294      -4.40452194     -0.246999994       35.6963921       1.59485996    
  -2.10093188      -5.07209921     -0.157000005       35.6963921       1.59485996    
  -3.88201594      -3.88201594     -0.157000005       47.4638290       1.60157967    
  -3.37107491      -3.37107491     -0.246999994       47.4638290       1.60157967    
  -2.64863706      -3.96396494     -0.246999994       47.4638290       1.60157967    
  -3.05008101      -4.56476784     -0.157000005       47.4638290       1.60157967    
  -4.56476784      -3.05008101     -0.157000005       59.1997452       1.60268366    
  -3.96396494      -2.64863706     -0.246999994       59.1997452       1.60268366    
  -3.37107491      -3.37107491     -0.246999994       59.1997452       1.60268366    
  -3.88201594      -3.88201594     -0.157000005       59.1997452       1.60268366    
  -5.07209921      -2.10093188     -0.157000005       66.8618240       1.60072768    
  -4.40452194      -1.82441294     -0.246999994       66.8618240       1.60072768    
  -3.96396494      -2.64863706     -0.246999994       66.8618240       1.60072768    
  -4.56476784      -3.05008101     -0.157000005       66.8618240       1.60072768    
  -5.38451099      -1.07104599     -0.157000005       73.0717010       1.59892035    
  -4.67581606     -0.930077016     -0.246999994       73.0717010       1.59892035    
  -4.40452194      -1.82441294     -0.246999994       73.0717010       1.59892035    
  -5.07209921      -2.10093188     -0.157000005       73.0717010       1.59892035    
  -5.48999977       0.00000000     -0.157000005       76.3800583       1.60209215    
  -4.76741982       0.00000000     -0.246999994       76.3800583       1.60209215    
  -4.67581606     -0.930077016     -0.246999994       76.3800583       1.60209215    
  -5.38451099      -1.07104599     -0.157000005       76.3800583       1.60209215    
  -5.38451099       1.07104599     -0.157000005       76.6150131       1.60337329    
  -4.67581606      0.930077016     -0.246999994       76.6150131       1.60337329    
  -4.76741982       0.00000000     -0.246999994       76.6150131       1.60337329    
  -5.48999977       0.00000000     -0.157000005       76.6150131       1.60337329    
  -5.07209921       2.10093188     -0.157000005       74.8828735       1.60214531    
  -4.40452194       1.82441294     -0.246999994       74.8828735       1.60214531    
  -4.67581606      0.930077016     -0.246999994       74.8828735       1.60214531    
  -5.38451099       1.07104599     -0.157000005       74.8828735       1.60214531    
  -4.56476784       3.05008101     -0.157000005       68.7084579       1.60784447    
  -3.96396494       2.64863706     -0.246999994       68.7084579       1.60784447    
  -4.40452194       1.82441294     -0.246999994       68.7084579       1.60784447    
  -5.07209921       2.10093188     -0.157000005       68.7084579       1.60784447    
  -3.88201594       3.88201594     -0.157000005       58.9105873       1.59738410    
  -3.37107491       3.37107491     -0.246999994       58.9105873       1.59738410    
  -3.96396494       2.64863706     -0.246999994       58.9105873       1.59738410    
  -4.56476784       3.05008101     -0.157000005       58.9105873       1.59738410    
  -3.05008101       4.56476784     -0.157000005       48.5829964       1.60861695    
  -2.64863706       3.96396494     -0.246999994       48.5829964       1.60861695    
  -3.37107491       3.37107491     -0.246999994       48.5829964       1.60861695    
  -3.88201594       3.88201594     -0.157000005       48.5829964       1.60861695    
  -2.10093188       5.07209921     -0.157000005       35.5347748       1.59130883    
  -1.82441294       4.40452194     -0.246999994       35.5347748       1.59130883    
  -2.64863706       3.96396494     -0.246999994       35.5347748       1.59130883    
  -3.05008101       4.56476784     -0.157000005       35.5347748       1.59130883    
  -1.07104599       5.38451099     -0.157000005       22.9778557       1.60901463    
 -0.930077016       4.67581606     -0.246999994       22.9778557       1.60901463    
  -1.82441294       4.40452194     -0.246999994       22.9778557       1.60901463    
  -2.10093188       5.07209921     -0.157000005       22.9778557       1.60901463    
   0.00000000       5.48999977     -0.157000005       7.81132603       1.56928396    
   0.00000000       4.76741982     -0.246999994       7.81132603       1.56928396    
 -0.930077016       4.67581606     -0.246999994       7.81132603       1.56928396    
  -1.07104599       5.38451099     -0.157000005       7.81132603       1.56928396    
   1.07104599       5.38451099     -0.157000005       8.20565414      -1.56353641    
  0.930077016       4.67581606     -0.246999994       8.20565414      -1.56353641    
   0.00000000       4.76741982     -0.246999994       8.20565414      -1.56353641    
   0.00000000       5.48999977     -0.157000005       8.20565414      -1.56353641    
   2.10093188       5.07209921     -0.157000005       22.8769703      -1.53675544    
   1.82441294       4.40452194     -0.246999994       22.8769703      -1.53675544    
  0.930077016       4.67581606     -0.246999994       22.8769703      -1.53675544    
   1.07104599       5.38451099     -0.157000005       22.8769703      -1.53675544    
   3.05008101       4.56476784     -0.157000005       35.6738434      -1.54949093    
   2.64863706       3.96396494     -0.246999994       35.6738434      -1.54949093    
   1.82441294       4.40452194     -0.246999994       35.6738434      -1.54949093    
   2.10093188       5.07209921     -0.157000005       35.6738434      -1.54949093    
   3.88201594       3.88201594     -0.157000005       48.7984657      -1.53183424    
   3.37107491       3.37107491     -0.246999994       48.7984657      -1.53183424    
   2.64863706       3.96396494     -0.246999994       48.7984657      -1.53183424    
   3.05008101       4.56476784     -0.157000005       48.7984657      -1.53183424    
   4.56476784       3.05008101     -0.157000005       59.7291832      -1.54290235    
   3.96396494       2.64863706     -0.246999994       59.7291832      -1.54290235    
   3.37107491       3.37107491     -0.246999994       59.7291832      -1.54290235    
   3.88201594       3.88201594     -0.157000005       59.7291832      -1.54290235    
   5.07209921       2.10093188     -0.157000005       68.7458649      -1.53340983    
   4.40452194       1.82441294     -0.246999994       68.7458649      -1.53340983    
   3.96396494       2.64863706     -0.246999994       68.7458649      -1.53340983    
   4.56476784       3.05008101     -0.157000005       68.7458649      -1.53340983    
   5.38451099       1.07104599     -0.157000005       73.7755966      -1.54440391    
   4.67581606      0.930077016     -0.246999994       73.7755966      -1.54440391    
   4.40452194       1.82441294     -0.246999994       73.7755966      -1.54440391    
   5.07209921       2.10093188     -0.157000005       73.7755966      -1.54440391    
   5.48999977       0.00000000     -0.157000005       75.3049545      -1.54245889    
   4.76741982       0.00000000     -0.246999994       75.3049545      -1.54245889    
   4.67581606      0.930077016     -0.246999994       75.3049545      -1.54245889    
   5.38451099       1.07104599     -0.157000005       75.3049545      -1.54245889    
   5.38451099      -1.07104599     -0.157000005       75.1283340      -1.54483223    
   4.67581606     -0.930077016     -0.246999994       75.1283340      -1.54483223    
   4.76741982       0.00000000     -0.246999994       75.1283340      -1.54483223    
   5.48999977       0.00000000     -0.157000005       75.1283340      -1.54483223    
   5.07209921      -2.10093188     -0.157000005       73.0464554      -1.54223645    
   4.40452194      -1.82441294     -0.246999994       73.0464554      -1.54223645    
   4.67581606     -0.930077016     -0.246999994       73.0464554      -1.54223645    
   5.38451099      -1.07104599     -0.157000005       73.0464554      -1.54223645    
   4.56476784      -3.05008101     -0.157000005       66.7622757      -1.54110396    
   3.96396494      -2.64863706     -0.246999994       66.7622757      -1.54110396    
   4.40452194      -1.82441294     -0.246999994       66.7622757      -1.54110396    
   5.07209921      -2.10093188     -0.157000005       66.7622757      -1.54110396    
   3.88201594      -3.88201594     -0.157000005       58.1502533      -1.54208326    
   3.37107491      -3.37107491     -0.246999994       58.1502533      -1.54208326    
   3.96396494      -2.64863706     -0.246999994       58.1502533      -1.54208326    
   4.56476784      -3.05008101     -0.157000005       58.1502533      -1.54208326    
   3.05008101      -4.56476784     -0.157000005       48.1535492      -1.53605533    
   2.64863706      -3.96396494     -0.246999994       48.1535492      -1.53605533    
   3.37107491      -3.37107491     -0.246999994       48.1535492      -1.53605533    
   3.88201594      -3.88201594     -0.157000005       48.1535492      -1.53605533    
   2.10093188      -5.07209921     -0.157000005       35.4902802      -1.54715908    
   1.82441294      -4.40452194     -0.246999994       35.4902802      -1.54715908    
   2.64863706      -3.96396494     -0.246999994       35.4902802      -1.54715908    
   3.05008101      -4.56476784     -0.157000005       35.4902802      -1.54715908    
   1.07104599      -5.38451099     -0.157000005       22.7590122      -1.54357874    
  0.930077016      -4.67581606     -0.246999994       22.7590122      -1.54357874    
   1.82441294      -4.40452194     -0.246999994       22.7590122      -1.54357874    
   2.10093188      -5.07209921     -0.157000005       22.7590122      -1.54357874    
   0.00000000      -1.87709999     -0.606999993       122.866074      -1.55046463    
   0.00000000      -1.36500001     -0.606999993       122.866074      -1.55046463    
  0.266297996      -1.33877206     -0.606999993       122.866074      -1.55046463    
  0.366203994      -1.84103203     -0.606999993       122.866074      -1.55046463    
   0.00000000      -1.87709999     -0.606999993       34.5318985       1.53190136    
   0.00000000      -2.59967995     -0.517000020       34.5318985       1.53190136    
 -0.507171988      -2.54972792     -0.517000020       34.5318985       1.53190136    
 -0.366203994      -1.84103203     -0.606999993       34.5318985       1.53190136    
 -0.366203994      -1.84103203     -0.606999993       182.551178       1.55719829    
 -0.266297996      -1.33877206     -0.606999993       182.551178       1.55719829    
   0.00000000      -1.36500001     -0.606999993       182.551178       1.55719829    
   0.00000000      -1.87709999     -0.606999993       182.551178       1.55719829    
 -0.366203994      -1.84103203     -0.606999993       63.7007904       1.55341673    
 -0.507171988      -2.54972792     -0.517000020       63.7007904       1.55341673    
 -0.994853973      -2.40179110     -0.517000020       63.7007904       1.55341673    
 -0.718334973      -1.73421395     -0.606999993       63.7007904       1.55341673    
 -0.718334973      -1.73421395     -0.606999993       465.472443       1.56741154    
 -0.522363007      -1.26109600     -0.606999993       465.472443       1.56741154    
 -0.266297996      -1.33877206     -0.606999993       465.472443       1.56741154    
 -0.366203994      -1.84103203     -0.606999993       465.472443       1.56741154    
 -0.718334973      -1.73421395     -0.606999993       69.0022888       1.56307137    
 -0.994853973      -2.40179110     -0.517000020       69.0022888       1.56307137    
  -1.44430494      -2.16155505     -0.517000020       69.0022888       1.56307137    
  -1.04286098      -1.56075203     -0.606999993       69.0022888       1.56307137    
  -1.04286098      -1.56075203     -0.606999993       706.947510       1.57078791    
 -0.758352995      -1.13495600     -0.606999993       706.947510       1.57078791    
 -0.522363007      -1.26109600     -0.606999993       706.947510       1.57078791    
 -0.718334973      -1.73421395     -0.606999993       706.947510       1.57078791    
  -1.04286098      -1.56075203     -0.606999993       61.2613182       1.57253659    
  -1.44430494      -2.16155505     -0.517000020       61.2613182       1.57253659    
  -1.83825099      -1.83825099     -0.517000020       61.2613182       1.57253659    
  -1.32730997      -1.32730997     -0.606999993       61.2613182       1.57253659    
  -1.32730997      -1.32730997     -0.606999993       904.883179       1.57269180    
 -0.965201020     -0.965201020     -0.606999993       904.883179       1.57269180    
 -0.758352995      -1.13495600     -0.606999993       904.883179       1.57269180    
  -1.04286098      -1.56075203     -0.606999993       904.883179       1.57269180    
  -1.32730997      -1.32730997     -0.606999993       54.0853958       1.58056438    
  -1.83825099      -1.83825099     -0.517000020       54.0853958       1.58056438    
  -2.16155505      -1.44430494     -0.517000020       54.0853958       1.58056438    
  -1.56075203      -1.04286098     -0.606999993       54.0853958       1.58056438    
  -1.56075203      -1.04286098     -0.606999993       1066.33777       1.57360291    
  -1.13495600     -0.758352995     -0.606999993       1066.33777       1.57360291    
 -0.965201020     -0.965201020     -0.606999993       1066.33777       1.57360291    
  -1.32730997      -1.32730997     -0.606999993       1066.33777       1.57360291    
  -1.56075203      -1.04286098     -0.606999993       57.4373131       1.58096099    
  -2.16155505      -1.44430494     -0.517000020       57.4373131       1.58096099    
  -2.40179110     -0.994853973     -0.517000020       57.4373131       1.58096099    
  -1.73421395     -0.718334973     -0.606999993       57.4373131       1.58096099    
  -1.73421395     -0.718334973     -0.606999993       1199.23230       1.57362962    
  -1.26109600     -0.522363007     -0.606999993       1199.23230       1.57362962    
  -1.13495600     -0.758352995     -0.606999993       1199.23230       1.57362962    
  -1.56075203      -1.04286098     -0.606999993       1199.23230       1.57362962    
  -1.73421395     -0.718334973     -0.606999993       69.1369095       1.57473803    
  -2.40179110     -0.994853973     -0.517000020       69.1369095       1.57473803    
  -2.54972792     -0.507171988     -0.517000020       69.1369095       1.57473803    
  -1.84103203     -0.366203994     -0.606999993       69.1369095       1.57473803    
  -1.84103203     -0.366203994     -0.606999993       1302.26355       1.57297087    
  -1.33877206     -0.266297996     -0.606999993       1302.26355       1.57297087    
  -1.26109600     -0.522363007     -0.606999993       1302.26355       1.57297087    
  -1.73421395     -0.718334973     -0.606999993       1302.26355       1.57297087    
  -1.84103203     -0.366203994     -0.606999993       82.7824402       1.56671822    
  -2.54972792     -0.507171988     -0.517000020       82.7824402       1.56671822    
  -2.59967995       0.00000000     -0.517000020       82.7824402       1.56671822    
  -1.87709999       0.00000000     -0.606999993       82.7824402       1.56671822    
  -1.87709999       0.00000000     -0.606999993       1367.20862       1.57192218    
  -1.36500001       0.00000000     -0.606999993       1367.20862       1.57192218    
  -1.33877206     -0.266297996     -0.606999993       1367.20862       1.57192218    
  -1.84103203     -0.366203994     -0.606999993       1367.20862       1.57192218    
  -1.87709999       0.00000000     -0.606999993       91.5708466       1.55874944    
  -2.59967995       0.00000000     -0.517000020       91.5708466       1.55874944    
  -2.54972792      0.507171988     -0.517000020       91.5708466       1.55874944    
  -1.84103203      0.366203994     -0.606999993       91.5708466       1.55874944    
  -1.84103203      0.366203994     -0.606999993       1383.69006       1.57078946    
  -1.33877206      0.266297996     -0.606999993       1383.69006       1.57078946    
  -1.36500001       0.00000000     -0.606999993       1383.69006       1.57078946    
  -1.87709999       0.00000000     -0.606999993       1383.69006       1.57078946    
  -1.84103203      0.366203994     -0.606999993       92.0211563       1.55151117    
  -2.54972792      0.507171988     -0.517000020       92.0211563       1.55151117    
  -2.40179110      0.994853973     -0.517000020       92.0211563       1.55151117    
  -1.73421395      0.718334973     -0.606999993       92.0211563       1.55151117    
  -1.73421395      0.718334973     -0.606999993       1345.42151       1.56983459    
  -1.26109600      0.522363007     -0.606999993       1345.42151       1.56983459    
  -1.33877206      0.266297996     -0.606999993       1345.42151       1.56983459    
  -1.84103203      0.366203994     -0.606999993       1345.42151       1.56983459    
  -1.73421395      0.718334973     -0.606999993       85.3424454       1.54657960    
  -2.40179110      0.994853973     -0.517000020       85.3424454       1.54657960    
  -2.16155505       1.44430494     -0.517000020       85.3424454       1.54657960    
  -1.56075203       1.04286098     -0.606999993       85.3424454       1.54657960    
  -1.56075203       1.04286098     -0.606999993       1252.95532       1.56926537    
  -1.13495600      0.758352995     -0.606999993       1252.95532       1.56926537    
  -1.26109600      0.522363007     -0.606999993       1252.95532       1.56926537    
  -1.73421395      0.718334973     -0.606999993       1252.95532       1.56926537    
  -1.56075203       1.04286098     -0.606999993       76.8064041       1.54695225    
  -2.16155505       1.44430494     -0.517000020       76.8064041       1.54695225    
  -1.83825099       1.83825099     -0.517000020       76.8064041       1.54695225    
  -1.32730997       1.32730997     -0.606999993       76.8064041       1.54695225    
  -1.32730997       1.32730997     -0.606999993       1110.82031       1.56924367    
 -0.965201020      0.965201020     -0.606999993       1110.82031       1.56924367    
  -1.13495600      0.758352995     -0.606999993       1110.82031       1.56924367    
  -1.56075203       1.04286098     -0.606999993       1110.82031       1.56924367    
  -1.32730997       1.32730997     -0.606999993       71.5906372       1.55454516    
  -1.83825099       1.83825099     -0.517000020       71.5906372       1.55454516    
  -1.44430494       2.16155505     -0.517000020       71.5906372       1.55454516    
  -1.04286098       1.56075203     -0.606999993       71.5906372       1.55454516    
  -1.04286098       1.56075203     -0.606999993       923.884155       1.56990683    
 -0.758352995       1.13495600     -0.606999993       923.884155       1.56990683    
 -0.965201020      0.965201020     -0.606999993       923.884155       1.56990683    
  -1.32730997       1.32730997     -0.606999993       923.884155       1.56990683    
  -1.04286098       1.56075203     -0.606999993       64.1738434       1.56614339    
  -1.44430494       2.16155505     -0.517000020       64.1738434       1.56614339    
 -0.994853973       2.40179110     -0.517000020       64.1738434       1.56614339    
 -0.718334973       1.73421395     -0.606999993       64.1738434       1.56614339    
 -0.718334973       1.73421395     -0.606999993       693.186768       1.57148194    
 -0.522363007       1.26109600     -0.606999993       693.186768       1.57148194    
 -0.758352995       1.13495600     -0.606999993       693.186768       1.57148194    
  -1.04286098       1.56075203     -0.606999993       693.186768       1.57148194    
 -0.718334973       1.73421395     -0.606999993       45.3155251       1.58249938    
 -0.994853973       2.40179110     -0.517000020       45.3155251       1.58249938    
 -0.507171988       2.54972792     -0.517000020       45.3155251       1.58249938    
 -0.366203994       1.84103203     -0.606999993       45.3155251       1.58249938    
 -0.366203994       1.84103203     -0.606999993       422.532684       1.57490051    
 -0.266297996       1.33877206     -0.606999993       422.532684       1.57490051    
 -0.522363007       1.26109600     -0.606999993       422.532684       1.57490051    
 -0.718334973       1.73421395     -0.606999993       422.532684       1.57490051    
 -0.366203994       1.84103203     -0.606999993       8.34358406       1.70687878    
 -0.507171988       2.54972792     -0.517000020       8.34358406       1.70687878    
   0.00000000       2.59967995     -0.517000020       8.34358406       1.70687878    
   0.00000000       1.87709999     -0.606999993       8.34358406       1.70687878    
   0.00000000       1.87709999     -0.606999993       123.182755       1.59120774    
   0.00000000       1.36500001     -0.606999993       123.182755       1.59120774    
 -0.266297996       1.33877206     -0.606999993       123.182755       1.59120774    
 -0.366203994       1.84103203     -0.606999993       123.182755       1.59120774    
   0.00000000       1.87709999     -0.606999993       33.5593758      -1.61086202    
   0.00000000       2.59967995     -0.517000020       33.5593758      -1.61086202    
  0.507171988       2.54972792     -0.517000020       33.5593758      -1.61086202    
  0.366203994       1.84103203     -0.606999993       33.5593758      -1.61086202    
  0.366203994       1.84103203     -0.606999993       180.887756      -1.58455372    
  0.266297996       1.33877206     -0.606999993       180.887756      -1.58455372    
   0.00000000       1.36500001     -0.606999993       180.887756      -1.58455372    
   0.00000000       1.87709999     -0.606999993       180.887756      -1.58455372    
  0.366203994       1.84103203     -0.606999993       62.3929482      -1.58859658    
  0.507171988       2.54972792     -0.517000020       62.3929482      -1.58859658    
  0.994853973       2.40179110     -0.517000020       62.3929482      -1.58859658    
  0.718334973       1.73421395     -0.606999993       62.3929482      -1.58859658    
  0.718334973       1.73421395     -0.606999993       463.320526      -1.57420707    
  0.522363007       1.26109600     -0.606999993       463.320526      -1.57420707    
  0.266297996       1.33877206     -0.606999993       463.320526      -1.57420707    
  0.366203994       1.84103203     -0.606999993       463.320526      -1.57420707    
  0.718334973       1.73421395     -0.606999993       67.6083221      -1.57895970    
  0.994853973       2.40179110     -0.517000020       67.6083221      -1.57895970    
   1.44430494       2.16155505     -0.517000020       67.6083221      -1.57895970    
   1.04286098       1.56075203     -0.606999993       67.6083221      -1.57895970    
   1.04286098       1.56075203     -0.606999993       705.873169      -1.57083893    
  0.758352995       1.13495600     -0.606999993       705.873169      -1.57083893    
  0.522363007       1.26109600     -0.606999993       705.873169      -1.57083893    
  0.718334973       1.73421395     -0.606999993       705.873169      -1.57083893    
   1.04286098       1.56075203     -0.606999993       60.5870705      -1.56982338    
   1.44430494       2.16155505     -0.517000020       60.5870705      -1.56982338    
   1.83825099       1.83825099     -0.517000020       60.5870705      -1.56982338    
   1.32730997       1.32730997     -0.606999993       60.5870705      -1.56982338    
   1.32730997       1.32730997     -0.606999993       906.618530      -1.56897092    
  0.965201020      0.965201020     -0.606999993       906.618530      -1.56897092    
  0.758352995       1.13495600     -0.606999993       906.618530      -1.56897092    
   1.04286098       1.56075203     -0.606999993       906.618530      -1.56897092    
   1.32730997       1.32730997     -0.606999993       55.3741951      -1.56255627    
   1.83825099       1.83825099     -0.517000020       55.3741951      -1.56255627    
   2.16155505       1.44430494     -0.517000020       55.3741951      -1.56255627    
   1.56075203       1.04286098     -0.606999993       55.3741951      -1.56255627    
   1.56075203       1.04286098     -0.606999993       1071.62549      -1.56808805    
   1.13495600      0.758352995     -0.606999993       1071.62549      -1.56808805    
  0.965201020      0.965201020     -0.606999993       1071.62549      -1.56808805    
   1.32730997       1.32730997     -0.606999993       1071.62549      -1.56808805    
   1.56075203       1.04286098     -0.606999993       60.9299507      -1.56234550    
   2.16155505       1.44430494     -0.517000020       60.9299507      -1.56234550    
   2.40179110      0.994853973     -0.517000020       60.9299507      -1.56234550    
   1.73421395      0.718334973     -0.606999993       60.9299507      -1.56234550    
   1.73421395      0.718334973     -0.606999993       1206.59961      -1.56806171    
   1.26109600      0.522363007     -0.606999993       1206.59961      -1.56806171    
   1.13495600      0.758352995     -0.606999993       1206.59961      -1.56806171    
   1.56075203       1.04286098     -0.606999993       1206.59961      -1.56806171    
   1.73421395      0.718334973     -0.606999993       73.0986252      -1.56764877    
   2.40179110      0.994853973     -0.517000020       73.0986252      -1.56764877    
   2.54972792      0.507171988     -0.517000020       73.0986252      -1.56764877    
   1.84103203      0.366203994     -0.606999993       73.0986252      -1.56764877    
   1.84103203      0.366203994     -0.606999993       1309.02698      -1.56868994    
   1.33877206      0.266297996     -0.606999993       1309.02698      -1.56868994    
   1.26109600      0.522363007     -0.606999993       1309.02698      -1.56868994    
   1.73421395      0.718334973     -0.606999993       1309.02698      -1.56868994    
   1.84103203      0.366203994     -0.606999993       84.7876892      -1.57492673    
   2.54972792      0.507171988     -0.517000020       84.7876892      -1.57492673    
   2.59967995       0.00000000     -0.517000020       84.7876892      -1.57492673    
   1.87709999       0.00000000     -0.606999993       84.7876892      -1.57492673    
   1.87709999       0.00000000     -0.606999993       1370.72192      -1.56969178    
   1.36500001       0.00000000     -0.606999993       1370.72192      -1.56969178    
   1.33877206      0.266297996     -0.606999993       1370.72192      -1.56969178    
   1.84103203      0.366203994     -0.606999993       1370.72192      -1.56969178    
   1.87709999       0.00000000     -0.606999993       90.6643219      -1.58276701    
   2.59967995       0.00000000     -0.517000020       90.6643219      -1.58276701    
   2.54972792     -0.507171988     -0.517000020       90.6643219      -1.58276701    
   1.84103203     -0.366203994     -0.606999993       90.6643219      -1.58276701    
   1.84103203     -0.366203994     -0.606999993       1382.76123      -1.57077825    
   1.33877206     -0.266297996     -0.606999993       1382.76123      -1.57077825    
   1.36500001       0.00000000     -0.606999993       1382.76123      -1.57077825    
   1.87709999       0.00000000     -0.606999993       1382.76123      -1.57077825    
   1.84103203     -0.366203994     -0.606999993       89.2367477      -1.59008849    
   2.54972792     -0.507171988     -0.517000020       89.2367477      -1.59008849    
   2.40179110     -0.994853973     -0.517000020       89.2367477      -1.59008849    
   1.73421395     -0.718334973     -0.606999993       89.2367477      -1.59008849    
   1.73421395     -0.718334973     -0.606999993       1341.45740      -1.57169652    
   1.26109600     -0.522363007     -0.606999993       1341.45740      -1.57169652    
   1.33877206     -0.266297996     -0.606999993       1341.45740      -1.57169652    
   1.84103203     -0.366203994     -0.606999993       1341.45740      -1.57169652    
   1.73421395     -0.718334973     -0.606999993       83.0866470      -1.59467030    
   2.40179110     -0.994853973     -0.517000020       83.0866470      -1.59467030    
   2.16155505      -1.44430494     -0.517000020       83.0866470      -1.59467030    
   1.56075203      -1.04286098     -0.606999993       83.0866470      -1.59467030    
   1.56075203      -1.04286098     -0.606999993       1248.82324      -1.57224357    
   1.13495600     -0.758352995     -0.606999993       1248.82324      -1.57224357    
   1.26109600     -0.522363007     -0.606999993       1248.82324      -1.57224357    