 VARIABLES="X" "Y" "Z" "abs(p) (Pa)" "angle(p) (rad)"
ZONE N=   2709,E =    2358, F=FEPOINT, ET=QUADRILATERAL
   0.00000000      -5.48999977     -0.157000005       6.23878956      -2.86308289    
   0.00000000      -4.76741982     -0.246999994       6.23878956      -2.86308289    
  0.930077016      -4.67581606     -0.246999994       6.23878956      -2.86308289    
   1.07104599      -5.38451099     -0.157000005       6.23878956      -2.86308289    
  -1.07104599      -5.38451099     -0.157000005       6.02043009      0.155311212    
 -0.930077016      -4.67581606     -0.246999994       6.02043009      0.155311212    
   0.00000000      -4.76741982     -0.246999994       6.02043009      0.155311212    
   0.00000000      -5.48999977     -0.157000005       6.02043009      0.155311212    
  -2.10093188      -5.07209921     -0.157000005       17.9872169      0.246236667    
  -1.82441294      -4.40452194     -0.246999994       17.9872169      0.246236667    
 -0.930077016      -4.67581606     -0.246999994       17.9872169      0.246236667    
  -1.07104599      -5.38451099     -0.157000005       17.9872169      0.246236667    
  -3.05008101      -4.56476784     -0.157000005       28.8127384      0.194394007    
  -2.64863706      -3.96396494     -0.246999994       28.8127384      0.194394007    
  -1.82441294      -4.40452194     -0.246999994       28.8127384      0.194394007    
  -2.10093188      -5.07209921     -0.157000005       28.8127384      0.194394007    
  -3.88201594      -3.88201594     -0.157000005       39.2516327      0.258489400    
  -3.37107491      -3.37107491     -0.246999994       39.2516327      0.258489400    
  -2.64863706      -3.96396494     -0.246999994       39.2516327      0.258489400    
  -3.05008101      -4.56476784     -0.157000005       39.2516327      0.258489400    
  -4.56476784      -3.05008101     -0.157000005       48.6668549      0.185003981    
  -3.96396494      -2.64863706     -0.246999994       48.6668549      0.185003981    
  -3.37107491      -3.37107491     -0.246999994       48.6668549      0.185003981    
  -3.88201594      -3.88201594     -0.157000005       48.6668549      0.185003981    
  -5.07209921      -2.10093188     -0.157000005       53.8608246      0.219245017    
  -4.40452194      -1.82441294     -0.246999994       53.8608246      0.219245017    
  -3.96396494      -2.64863706     -0.246999994       53.8608246      0.219245017    
  -4.56476784      -3.05008101     -0.157000005       53.8608246      0.219245017    
  -5.38451099      -1.07104599     -0.157000005       59.0878906      0.241465420    
  -4.67581606     -0.930077016     -0.246999994       59.0878906      0.241465420    
  -4.40452194      -1.82441294     -0.246999994       59.0878906      0.241465420    
  -5.07209921      -2.10093188     -0.157000005       59.0878906      0.241465420    
  -5.48999977       0.00000000     -0.157000005       62.8722343      0.222480834    
  -4.76741982       0.00000000     -0.246999994       62.8722343      0.222480834    
  -4.67581606     -0.930077016     -0.246999994       62.8722343      0.222480834    
  -5.38451099      -1.07104599     -0.157000005       62.8722343      0.222480834    
  -5.38451099       1.07104599     -0.157000005       62.4207420      0.231035888    
  -4.67581606      0.930077016     -0.246999994       62.4207420      0.231035888    
  -4.76741982       0.00000000     -0.246999994       62.4207420      0.231035888    
  -5.48999977       0.00000000     -0.157000005       62.4207420      0.231035888    
  -5.07209921       2.10093188     -0.157000005       60.2519455      0.230775371    
  -4.40452194       1.82441294     -0.246999994       60.2519455      0.230775371    
  -4.67581606      0.930077016     -0.246999994       60.2519455      0.230775371    
  -5.38451099       1.07104599     -0.157000005       60.2519455      0.230775371    
  -4.56476784       3.05008101     -0.157000005       55.6700058      0.226786539    
  -3.96396494       2.64863706     -0.246999994       55.6700058      0.226786539    
  -4.40452194       1.82441294     -0.246999994       55.6700058      0.226786539    
  -5.07209921       2.10093188     -0.157000005       55.6700058      0.226786539    
  -3.88201594       3.88201594     -0.157000005       47.6204147      0.238847047    
  -3.37107491       3.37107491     -0.246999994       47.6204147      0.238847047    
  -3.96396494       2.64863706     -0.246999994       47.6204147      0.238847047    
  -4.56476784       3.05008101     -0.157000005       47.6204147      0.238847047    
  -3.05008101       4.56476784     -0.157000005       40.4429665      0.215121239    
  -2.64863706       3.96396494     -0.246999994       40.4429665      0.215121239    
  -3.37107491       3.37107491     -0.246999994       40.4429665      0.215121239    
  -3.88201594       3.88201594     -0.157000005       40.4429665      0.215121239    
  -2.10093188       5.07209921     -0.157000005       28.9183540      0.241975456    
  -1.82441294       4.40452194     -0.246999994       28.9183540      0.241975456    
  -2.64863706       3.96396494     -0.246999994       28.9183540      0.241975456    
  -3.05008101       4.56476784     -0.157000005       28.9183540      0.241975456    
  -1.07104599       5.38451099     -0.157000005       18.8037853      0.207325935    
 -0.930077016       4.67581606     -0.246999994       18.8037853      0.207325935    
  -1.82441294       4.40452194     -0.246999994       18.8037853      0.207325935    
  -2.10093188       5.07209921     -0.157000005       18.8037853      0.207325935    
   0.00000000       5.48999977     -0.157000005       5.98510599      0.276865482    
   0.00000000       4.76741982     -0.246999994       5.98510599      0.276865482    
 -0.930077016       4.67581606     -0.246999994       5.98510599      0.276865482    
  -1.07104599       5.38451099     -0.157000005       5.98510599      0.276865482    
   1.07104599       5.38451099     -0.157000005       5.76780558      -2.93739319    
  0.930077016       4.67581606     -0.246999994       5.76780558      -2.93739319    
   0.00000000       4.76741982     -0.246999994       5.76780558      -2.93739319    
   0.00000000       5.48999977     -0.157000005       5.76780558      -2.93739319    
   2.10093188       5.07209921     -0.157000005       17.9325752      -2.92155123    
   1.82441294       4.40452194     -0.246999994       17.9325752      -2.92155123    
  0.930077016       4.67581606     -0.246999994       17.9325752      -2.92155123    
   1.07104599       5.38451099     -0.157000005       17.9325752      -2.92155123    
   3.05008101       4.56476784     -0.157000005       28.6656647      -2.93188047    
   2.64863706       3.96396494     -0.246999994       28.6656647      -2.93188047    
   1.82441294       4.40452194     -0.246999994       28.6656647      -2.93188047    
   2.10093188       5.07209921     -0.157000005       28.6656647      -2.93188047    
   3.88201594       3.88201594     -0.157000005       40.1429329      -2.90871549    
   3.37107491       3.37107491     -0.246999994       40.1429329      -2.90871549    
   2.64863706       3.96396494     -0.246999994       40.1429329      -2.90871549    
   3.05008101       4.56476784     -0.157000005       40.1429329      -2.90871549    
   4.56476784       3.05008101     -0.157000005       47.1583939      -2.93356061    
   3.96396494       2.64863706     -0.246999994       47.1583939      -2.93356061    
   3.37107491       3.37107491     -0.246999994       47.1583939      -2.93356061    
   3.88201594       3.88201594     -0.157000005       47.1583939      -2.93356061    
   5.07209921       2.10093188     -0.157000005       55.1381378      -2.92887211    
   4.40452194       1.82441294     -0.246999994       55.1381378      -2.92887211    
   3.96396494       2.64863706     -0.246999994       55.1381378      -2.92887211    
   4.56476784       3.05008101     -0.157000005       55.1381378      -2.92887211    
   5.38451099       1.07104599     -0.157000005       59.0145798      -2.89628625    
   4.67581606      0.930077016     -0.246999994       59.0145798      -2.89628625    
   4.40452194       1.82441294     -0.246999994       59.0145798      -2.89628625    
   5.07209921       2.10093188     -0.157000005       59.0145798      -2.89628625    
   5.48999977       0.00000000     -0.157000005       61.7850266      -2.91193533    
   4.76741982       0.00000000     -0.246999994       61.7850266      -2.91193533    
   4.67581606      0.930077016     -0.246999994       61.7850266      -2.91193533    
   5.38451099       1.07104599     -0.157000005       61.7850266      -2.91193533    
   5.38451099      -1.07104599     -0.157000005       61.6587639      -2.90557909    
   4.67581606     -0.930077016     -0.246999994       61.6587639      -2.90557909    
   4.76741982       0.00000000     -0.246999994       61.6587639      -2.90557909    
   5.48999977       0.00000000     -0.157000005       61.6587639      -2.90557909    
   5.07209921      -2.10093188     -0.157000005       59.3756599      -2.90452385    
   4.40452194      -1.82441294     -0.246999994       59.3756599      -2.90452385    
   4.67581606     -0.930077016     -0.246999994       59.3756599      -2.90452385    
   5.38451099      -1.07104599     -0.157000005       59.3756599      -2.90452385    
   4.56476784      -3.05008101     -0.157000005       54.7500000      -2.90935969    
   3.96396494      -2.64863706     -0.246999994       54.7500000      -2.90935969    
   4.40452194      -1.82441294     -0.246999994       54.7500000      -2.90935969    
   5.07209921      -2.10093188     -0.157000005       54.7500000      -2.90935969    
   3.88201594      -3.88201594     -0.157000005       47.9022179      -2.90979886    
   3.37107491      -3.37107491     -0.246999994       47.9022179      -2.90979886    
   3.96396494      -2.64863706     -0.246999994       47.9022179      -2.90979886    
   4.56476784      -3.05008101     -0.157000005       47.9022179      -2.90979886    
   3.05008101      -4.56476784     -0.157000005       40.4054375      -2.91817331    
   2.64863706      -3.96396494     -0.246999994       40.4054375      -2.91817331    
   3.37107491      -3.37107491     -0.246999994       40.4054375      -2.91817331    
   3.88201594      -3.88201594     -0.157000005       40.4054375      -2.91817331    
   2.10093188      -5.07209921     -0.157000005       29.0197010      -2.89862180    
   1.82441294      -4.40452194     -0.246999994       29.0197010      -2.89862180    
   2.64863706      -3.96396494     -0.246999994       29.0197010      -2.89862180    
   3.05008101      -4.56476784     -0.157000005       29.0197010      -2.89862180    
   1.07104599      -5.38451099     -0.157000005       18.3958530      -2.91569233    
  0.930077016      -4.67581606     -0.246999994       18.3958530      -2.91569233    
   1.82441294      -4.40452194     -0.246999994       18.3958530      -2.91569233    
   2.10093188      -5.07209921     -0.157000005       18.3958530      -2.91569233    
   0.00000000      -1.87709999     -0.606999993       139.928406      -1.58092594    
   0.00000000      -1.36500001     -0.606999993       139.928406      -1.58092594    
  0.266297996      -1.33877206     -0.606999993       139.928406      -1.58092594    
  0.366203994      -1.84103203     -0.606999993       139.928406      -1.58092594    
   0.00000000      -1.87709999     -0.606999993       60.0177994       1.60579646    
   0.00000000      -2.59967995     -0.517000020       60.0177994       1.60579646    
 -0.507171988      -2.54972792     -0.517000020       60.0177994       1.60579646    
 -0.366203994      -1.84103203     -0.606999993       60.0177994       1.60579646    
 -0.366203994      -1.84103203     -0.606999993       240.069168       1.57435167    
 -0.266297996      -1.33877206     -0.606999993       240.069168       1.57435167    
   0.00000000      -1.36500001     -0.606999993       240.069168       1.57435167    
   0.00000000      -1.87709999     -0.606999993       240.069168       1.57435167    
 -0.366203994      -1.84103203     -0.606999993       137.642395       1.59202707    
 -0.507171988      -2.54972792     -0.517000020       137.642395       1.59202707    
 -0.994853973      -2.40179110     -0.517000020       137.642395       1.59202707    
 -0.718334973      -1.73421395     -0.606999993       137.642395       1.59202707    
 -0.718334973      -1.73421395     -0.606999993       608.404175       1.57064331    
 -0.522363007      -1.26109600     -0.606999993       608.404175       1.57064331    
 -0.266297996      -1.33877206     -0.606999993       608.404175       1.57064331    
 -0.366203994      -1.84103203     -0.606999993       608.404175       1.57064331    
 -0.718334973      -1.73421395     -0.606999993       204.682724       1.58619249    
 -0.994853973      -2.40179110     -0.517000020       204.682724       1.58619249    
  -1.44430494      -2.16155505     -0.517000020       204.682724       1.58619249    
  -1.04286098      -1.56075203     -0.606999993       204.682724       1.58619249    
  -1.04286098      -1.56075203     -0.606999993       948.690491       1.56934762    
 -0.758352995      -1.13495600     -0.606999993       948.690491       1.56934762    
 -0.522363007      -1.26109600     -0.606999993       948.690491       1.56934762    
 -0.718334973      -1.73421395     -0.606999993       948.690491       1.56934762    
  -1.04286098      -1.56075203     -0.606999993       258.465790       1.58234179    
  -1.44430494      -2.16155505     -0.517000020       258.465790       1.58234179    
  -1.83825099      -1.83825099     -0.517000020       258.465790       1.58234179    
  -1.32730997      -1.32730997     -0.606999993       258.465790       1.58234179    
  -1.32730997      -1.32730997     -0.606999993       1247.45166       1.56856179    
 -0.965201020     -0.965201020     -0.606999993       1247.45166       1.56856179    
 -0.758352995      -1.13495600     -0.606999993       1247.45166       1.56856179    
  -1.04286098      -1.56075203     -0.606999993       1247.45166       1.56856179    
  -1.32730997      -1.32730997     -0.606999993       298.928467       1.58015263    
  -1.83825099      -1.83825099     -0.517000020       298.928467       1.58015263    
  -2.16155505      -1.44430494     -0.517000020       298.928467       1.58015263    
  -1.56075203      -1.04286098     -0.606999993       298.928467       1.58015263    
  -1.56075203      -1.04286098     -0.606999993       1495.29333       1.56808460    
  -1.13495600     -0.758352995     -0.606999993       1495.29333       1.56808460    
 -0.965201020     -0.965201020     -0.606999993       1495.29333       1.56808460    
  -1.32730997      -1.32730997     -0.606999993       1495.29333       1.56808460    
  -1.56075203      -1.04286098     -0.606999993       326.556366       1.57996678    
  -2.16155505      -1.44430494     -0.517000020       326.556366       1.57996678    
  -2.40179110     -0.994853973     -0.517000020       326.556366       1.57996678    
  -1.73421395     -0.718334973     -0.606999993       326.556366       1.57996678    
  -1.73421395     -0.718334973     -0.606999993       1684.94495       1.56788862    
  -1.26109600     -0.522363007     -0.606999993       1684.94495       1.56788862    
  -1.13495600     -0.758352995     -0.606999993       1684.94495       1.56788862    
  -1.56075203      -1.04286098     -0.606999993       1684.94495       1.56788862    
  -1.73421395     -0.718334973     -0.606999993       341.354553       1.58170485    
  -2.40179110     -0.994853973     -0.517000020       341.354553       1.58170485    
  -2.54972792     -0.507171988     -0.517000020       341.354553       1.58170485    
  -1.84103203     -0.366203994     -0.606999993       341.354553       1.58170485    
  -1.84103203     -0.366203994     -0.606999993       1809.52649       1.56795621    
  -1.33877206     -0.266297996     -0.606999993       1809.52649       1.56795621    
  -1.26109600     -0.522363007     -0.606999993       1809.52649       1.56795621    
  -1.73421395     -0.718334973     -0.606999993       1809.52649       1.56795621    
  -1.84103203     -0.366203994     -0.606999993       344.009857       1.58463621    
  -2.54972792     -0.507171988     -0.517000020       344.009857       1.58463621    
  -2.59967995       0.00000000     -0.517000020       344.009857       1.58463621    
  -1.87709999       0.00000000     -0.606999993       344.009857       1.58463621    
  -1.87709999       0.00000000     -0.606999993       1865.75134       1.56821585    
  -1.36500001       0.00000000     -0.606999993       1865.75134       1.56821585    
  -1.33877206     -0.266297996     -0.606999993       1865.75134       1.56821585    
  -1.84103203     -0.366203994     -0.606999993       1865.75134       1.56821585    
  -1.87709999       0.00000000     -0.606999993       337.008057       1.58769298    
  -2.59967995       0.00000000     -0.517000020       337.008057       1.58769298    
  -2.54972792      0.507171988     -0.517000020       337.008057       1.58769298    
  -1.84103203      0.366203994     -0.606999993       337.008057       1.58769298    
  -1.84103203      0.366203994     -0.606999993       1854.22205       1.56857026    
  -1.33877206      0.266297996     -0.606999993       1854.22205       1.56857026    
  -1.36500001       0.00000000     -0.606999993       1854.22205       1.56857026    
  -1.87709999       0.00000000     -0.606999993       1854.22205       1.56857026    
  -1.84103203      0.366203994     -0.606999993       323.437347       1.58965802    
  -2.54972792      0.507171988     -0.517000020       323.437347       1.58965802    
  -2.40179110      0.994853973     -0.517000020       323.437347       1.58965802    
  -1.73421395      0.718334973     -0.606999993       323.437347       1.58965802    
  -1.73421395      0.718334973     -0.606999993       1777.58667       1.56889808    
  -1.26109600      0.522363007     -0.606999993       1777.58667       1.56889808    
  -1.33877206      0.266297996     -0.606999993       1777.58667       1.56889808    
  -1.84103203      0.366203994     -0.606999993       1777.58667       1.56889808    
  -1.73421395      0.718334973     -0.606999993       304.869446       1.58992136    
  -2.40179110      0.994853973     -0.517000020       304.869446       1.58992136    
  -2.16155505       1.44430494     -0.517000020       304.869446       1.58992136    
  -1.56075203       1.04286098     -0.606999993       304.869446       1.58992136    
  -1.56075203       1.04286098     -0.606999993       1638.77820       1.56910789    
  -1.13495600      0.758352995     -0.606999993       1638.77820       1.56910789    
  -1.26109600      0.522363007     -0.606999993       1638.77820       1.56910789    
  -1.73421395      0.718334973     -0.606999993       1638.77820       1.56910789    
  -1.56075203       1.04286098     -0.606999993       279.797150       1.58870506    
  -2.16155505       1.44430494     -0.517000020       279.797150       1.58870506    
  -1.83825099       1.83825099     -0.517000020       279.797150       1.58870506    
  -1.32730997       1.32730997     -0.606999993       279.797150       1.58870506    
  -1.32730997       1.32730997     -0.606999993       1440.38074       1.56914175    
 -0.965201020      0.965201020     -0.606999993       1440.38074       1.56914175    
  -1.13495600      0.758352995     -0.606999993       1440.38074       1.56914175    
  -1.56075203       1.04286098     -0.606999993       1440.38074       1.56914175    
  -1.32730997       1.32730997     -0.606999993       243.820099       1.58666980    
  -1.83825099       1.83825099     -0.517000020       243.820099       1.58666980    
  -1.44430494       2.16155505     -0.517000020       243.820099       1.58666980    
  -1.04286098       1.56075203     -0.606999993       243.820099       1.58666980    
  -1.04286098       1.56075203     -0.606999993       1185.49915       1.56895864    
 -0.758352995       1.13495600     -0.606999993       1185.49915       1.56895864    
 -0.965201020      0.965201020     -0.606999993       1185.49915       1.56895864    
  -1.32730997       1.32730997     -0.606999993       1185.49915       1.56895864    
  -1.04286098       1.56075203     -0.606999993       191.829483       1.58386898    
  -1.44430494       2.16155505     -0.517000020       191.829483       1.58386898    
 -0.994853973       2.40179110     -0.517000020       191.829483       1.58386898    
 -0.718334973       1.73421395     -0.606999993       191.829483       1.58386898    
 -0.718334973       1.73421395     -0.606999993       878.897522       1.56845200    
 -0.522363007       1.26109600     -0.606999993       878.897522       1.56845200    
 -0.758352995       1.13495600     -0.606999993       878.897522       1.56845200    
  -1.04286098       1.56075203     -0.606999993       878.897522       1.56845200    
 -0.718334973       1.73421395     -0.606999993       121.199188       1.57907510    
 -0.994853973       2.40179110     -0.517000020       121.199188       1.57907510    
 -0.507171988       2.54972792     -0.517000020       121.199188       1.57907510    
 -0.366203994       1.84103203     -0.606999993       121.199188       1.57907510    
 -0.366203994       1.84103203     -0.606999993       529.446960       1.56721699    
 -0.266297996       1.33877206     -0.606999993       529.446960       1.56721699    
 -0.522363007       1.26109600     -0.606999993       529.446960       1.56721699    
 -0.718334973       1.73421395     -0.606999993       529.446960       1.56721699    
 -0.366203994       1.84103203     -0.606999993       34.8604469       1.55656159    
 -0.507171988       2.54972792     -0.517000020       34.8604469       1.55656159    
   0.00000000       2.59967995     -0.517000020       34.8604469       1.55656159    
   0.00000000       1.87709999     -0.606999993       34.8604469       1.55656159    
   0.00000000       1.87709999     -0.606999993       151.026489       1.56073439    
   0.00000000       1.36500001     -0.606999993       151.026489       1.56073439    
 -0.266297996       1.33877206     -0.606999993       151.026489       1.56073439    
 -0.366203994       1.84103203     -0.606999993       151.026489       1.56073439    
   0.00000000       1.87709999     -0.606999993       58.6392708      -1.54097033    
   0.00000000       2.59967995     -0.517000020       58.6392708      -1.54097033    
  0.507171988       2.54972792     -0.517000020       58.6392708      -1.54097033    
  0.366203994       1.84103203     -0.606999993       58.6392708      -1.54097033    
  0.366203994       1.84103203     -0.606999993       237.553665      -1.56739068    
  0.266297996       1.33877206     -0.606999993       237.553665      -1.56739068    
   0.00000000       1.36500001     -0.606999993       237.553665      -1.56739068    
   0.00000000       1.87709999     -0.606999993       237.553665      -1.56739068    
  0.366203994       1.84103203     -0.606999993       147.253494      -1.55342197    
  0.507171988       2.54972792     -0.517000020       147.253494      -1.55342197    
  0.994853973       2.40179110     -0.517000020       147.253494      -1.55342197    
  0.718334973       1.73421395     -0.606999993       147.253494      -1.55342197    
  0.718334973       1.73421395     -0.606999993       614.932312      -1.57122660    
  0.522363007       1.26109600     -0.606999993       614.932312      -1.57122660    
  0.266297996       1.33877206     -0.606999993       614.932312      -1.57122660    
  0.366203994       1.84103203     -0.606999993       614.932312      -1.57122660    
  0.718334973       1.73421395     -0.606999993       219.965561      -1.55748034    
  0.994853973       2.40179110     -0.517000020       219.965561      -1.55748034    
   1.44430494       2.16155505     -0.517000020       219.965561      -1.55748034    
   1.04286098       1.56075203     -0.606999993       219.965561      -1.55748034    
   1.04286098       1.56075203     -0.606999993       960.826965      -1.57243037    
  0.758352995       1.13495600     -0.606999993       960.826965      -1.57243037    
  0.522363007       1.26109600     -0.606999993       960.826965      -1.57243037    
  0.718334973       1.73421395     -0.606999993       960.826965      -1.57243037    
   1.04286098       1.56075203     -0.606999993       271.387909      -1.55951369    
   1.44430494       2.16155505     -0.517000020       271.387909      -1.55951369    
   1.83825099       1.83825099     -0.517000020       271.387909      -1.55951369    
   1.32730997       1.32730997     -0.606999993       271.387909      -1.55951369    
   1.32730997       1.32730997     -0.606999993       1259.59399      -1.57306683    
  0.965201020      0.965201020     -0.606999993       1259.59399      -1.57306683    
  0.758352995       1.13495600     -0.606999993       1259.59399      -1.57306683    
   1.04286098       1.56075203     -0.606999993       1259.59399      -1.57306683    
   1.32730997       1.32730997     -0.606999993       303.623169      -1.56025219    
   1.83825099       1.83825099     -0.517000020       303.623169      -1.56025219    
   2.16155505       1.44430494     -0.517000020       303.623169      -1.56025219    
   1.56075203       1.04286098     -0.606999993       303.623169      -1.56025219    
   1.56075203       1.04286098     -0.606999993       1502.20996      -1.57339430    
   1.13495600      0.758352995     -0.606999993       1502.20996      -1.57339430    
  0.965201020      0.965201020     -0.606999993       1502.20996      -1.57339430    
   1.32730997       1.32730997     -0.606999993       1502.20996      -1.57339430    
   1.56075203       1.04286098     -0.606999993       323.437286      -1.55993438    
   2.16155505       1.44430494     -0.517000020       323.437286      -1.55993438    
   2.40179110      0.994853973     -0.517000020       323.437286      -1.55993438    
   1.73421395      0.718334973     -0.606999993       323.437286      -1.55993438    
   1.73421395      0.718334973     -0.606999993       1686.07739      -1.57349563    
   1.26109600      0.522363007     -0.606999993       1686.07739      -1.57349563    
   1.13495600      0.758352995     -0.606999993       1686.07739      -1.57349563    
   1.56075203       1.04286098     -0.606999993       1686.07739      -1.57349563    
   1.73421395      0.718334973     -0.606999993       336.579712      -1.55884361    
   2.40179110      0.994853973     -0.517000020       336.579712      -1.55884361    
   2.54972792      0.507171988     -0.517000020       336.579712      -1.55884361    
   1.84103203      0.366203994     -0.606999993       336.579712      -1.55884361    
   1.84103203      0.366203994     -0.606999993       1809.99097      -1.57342517    
   1.33877206      0.266297996     -0.606999993       1809.99097      -1.57342517    
   1.26109600      0.522363007     -0.606999993       1809.99097      -1.57342517    
   1.73421395      0.718334973     -0.606999993       1809.99097      -1.57342517    
   1.84103203      0.366203994     -0.606999993       344.132080      -1.55735886    
   2.54972792      0.507171988     -0.517000020       344.132080      -1.55735886    
   2.59967995       0.00000000     -0.517000020       344.132080      -1.55735886    
   1.87709999       0.00000000     -0.606999993       344.132080      -1.55735886    
   1.87709999       0.00000000     -0.606999993       1869.97119      -1.57323456    
   1.36500001       0.00000000     -0.606999993       1869.97119      -1.57323456    
   1.33877206      0.266297996     -0.606999993       1869.97119      -1.57323456    
   1.84103203      0.366203994     -0.606999993       1869.97119      -1.57323456    
   1.87709999       0.00000000     -0.606999993       344.181396      -1.55576515    
   2.59967995       0.00000000     -0.517000020       344.181396      -1.55576515    
   2.54972792     -0.507171988     -0.517000020       344.181396      -1.55576515    
   1.84103203     -0.366203994     -0.606999993       344.181396      -1.55576515    
   1.84103203     -0.366203994     -0.606999993       1862.94299      -1.57297599    
   1.33877206     -0.266297996     -0.606999993       1862.94299      -1.57297599    
   1.36500001       0.00000000     -0.606999993       1862.94299      -1.57297599    
   1.87709999       0.00000000     -0.606999993       1862.94299      -1.57297599    
   1.84103203     -0.366203994     -0.606999993       334.602600      -1.55424678    
   2.54972792     -0.507171988     -0.517000020       334.602600      -1.55424678    
   2.40179110     -0.994853973     -0.517000020       334.602600      -1.55424678    
   1.73421395     -0.718334973     -0.606999993       334.602600      -1.55424678    
   1.73421395     -0.718334973     -0.606999993       1787.93359      -1.57270050    
   1.26109600     -0.522363007     -0.606999993       1787.93359      -1.57270050    
   1.33877206     -0.266297996     -0.606999993       1787.93359      -1.57270050    
   1.84103203     -0.366203994     -0.606999993       1787.93359      -1.57270050    
   1.73421395     -0.718334973     -0.606999993       313.977295      -1.55302227    
   2.40179110     -0.994853973     -0.517000020       313.977295      -1.55302227    
   2.16155505      -1.44430494     -0.517000020       313.977295      -1.55302227    
   1.56075203      -1.04286098     -0.606999993       313.977295      -1.55302227    
   1.56075203      -1.04286098     -0.606999993       1646.05591      -1.57246983    
   1.13495600     -0.758352995     -0.606999993       1646.05591      -1.57246983    
   1.26109600     -0.522363007     -0.606999993       1646.05591      -1.57246983    