 VARIABLES="X" "Y" "Z" "abs(p) (Pa)" "angle(p) (rad)"
ZONE N=   2709,E =    2358, F=FEPOINT, ET=QUADRILATERAL
   0.00000000      -5.48999977     -0.157000005       357.071594     -0.379120141    
   0.00000000      -4.76741982     -0.246999994       357.071594     -0.379120141    
  0.930077016      -4.67581606     -0.246999994       357.071594     -0.379120141    
   1.07104599      -5.38451099     -0.157000005       357.071594     -0.379120141    
  -1.07104599      -5.38451099     -0.157000005       355.672363     -0.378078431    
 -0.930077016      -4.67581606     -0.246999994       355.672363     -0.378078431    
   0.00000000      -4.76741982     -0.246999994       355.672363     -0.378078431    
   0.00000000      -5.48999977     -0.157000005       355.672363     -0.378078431    
  -2.10093188      -5.07209921     -0.157000005       342.679993     -0.421319336    
  -1.82441294      -4.40452194     -0.246999994       342.679993     -0.421319336    
 -0.930077016      -4.67581606     -0.246999994       342.679993     -0.421319336    
  -1.07104599      -5.38451099     -0.157000005       342.679993     -0.421319336    
  -3.05008101      -4.56476784     -0.157000005       320.164276     -0.358494312    
  -2.64863706      -3.96396494     -0.246999994       320.164276     -0.358494312    
  -1.82441294      -4.40452194     -0.246999994       320.164276     -0.358494312    
  -2.10093188      -5.07209921     -0.157000005       320.164276     -0.358494312    
  -3.88201594      -3.88201594     -0.157000005       288.398560     -0.386349261    
  -3.37107491      -3.37107491     -0.246999994       288.398560     -0.386349261    
  -2.64863706      -3.96396494     -0.246999994       288.398560     -0.386349261    
  -3.05008101      -4.56476784     -0.157000005       288.398560     -0.386349261    
  -4.56476784      -3.05008101     -0.157000005       241.729202     -0.478803843    
  -3.96396494      -2.64863706     -0.246999994       241.729202     -0.478803843    
  -3.37107491      -3.37107491     -0.246999994       241.729202     -0.478803843    
  -3.88201594      -3.88201594     -0.157000005       241.729202     -0.478803843    
  -5.07209921      -2.10093188     -0.157000005       178.204208     -0.405171603    
  -4.40452194      -1.82441294     -0.246999994       178.204208     -0.405171603    
  -3.96396494      -2.64863706     -0.246999994       178.204208     -0.405171603    
  -4.56476784      -3.05008101     -0.157000005       178.204208     -0.405171603    
  -5.38451099      -1.07104599     -0.157000005       107.192322     -0.309147954    
  -4.67581606     -0.930077016     -0.246999994       107.192322     -0.309147954    
  -4.40452194      -1.82441294     -0.246999994       107.192322     -0.309147954    
  -5.07209921      -2.10093188     -0.157000005       107.192322     -0.309147954    
  -5.48999977       0.00000000     -0.157000005       36.6660233     -0.212669298    
  -4.76741982       0.00000000     -0.246999994       36.6660233     -0.212669298    
  -4.67581606     -0.930077016     -0.246999994       36.6660233     -0.212669298    
  -5.38451099      -1.07104599     -0.157000005       36.6660233     -0.212669298    
  -5.38451099       1.07104599     -0.157000005       31.1306744       2.73006320    
  -4.67581606      0.930077016     -0.246999994       31.1306744       2.73006320    
  -4.76741982       0.00000000     -0.246999994       31.1306744       2.73006320    
  -5.48999977       0.00000000     -0.157000005       31.1306744       2.73006320    
  -5.07209921       2.10093188     -0.157000005       99.1737442       2.76181746    
  -4.40452194       1.82441294     -0.246999994       99.1737442       2.76181746    
  -4.67581606      0.930077016     -0.246999994       99.1737442       2.76181746    
  -5.38451099       1.07104599     -0.157000005       99.1737442       2.76181746    
  -4.56476784       3.05008101     -0.157000005       169.889801       2.71147418    
  -3.96396494       2.64863706     -0.246999994       169.889801       2.71147418    
  -4.40452194       1.82441294     -0.246999994       169.889801       2.71147418    
  -5.07209921       2.10093188     -0.157000005       169.889801       2.71147418    
  -3.88201594       3.88201594     -0.157000005       236.966248       2.73089433    
  -3.37107491       3.37107491     -0.246999994       236.966248       2.73089433    
  -3.96396494       2.64863706     -0.246999994       236.966248       2.73089433    
  -4.56476784       3.05008101     -0.157000005       236.966248       2.73089433    
  -3.05008101       4.56476784     -0.157000005       289.588043       2.68839836    
  -2.64863706       3.96396494     -0.246999994       289.588043       2.68839836    
  -3.37107491       3.37107491     -0.246999994       289.588043       2.68839836    
  -3.88201594       3.88201594     -0.157000005       289.588043       2.68839836    
  -2.10093188       5.07209921     -0.157000005       324.851898       2.76473069    
  -1.82441294       4.40452194     -0.246999994       324.851898       2.76473069    
  -2.64863706       3.96396494     -0.246999994       324.851898       2.76473069    
  -3.05008101       4.56476784     -0.157000005       324.851898       2.76473069    
  -1.07104599       5.38451099     -0.157000005       347.440704       2.71302986    
 -0.930077016       4.67581606     -0.246999994       347.440704       2.71302986    
  -1.82441294       4.40452194     -0.246999994       347.440704       2.71302986    
  -2.10093188       5.07209921     -0.157000005       347.440704       2.71302986    
   0.00000000       5.48999977     -0.157000005       358.596222       2.75572181    
   0.00000000       4.76741982     -0.246999994       358.596222       2.75572181    
 -0.930077016       4.67581606     -0.246999994       358.596222       2.75572181    
  -1.07104599       5.38451099     -0.157000005       358.596222       2.75572181    
   1.07104599       5.38451099     -0.157000005       357.314087       2.71111488    
  0.930077016       4.67581606     -0.246999994       357.314087       2.71111488    
   0.00000000       4.76741982     -0.246999994       357.314087       2.71111488    
   0.00000000       5.48999977     -0.157000005       357.314087       2.71111488    
   2.10093188       5.07209921     -0.157000005       347.122009       2.77393031    
   1.82441294       4.40452194     -0.246999994       347.122009       2.77393031    
  0.930077016       4.67581606     -0.246999994       347.122009       2.77393031    
   1.07104599       5.38451099     -0.157000005       347.122009       2.77393031    
   3.05008101       4.56476784     -0.157000005       325.925018       2.78218794    
   2.64863706       3.96396494     -0.246999994       325.925018       2.78218794    
   1.82441294       4.40452194     -0.246999994       325.925018       2.78218794    
   2.10093188       5.07209921     -0.157000005       325.925018       2.78218794    
   3.88201594       3.88201594     -0.157000005       293.145203       2.69454408    
   3.37107491       3.37107491     -0.246999994       293.145203       2.69454408    
   2.64863706       3.96396494     -0.246999994       293.145203       2.69454408    
   3.05008101       4.56476784     -0.157000005       293.145203       2.69454408    
   4.56476784       3.05008101     -0.157000005       242.230835       2.69427991    
   3.96396494       2.64863706     -0.246999994       242.230835       2.69427991    
   3.37107491       3.37107491     -0.246999994       242.230835       2.69427991    
   3.88201594       3.88201594     -0.157000005       242.230835       2.69427991    
   5.07209921       2.10093188     -0.157000005       174.127304       2.70988512    
   4.40452194       1.82441294     -0.246999994       174.127304       2.70988512    
   3.96396494       2.64863706     -0.246999994       174.127304       2.70988512    
   4.56476784       3.05008101     -0.157000005       174.127304       2.70988512    
   5.38451099       1.07104599     -0.157000005       101.330612       2.85198879    
   4.67581606      0.930077016     -0.246999994       101.330612       2.85198879    
   4.40452194       1.82441294     -0.246999994       101.330612       2.85198879    
   5.07209921       2.10093188     -0.157000005       101.330612       2.85198879    
   5.48999977       0.00000000     -0.157000005       30.2739792       2.99803948    
   4.76741982       0.00000000     -0.246999994       30.2739792       2.99803948    
   4.67581606      0.930077016     -0.246999994       30.2739792       2.99803948    
   5.38451099       1.07104599     -0.157000005       30.2739792       2.99803948    
   5.38451099      -1.07104599     -0.157000005       38.7214546     -0.323859215    
   4.67581606     -0.930077016     -0.246999994       38.7214546     -0.323859215    
   4.76741982       0.00000000     -0.246999994       38.7214546     -0.323859215    
   5.48999977       0.00000000     -0.157000005       38.7214546     -0.323859215    
   5.07209921      -2.10093188     -0.157000005       107.045784     -0.334372729    
   4.40452194      -1.82441294     -0.246999994       107.045784     -0.334372729    
   4.67581606     -0.930077016     -0.246999994       107.045784     -0.334372729    
   5.38451099      -1.07104599     -0.157000005       107.045784     -0.334372729    
   4.56476784      -3.05008101     -0.157000005       175.453552     -0.387645066    
   3.96396494      -2.64863706     -0.246999994       175.453552     -0.387645066    
   4.40452194      -1.82441294     -0.246999994       175.453552     -0.387645066    
   5.07209921      -2.10093188     -0.157000005       175.453552     -0.387645066    
   3.88201594      -3.88201594     -0.157000005       237.874313     -0.411113054    
   3.37107491      -3.37107491     -0.246999994       237.874313     -0.411113054    
   3.96396494      -2.64863706     -0.246999994       237.874313     -0.411113054    
   4.56476784      -3.05008101     -0.157000005       237.874313     -0.411113054    
   3.05008101      -4.56476784     -0.157000005       285.732422     -0.440318286    
   2.64863706      -3.96396494     -0.246999994       285.732422     -0.440318286    
   3.37107491      -3.37107491     -0.246999994       285.732422     -0.440318286    
   3.88201594      -3.88201594     -0.157000005       285.732422     -0.440318286    
   2.10093188      -5.07209921     -0.157000005       321.054657     -0.365607709    
   1.82441294      -4.40452194     -0.246999994       321.054657     -0.365607709    
   2.64863706      -3.96396494     -0.246999994       321.054657     -0.365607709    
   3.05008101      -4.56476784     -0.157000005       321.054657     -0.365607709    
   1.07104599      -5.38451099     -0.157000005       346.188965     -0.374173671    
  0.930077016      -4.67581606     -0.246999994       346.188965     -0.374173671    
   1.82441294      -4.40452194     -0.246999994       346.188965     -0.374173671    
   2.10093188      -5.07209921     -0.157000005       346.188965     -0.374173671    
   0.00000000      -1.87709999     -0.606999993       14197.4004      -1.56636977    
   0.00000000      -1.36500001     -0.606999993       14197.4004      -1.56636977    
  0.266297996      -1.33877206     -0.606999993       14197.4004      -1.56636977    
  0.366203994      -1.84103203     -0.606999993       14197.4004      -1.56636977    
   0.00000000      -1.87709999     -0.606999993       6841.70850      -1.56249297    
   0.00000000      -2.59967995     -0.517000020       6841.70850      -1.56249297    
 -0.507171988      -2.54972792     -0.517000020       6841.70850      -1.56249297    
 -0.366203994      -1.84103203     -0.606999993       6841.70850      -1.56249297    
 -0.366203994      -1.84103203     -0.606999993       14203.5059      -1.56637275    
 -0.266297996      -1.33877206     -0.606999993       14203.5059      -1.56637275    
   0.00000000      -1.36500001     -0.606999993       14203.5059      -1.56637275    
   0.00000000      -1.87709999     -0.606999993       14203.5059      -1.56637275    
 -0.366203994      -1.84103203     -0.606999993       6670.66748      -1.56259120    
 -0.507171988      -2.54972792     -0.517000020       6670.66748      -1.56259120    
 -0.994853973      -2.40179110     -0.517000020       6670.66748      -1.56259120    
 -0.718334973      -1.73421395     -0.606999993       6670.66748      -1.56259120    
 -0.718334973      -1.73421395     -0.606999993       13736.9453      -1.56638074    
 -0.522363007      -1.26109600     -0.606999993       13736.9453      -1.56638074    
 -0.266297996      -1.33877206     -0.606999993       13736.9453      -1.56638074    
 -0.366203994      -1.84103203     -0.606999993       13736.9453      -1.56638074    
 -0.718334973      -1.73421395     -0.606999993       6283.23340      -1.56270742    
 -0.994853973      -2.40179110     -0.517000020       6283.23340      -1.56270742    
  -1.44430494      -2.16155505     -0.517000020       6283.23340      -1.56270742    
  -1.04286098      -1.56075203     -0.606999993       6283.23340      -1.56270742    
  -1.04286098      -1.56075203     -0.606999993       12772.5195      -1.56638432    
 -0.758352995      -1.13495600     -0.606999993       12772.5195      -1.56638432    
 -0.522363007      -1.26109600     -0.606999993       12772.5195      -1.56638432    
 -0.718334973      -1.73421395     -0.606999993       12772.5195      -1.56638432    
  -1.04286098      -1.56075203     -0.606999993       5616.64160      -1.56275856    
  -1.44430494      -2.16155505     -0.517000020       5616.64160      -1.56275856    
  -1.83825099      -1.83825099     -0.517000020       5616.64160      -1.56275856    
  -1.32730997      -1.32730997     -0.606999993       5616.64160      -1.56275856    
  -1.32730997      -1.32730997     -0.606999993       11286.3359      -1.56636512    
 -0.965201020     -0.965201020     -0.606999993       11286.3359      -1.56636512    
 -0.758352995      -1.13495600     -0.606999993       11286.3359      -1.56636512    
  -1.04286098      -1.56075203     -0.606999993       11286.3359      -1.56636512    
  -1.32730997      -1.32730997     -0.606999993       4635.13086      -1.56269264    
  -1.83825099      -1.83825099     -0.517000020       4635.13086      -1.56269264    
  -2.16155505      -1.44430494     -0.517000020       4635.13086      -1.56269264    
  -1.56075203      -1.04286098     -0.606999993       4635.13086      -1.56269264    
  -1.56075203      -1.04286098     -0.606999993       9301.86914      -1.56631494    
  -1.13495600     -0.758352995     -0.606999993       9301.86914      -1.56631494    
 -0.965201020     -0.965201020     -0.606999993       9301.86914      -1.56631494    
  -1.32730997      -1.32730997     -0.606999993       9301.86914      -1.56631494    
  -1.56075203      -1.04286098     -0.606999993       3387.34546      -1.56246150    
  -2.16155505      -1.44430494     -0.517000020       3387.34546      -1.56246150    
  -2.40179110     -0.994853973     -0.517000020       3387.34546      -1.56246150    
  -1.73421395     -0.718334973     -0.606999993       3387.34546      -1.56246150    
  -1.73421395     -0.718334973     -0.606999993       6913.92041      -1.56622577    
  -1.26109600     -0.522363007     -0.606999993       6913.92041      -1.56622577    
  -1.13495600     -0.758352995     -0.606999993       6913.92041      -1.56622577    
  -1.56075203      -1.04286098     -0.606999993       6913.92041      -1.56622577    
  -1.73421395     -0.718334973     -0.606999993       2030.76660      -1.56210101    
  -2.40179110     -0.994853973     -0.517000020       2030.76660      -1.56210101    
  -2.54972792     -0.507171988     -0.517000020       2030.76660      -1.56210101    
  -1.84103203     -0.366203994     -0.606999993       2030.76660      -1.56210101    
  -1.84103203     -0.366203994     -0.606999993       4271.41895      -1.56606889    
  -1.33877206     -0.266297996     -0.606999993       4271.41895      -1.56606889    
  -1.26109600     -0.522363007     -0.606999993       4271.41895      -1.56606889    
  -1.73421395     -0.718334973     -0.606999993       4271.41895      -1.56606889    
  -1.84103203     -0.366203994     -0.606999993       702.482544      -1.56137478    
  -2.54972792     -0.507171988     -0.517000020       702.482544      -1.56137478    
  -2.59967995       0.00000000     -0.517000020       702.482544      -1.56137478    
  -1.87709999       0.00000000     -0.606999993       702.482544      -1.56137478    
  -1.87709999       0.00000000     -0.606999993       1515.34570      -1.56550515    
  -1.36500001       0.00000000     -0.606999993       1515.34570      -1.56550515    
  -1.33877206     -0.266297996     -0.606999993       1515.34570      -1.56550515    
  -1.84103203     -0.366203994     -0.606999993       1515.34570      -1.56550515    
  -1.87709999       0.00000000     -0.606999993       570.334656       1.57869935    
  -2.59967995       0.00000000     -0.517000020       570.334656       1.57869935    
  -2.54972792      0.507171988     -0.517000020       570.334656       1.57869935    
  -1.84103203      0.366203994     -0.606999993       570.334656       1.57869935    
  -1.84103203      0.366203994     -0.606999993       1260.58484       1.57439065    
  -1.33877206      0.266297996     -0.606999993       1260.58484       1.57439065    
  -1.36500001       0.00000000     -0.606999993       1260.58484       1.57439065    
  -1.87709999       0.00000000     -0.606999993       1260.58484       1.57439065    
  -1.84103203      0.366203994     -0.606999993       1863.73120       1.57919085    
  -2.54972792      0.507171988     -0.517000020       1863.73120       1.57919085    
  -2.40179110      0.994853973     -0.517000020       1863.73120       1.57919085    
  -1.73421395      0.718334973     -0.606999993       1863.73120       1.57919085    
  -1.73421395      0.718334973     -0.606999993       4006.70825       1.57504392    
  -1.26109600      0.522363007     -0.606999993       4006.70825       1.57504392    
  -1.33877206      0.266297996     -0.606999993       4006.70825       1.57504392    
  -1.84103203      0.366203994     -0.606999993       4006.70825       1.57504392    
  -1.73421395      0.718334973     -0.606999993       3194.55054       1.57910383    
  -2.40179110      0.994853973     -0.517000020       3194.55054       1.57910383    
  -2.16155505       1.44430494     -0.517000020       3194.55054       1.57910383    
  -1.56075203       1.04286098     -0.606999993       3194.55054       1.57910383    
  -1.56075203       1.04286098     -0.606999993       6650.54785       1.57516634    
  -1.13495600      0.758352995     -0.606999993       6650.54785       1.57516634    
  -1.26109600      0.522363007     -0.606999993       6650.54785       1.57516634    
  -1.73421395      0.718334973     -0.606999993       6650.54785       1.57516634    
  -1.56075203       1.04286098     -0.606999993       4461.29199       1.57896328    
  -2.16155505       1.44430494     -0.517000020       4461.29199       1.57896328    
  -1.83825099       1.83825099     -0.517000020       4461.29199       1.57896328    
  -1.32730997       1.32730997     -0.606999993       4461.29199       1.57896328    
  -1.32730997       1.32730997     -0.606999993       9069.14160       1.57521236    
 -0.965201020      0.965201020     -0.606999993       9069.14160       1.57521236    
  -1.13495600      0.758352995     -0.606999993       9069.14160       1.57521236    
  -1.56075203       1.04286098     -0.606999993       9069.14160       1.57521236    
  -1.32730997       1.32730997     -0.606999993       5498.54883       1.57892120    
  -1.83825099       1.83825099     -0.517000020       5498.54883       1.57892120    
  -1.44430494       2.16155505     -0.517000020       5498.54883       1.57892120    
  -1.04286098       1.56075203     -0.606999993       5498.54883       1.57892120    
  -1.04286098       1.56075203     -0.606999993       11110.3633       1.57524502    
 -0.758352995       1.13495600     -0.606999993       11110.3633       1.57524502    
 -0.965201020      0.965201020     -0.606999993       11110.3633       1.57524502    
  -1.32730997       1.32730997     -0.606999993       11110.3633       1.57524502    
  -1.04286098       1.56075203     -0.606999993       6223.91113       1.57898593    
  -1.44430494       2.16155505     -0.517000020       6223.91113       1.57898593    
 -0.994853973       2.40179110     -0.517000020       6223.91113       1.57898593    
 -0.718334973       1.73421395     -0.606999993       6223.91113       1.57898593    
 -0.718334973       1.73421395     -0.606999993       12664.9170       1.57527852    
 -0.522363007       1.26109600     -0.606999993       12664.9170       1.57527852    
 -0.758352995       1.13495600     -0.606999993       12664.9170       1.57527852    
  -1.04286098       1.56075203     -0.606999993       12664.9170       1.57527852    
 -0.718334973       1.73421395     -0.606999993       6653.63574       1.57911372    
 -0.994853973       2.40179110     -0.517000020       6653.63574       1.57911372    
 -0.507171988       2.54972792     -0.517000020       6653.63574       1.57911372    
 -0.366203994       1.84103203     -0.606999993       6653.63574       1.57911372    
 -0.366203994       1.84103203     -0.606999993       13689.8125       1.57531667    
 -0.266297996       1.33877206     -0.606999993       13689.8125       1.57531667    
 -0.522363007       1.26109600     -0.606999993       13689.8125       1.57531667    
 -0.718334973       1.73421395     -0.606999993       13689.8125       1.57531667    
 -0.366203994       1.84103203     -0.606999993       6848.95703       1.57922447    
 -0.507171988       2.54972792     -0.517000020       6848.95703       1.57922447    
   0.00000000       2.59967995     -0.517000020       6848.95703       1.57922447    
   0.00000000       1.87709999     -0.606999993       6848.95703       1.57922447    
   0.00000000       1.87709999     -0.606999993       14196.2832       1.57534695    
   0.00000000       1.36500001     -0.606999993       14196.2832       1.57534695    
 -0.266297996       1.33877206     -0.606999993       14196.2832       1.57534695    
 -0.366203994       1.84103203     -0.606999993       14196.2832       1.57534695    
   0.00000000       1.87709999     -0.606999993       6853.65625       1.57923436    
   0.00000000       2.59967995     -0.517000020       6853.65625       1.57923436    
  0.507171988       2.54972792     -0.517000020       6853.65625       1.57923436    
  0.366203994       1.84103203     -0.606999993       6853.65625       1.57923436    
  0.366203994       1.84103203     -0.606999993       14203.2207       1.57535553    
  0.266297996       1.33877206     -0.606999993       14203.2207       1.57535553    
   0.00000000       1.36500001     -0.606999993       14203.2207       1.57535553    
   0.00000000       1.87709999     -0.606999993       14203.2207       1.57535553    
  0.366203994       1.84103203     -0.606999993       6667.68359       1.57914400    
  0.507171988       2.54972792     -0.517000020       6667.68359       1.57914400    
  0.994853973       2.40179110     -0.517000020       6667.68359       1.57914400    
  0.718334973       1.73421395     -0.606999993       6667.68359       1.57914400    
  0.718334973       1.73421395     -0.606999993       13710.4736       1.57534111    
  0.522363007       1.26109600     -0.606999993       13710.4736       1.57534111    
  0.266297996       1.33877206     -0.606999993       13710.4736       1.57534111    
  0.366203994       1.84103203     -0.606999993       13710.4736       1.57534111    
  0.718334973       1.73421395     -0.606999993       6247.12158       1.57903194    
  0.994853973       2.40179110     -0.517000020       6247.12158       1.57903194    
   1.44430494       2.16155505     -0.517000020       6247.12158       1.57903194    
   1.04286098       1.56075203     -0.606999993       6247.12158       1.57903194    
   1.04286098       1.56075203     -0.606999993       12697.8701       1.57531786    
  0.758352995       1.13495600     -0.606999993       12697.8701       1.57531786    
  0.522363007       1.26109600     -0.606999993       12697.8701       1.57531786    
  0.718334973       1.73421395     -0.606999993       12697.8701       1.57531786    
   1.04286098       1.56075203     -0.606999993       5530.41602       1.57898104    
   1.44430494       2.16155505     -0.517000020       5530.41602       1.57898104    
   1.83825099       1.83825099     -0.517000020       5530.41602       1.57898104    
   1.32730997       1.32730997     -0.606999993       5530.41602       1.57898104    
   1.32730997       1.32730997     -0.606999993       11154.3809       1.57529819    
  0.965201020      0.965201020     -0.606999993       11154.3809       1.57529819    
  0.758352995       1.13495600     -0.606999993       11154.3809       1.57529819    
   1.04286098       1.56075203     -0.606999993       11154.3809       1.57529819    
   1.32730997       1.32730997     -0.606999993       4500.08350       1.57904005    
   1.83825099       1.83825099     -0.517000020       4500.08350       1.57904005    
   2.16155505       1.44430494     -0.517000020       4500.08350       1.57904005    
   1.56075203       1.04286098     -0.606999993       4500.08350       1.57904005    
   1.56075203       1.04286098     -0.606999993       9121.55078       1.57528126    
   1.13495600      0.758352995     -0.606999993       9121.55078       1.57528126    
  0.965201020      0.965201020     -0.606999993       9121.55078       1.57528126    
   1.32730997       1.32730997     -0.606999993       9121.55078       1.57528126    
   1.56075203       1.04286098     -0.606999993       3237.24634       1.57919705    
   2.16155505       1.44430494     -0.517000020       3237.24634       1.57919705    
   2.40179110      0.994853973     -0.517000020       3237.24634       1.57919705    
   1.73421395      0.718334973     -0.606999993       3237.24634       1.57919705    
   1.73421395      0.718334973     -0.606999993       6706.00537       1.57525325    
   1.26109600      0.522363007     -0.606999993       6706.00537       1.57525325    
   1.13495600      0.758352995     -0.606999993       6706.00537       1.57525325    
   1.56075203       1.04286098     -0.606999993       6706.00537       1.57525325    
   1.73421395      0.718334973     -0.606999993       1907.54407       1.57931793    
   2.40179110      0.994853973     -0.517000020       1907.54407       1.57931793    
   2.54972792      0.507171988     -0.517000020       1907.54407       1.57931793    
   1.84103203      0.366203994     -0.606999993       1907.54407       1.57931793    
   1.84103203      0.366203994     -0.606999993       4061.99634       1.57516801    
   1.33877206      0.266297996     -0.606999993       4061.99634       1.57516801    
   1.26109600      0.522363007     -0.606999993       4061.99634       1.57516801    
   1.73421395      0.718334973     -0.606999993       4061.99634       1.57516801    
   1.84103203      0.366203994     -0.606999993       613.729980       1.57896698    
   2.54972792      0.507171988     -0.517000020       613.729980       1.57896698    
   2.59967995       0.00000000     -0.517000020       613.729980       1.57896698    
   1.87709999       0.00000000     -0.606999993       613.729980       1.57896698    
   1.87709999       0.00000000     -0.606999993       1314.49854       1.57470775    
   1.36500001       0.00000000     -0.606999993       1314.49854       1.57470775    
   1.33877206      0.266297996     -0.606999993       1314.49854       1.57470775    
   1.84103203      0.366203994     -0.606999993       1314.49854       1.57470775    
   1.87709999       0.00000000     -0.606999993       660.601074      -1.56139588    
   2.59967995       0.00000000     -0.517000020       660.601074      -1.56139588    
   2.54972792     -0.507171988     -0.517000020       660.601074      -1.56139588    
   1.84103203     -0.366203994     -0.606999993       660.601074      -1.56139588    
   1.84103203     -0.366203994     -0.606999993       1464.22656      -1.56564319    
   1.33877206     -0.266297996     -0.606999993       1464.22656      -1.56564319    
   1.36500001       0.00000000     -0.606999993       1464.22656      -1.56564319    
   1.87709999       0.00000000     -0.606999993       1464.22656      -1.56564319    
   1.84103203     -0.366203994     -0.606999993       1991.25745      -1.56209624    
   2.54972792     -0.507171988     -0.517000020       1991.25745      -1.56209624    
   2.40179110     -0.994853973     -0.517000020       1991.25745      -1.56209624    
   1.73421395     -0.718334973     -0.606999993       1991.25745      -1.56209624    
   1.73421395     -0.718334973     -0.606999993       4225.11035      -1.56609356    
   1.26109600     -0.522363007     -0.606999993       4225.11035      -1.56609356    
   1.33877206     -0.266297996     -0.606999993       4225.11035      -1.56609356    
   1.84103203     -0.366203994     -0.606999993       4225.11035      -1.56609356    
   1.73421395     -0.718334973     -0.606999993       3351.07129      -1.56245291    
   2.40179110     -0.994853973     -0.517000020       3351.07129      -1.56245291    
   2.16155505      -1.44430494     -0.517000020       3351.07129      -1.56245291    
   1.56075203      -1.04286098     -0.606999993       3351.07129      -1.56245291    
   1.56075203      -1.04286098     -0.606999993       6873.84619      -1.56622863    
   1.13495600     -0.758352995     -0.606999993       6873.84619      -1.56622863    
   1.26109600     -0.522363007     -0.606999993       6873.84619      -1.56622863    