 VARIABLES="X" "Y" "Z" "abs(p) (Pa)" "angle(p) (rad)"
ZONE N=   2709,E =    2358, F=FEPOINT, ET=QUADRILATERAL
   0.00000000      -5.48999977     -0.157000005       1713.32507      -1.46128213    
   0.00000000      -4.76741982     -0.246999994       1713.32507      -1.46128213    
  0.930077016      -4.67581606     -0.246999994       1713.32507      -1.46128213    
   1.07104599      -5.38451099     -0.157000005       1713.32507      -1.46128213    
  -1.07104599      -5.38451099     -0.157000005       1713.87732      -1.46130335    
 -0.930077016      -4.67581606     -0.246999994       1713.87732      -1.46130335    
   0.00000000      -4.76741982     -0.246999994       1713.87732      -1.46130335    
   0.00000000      -5.48999977     -0.157000005       1713.87732      -1.46130335    
  -2.10093188      -5.07209921     -0.157000005       1648.91956      -1.46161842    
  -1.82441294      -4.40452194     -0.246999994       1648.91956      -1.46161842    
 -0.930077016      -4.67581606     -0.246999994       1648.91956      -1.46161842    
  -1.07104599      -5.38451099     -0.157000005       1648.91956      -1.46161842    
  -3.05008101      -4.56476784     -0.157000005       1521.87097      -1.46156907    
  -2.64863706      -3.96396494     -0.246999994       1521.87097      -1.46156907    
  -1.82441294      -4.40452194     -0.246999994       1521.87097      -1.46156907    
  -2.10093188      -5.07209921     -0.157000005       1521.87097      -1.46156907    
  -3.88201594      -3.88201594     -0.157000005       1340.70447      -1.46216571    
  -3.37107491      -3.37107491     -0.246999994       1340.70447      -1.46216571    
  -2.64863706      -3.96396494     -0.246999994       1340.70447      -1.46216571    
  -3.05008101      -4.56476784     -0.157000005       1340.70447      -1.46216571    
  -4.56476784      -3.05008101     -0.157000005       1106.19897      -1.46321762    
  -3.96396494      -2.64863706     -0.246999994       1106.19897      -1.46321762    
  -3.37107491      -3.37107491     -0.246999994       1106.19897      -1.46321762    
  -3.88201594      -3.88201594     -0.157000005       1106.19897      -1.46321762    
  -5.07209921      -2.10093188     -0.157000005       823.451050      -1.46350336    
  -4.40452194      -1.82441294     -0.246999994       823.451050      -1.46350336    
  -3.96396494      -2.64863706     -0.246999994       823.451050      -1.46350336    
  -4.56476784      -3.05008101     -0.157000005       823.451050      -1.46350336    
  -5.38451099      -1.07104599     -0.157000005       507.818939      -1.46449721    
  -4.67581606     -0.930077016     -0.246999994       507.818939      -1.46449721    
  -4.40452194      -1.82441294     -0.246999994       507.818939      -1.46449721    
  -5.07209921      -2.10093188     -0.157000005       507.818939      -1.46449721    
  -5.48999977       0.00000000     -0.157000005       176.033646      -1.47194195    
  -4.76741982       0.00000000     -0.246999994       176.033646      -1.47194195    
  -4.67581606     -0.930077016     -0.246999994       176.033646      -1.47194195    
  -5.38451099      -1.07104599     -0.157000005       176.033646      -1.47194195    
  -5.38451099       1.07104599     -0.157000005       159.968750       1.69439542    
  -4.67581606      0.930077016     -0.246999994       159.968750       1.69439542    
  -4.76741982       0.00000000     -0.246999994       159.968750       1.69439542    
  -5.48999977       0.00000000     -0.157000005       159.968750       1.69439542    
  -5.07209921       2.10093188     -0.157000005       492.493256       1.68503761    
  -4.40452194       1.82441294     -0.246999994       492.493256       1.68503761    
  -4.67581606      0.930077016     -0.246999994       492.493256       1.68503761    
  -5.38451099       1.07104599     -0.157000005       492.493256       1.68503761    
  -4.56476784       3.05008101     -0.157000005       811.328247       1.68264318    
  -3.96396494       2.64863706     -0.246999994       811.328247       1.68264318    
  -4.40452194       1.82441294     -0.246999994       811.328247       1.68264318    
  -5.07209921       2.10093188     -0.157000005       811.328247       1.68264318    
  -3.88201594       3.88201594     -0.157000005       1099.90515       1.68178082    
  -3.37107491       3.37107491     -0.246999994       1099.90515       1.68178082    
  -3.96396494       2.64863706     -0.246999994       1099.90515       1.68178082    
  -4.56476784       3.05008101     -0.157000005       1099.90515       1.68178082    
  -3.05008101       4.56476784     -0.157000005       1340.62549       1.68135273    
  -2.64863706       3.96396494     -0.246999994       1340.62549       1.68135273    
  -3.37107491       3.37107491     -0.246999994       1340.62549       1.68135273    
  -3.88201594       3.88201594     -0.157000005       1340.62549       1.68135273    
  -2.10093188       5.07209921     -0.157000005       1525.37524       1.68176639    
  -1.82441294       4.40452194     -0.246999994       1525.37524       1.68176639    
  -2.64863706       3.96396494     -0.246999994       1525.37524       1.68176639    
  -3.05008101       4.56476784     -0.157000005       1525.37524       1.68176639    
  -1.07104599       5.38451099     -0.157000005       1654.86194       1.68153381    
 -0.930077016       4.67581606     -0.246999994       1654.86194       1.68153381    
  -1.82441294       4.40452194     -0.246999994       1654.86194       1.68153381    
  -2.10093188       5.07209921     -0.157000005       1654.86194       1.68153381    
   0.00000000       5.48999977     -0.157000005       1722.17908       1.68169725    
   0.00000000       4.76741982     -0.246999994       1722.17908       1.68169725    
 -0.930077016       4.67581606     -0.246999994       1722.17908       1.68169725    
  -1.07104599       5.38451099     -0.157000005       1722.17908       1.68169725    
   1.07104599       5.38451099     -0.157000005       1722.54407       1.68150461    
  0.930077016       4.67581606     -0.246999994       1722.54407       1.68150461    
   0.00000000       4.76741982     -0.246999994       1722.54407       1.68150461    
   0.00000000       5.48999977     -0.157000005       1722.54407       1.68150461    
   2.10093188       5.07209921     -0.157000005       1657.14319       1.68178082    
   1.82441294       4.40452194     -0.246999994       1657.14319       1.68178082    
  0.930077016       4.67581606     -0.246999994       1657.14319       1.68178082    
   1.07104599       5.38451099     -0.157000005       1657.14319       1.68178082    
   3.05008101       4.56476784     -0.157000005       1528.64258       1.68182683    
   2.64863706       3.96396494     -0.246999994       1528.64258       1.68182683    
   1.82441294       4.40452194     -0.246999994       1528.64258       1.68182683    
   2.10093188       5.07209921     -0.157000005       1528.64258       1.68182683    
   3.88201594       3.88201594     -0.157000005       1344.79858       1.68136334    
   3.37107491       3.37107491     -0.246999994       1344.79858       1.68136334    
   2.64863706       3.96396494     -0.246999994       1344.79858       1.68136334    
   3.05008101       4.56476784     -0.157000005       1344.79858       1.68136334    
   4.56476784       3.05008101     -0.157000005       1104.80383       1.68162060    
   3.96396494       2.64863706     -0.246999994       1104.80383       1.68162060    
   3.37107491       3.37107491     -0.246999994       1104.80383       1.68162060    
   3.88201594       3.88201594     -0.157000005       1104.80383       1.68162060    
   5.07209921       2.10093188     -0.157000005       816.966003       1.68268299    
   4.40452194       1.82441294     -0.246999994       816.966003       1.68268299    
   3.96396494       2.64863706     -0.246999994       816.966003       1.68268299    
   4.56476784       3.05008101     -0.157000005       816.966003       1.68268299    
   5.38451099       1.07104599     -0.157000005       498.976532       1.68543220    
   4.67581606      0.930077016     -0.246999994       498.976532       1.68543220    
   4.40452194       1.82441294     -0.246999994       498.976532       1.68543220    
   5.07209921       2.10093188     -0.157000005       498.976532       1.68543220    
   5.48999977       0.00000000     -0.157000005       166.608002       1.69489384    
   4.76741982       0.00000000     -0.246999994       166.608002       1.69489384    
   4.67581606      0.930077016     -0.246999994       166.608002       1.69489384    
   5.38451099       1.07104599     -0.157000005       166.608002       1.69489384    
   5.38451099      -1.07104599     -0.157000005       169.566864      -1.47287059    
   4.67581606     -0.930077016     -0.246999994       169.566864      -1.47287059    
   4.76741982       0.00000000     -0.246999994       169.566864      -1.47287059    
   5.48999977       0.00000000     -0.157000005       169.566864      -1.47287059    
   5.07209921      -2.10093188     -0.157000005       501.609253      -1.46472347    
   4.40452194      -1.82441294     -0.246999994       501.609253      -1.46472347    
   4.67581606     -0.930077016     -0.246999994       501.609253      -1.46472347    
   5.38451099      -1.07104599     -0.157000005       501.609253      -1.46472347    
   4.56476784      -3.05008101     -0.157000005       817.921204      -1.46353769    
   3.96396494      -2.64863706     -0.246999994       817.921204      -1.46353769    
   4.40452194      -1.82441294     -0.246999994       817.921204      -1.46353769    
   5.07209921      -2.10093188     -0.157000005       817.921204      -1.46353769    
   3.88201594      -3.88201594     -0.157000005       1101.56677      -1.46298230    
   3.37107491      -3.37107491     -0.246999994       1101.56677      -1.46298230    
   3.96396494      -2.64863706     -0.246999994       1101.56677      -1.46298230    
   4.56476784      -3.05008101     -0.157000005       1101.56677      -1.46298230    
   3.05008101      -4.56476784     -0.157000005       1336.57495      -1.46245384    
   2.64863706      -3.96396494     -0.246999994       1336.57495      -1.46245384    
   3.37107491      -3.37107491     -0.246999994       1336.57495      -1.46245384    
   3.88201594      -3.88201594     -0.157000005       1336.57495      -1.46245384    
   2.10093188      -5.07209921     -0.157000005       1518.92810      -1.46158850    
   1.82441294      -4.40452194     -0.246999994       1518.92810      -1.46158850    
   2.64863706      -3.96396494     -0.246999994       1518.92810      -1.46158850    
   3.05008101      -4.56476784     -0.157000005       1518.92810      -1.46158850    
   1.07104599      -5.38451099     -0.157000005       1647.50500      -1.46136916    
  0.930077016      -4.67581606     -0.246999994       1647.50500      -1.46136916    
   1.82441294      -4.40452194     -0.246999994       1647.50500      -1.46136916    
   2.10093188      -5.07209921     -0.157000005       1647.50500      -1.46136916    
   0.00000000      -1.87709999     -0.606999993       7487.95117      -1.56474245    
   0.00000000      -1.36500001     -0.606999993       7487.95117      -1.56474245    
  0.266297996      -1.33877206     -0.606999993       7487.95117      -1.56474245    
  0.366203994      -1.84103203     -0.606999993       7487.95117      -1.56474245    
   0.00000000      -1.87709999     -0.606999993       4662.11670      -1.55447459    
   0.00000000      -2.59967995     -0.517000020       4662.11670      -1.55447459    
 -0.507171988      -2.54972792     -0.517000020       4662.11670      -1.55447459    
 -0.366203994      -1.84103203     -0.606999993       4662.11670      -1.55447459    
 -0.366203994      -1.84103203     -0.606999993       7497.51123      -1.56474233    
 -0.266297996      -1.33877206     -0.606999993       7497.51123      -1.56474233    
   0.00000000      -1.36500001     -0.606999993       7497.51123      -1.56474233    
   0.00000000      -1.87709999     -0.606999993       7497.51123      -1.56474233    
 -0.366203994      -1.84103203     -0.606999993       4516.06543      -1.55455184    
 -0.507171988      -2.54972792     -0.517000020       4516.06543      -1.55455184    
 -0.994853973      -2.40179110     -0.517000020       4516.06543      -1.55455184    
 -0.718334973      -1.73421395     -0.606999993       4516.06543      -1.55455184    
 -0.718334973      -1.73421395     -0.606999993       7241.02881      -1.56474268    
 -0.522363007      -1.26109600     -0.606999993       7241.02881      -1.56474268    
 -0.266297996      -1.33877206     -0.606999993       7241.02881      -1.56474268    
 -0.366203994      -1.84103203     -0.606999993       7241.02881      -1.56474268    
 -0.718334973      -1.73421395     -0.606999993       4212.52539      -1.55467629    
 -0.994853973      -2.40179110     -0.517000020       4212.52539      -1.55467629    
  -1.44430494      -2.16155505     -0.517000020       4212.52539      -1.55467629    
  -1.04286098      -1.56075203     -0.606999993       4212.52539      -1.55467629    
  -1.04286098      -1.56075203     -0.606999993       6715.99902      -1.56474674    
 -0.758352995      -1.13495600     -0.606999993       6715.99902      -1.56474674    
 -0.522363007      -1.26109600     -0.606999993       6715.99902      -1.56474674    
 -0.718334973      -1.73421395     -0.606999993       6715.99902      -1.56474674    
  -1.04286098      -1.56075203     -0.606999993       3738.20801      -1.55481482    
  -1.44430494      -2.16155505     -0.517000020       3738.20801      -1.55481482    
  -1.83825099      -1.83825099     -0.517000020       3738.20801      -1.55481482    
  -1.32730997      -1.32730997     -0.606999993       3738.20801      -1.55481482    
  -1.32730997      -1.32730997     -0.606999993       5923.23047      -1.56476355    
 -0.965201020     -0.965201020     -0.606999993       5923.23047      -1.56476355    
 -0.758352995      -1.13495600     -0.606999993       5923.23047      -1.56476355    
  -1.04286098      -1.56075203     -0.606999993       5923.23047      -1.56476355    
  -1.32730997      -1.32730997     -0.606999993       3086.20703      -1.55493963    
  -1.83825099      -1.83825099     -0.517000020       3086.20703      -1.55493963    
  -2.16155505      -1.44430494     -0.517000020       3086.20703      -1.55493963    
  -1.56075203      -1.04286098     -0.606999993       3086.20703      -1.55493963    
  -1.56075203      -1.04286098     -0.606999993       4881.29443      -1.56481135    
  -1.13495600     -0.758352995     -0.606999993       4881.29443      -1.56481135    
 -0.965201020     -0.965201020     -0.606999993       4881.29443      -1.56481135    
  -1.32730997      -1.32730997     -0.606999993       4881.29443      -1.56481135    
  -1.56075203      -1.04286098     -0.606999993       2281.31104      -1.55507338    
  -2.16155505      -1.44430494     -0.517000020       2281.31104      -1.55507338    
  -2.40179110     -0.994853973     -0.517000020       2281.31104      -1.55507338    
  -1.73421395     -0.718334973     -0.606999993       2281.31104      -1.55507338    
  -1.73421395     -0.718334973     -0.606999993       3635.82275      -1.56492710    
  -1.26109600     -0.522363007     -0.606999993       3635.82275      -1.56492710    
  -1.13495600     -0.758352995     -0.606999993       3635.82275      -1.56492710    
  -1.56075203      -1.04286098     -0.606999993       3635.82275      -1.56492710    
  -1.73421395     -0.718334973     -0.606999993       1393.49792      -1.55544603    
  -2.40179110     -0.994853973     -0.517000020       1393.49792      -1.55544603    
  -2.54972792     -0.507171988     -0.517000020       1393.49792      -1.55544603    
  -1.84103203     -0.366203994     -0.606999993       1393.49792      -1.55544603    
  -1.84103203     -0.366203994     -0.606999993       2254.22949      -1.56520522    
  -1.33877206     -0.266297996     -0.606999993       2254.22949      -1.56520522    
  -1.26109600     -0.522363007     -0.606999993       2254.22949      -1.56520522    
  -1.73421395     -0.718334973     -0.606999993       2254.22949      -1.56520522    
  -1.84103203     -0.366203994     -0.606999993       491.113190      -1.55778873    
  -2.54972792     -0.507171988     -0.517000020       491.113190      -1.55778873    
  -2.59967995       0.00000000     -0.517000020       491.113190      -1.55778873    
  -1.87709999       0.00000000     -0.606999993       491.113190      -1.55778873    
  -1.87709999       0.00000000     -0.606999993       804.608032      -1.56644297    
  -1.36500001       0.00000000     -0.606999993       804.608032      -1.56644297    
  -1.33877206     -0.266297996     -0.606999993       804.608032      -1.56644297    
  -1.84103203     -0.366203994     -0.606999993       804.608032      -1.56644297    
  -1.87709999       0.00000000     -0.606999993       398.484253       1.59243345    
  -2.59967995       0.00000000     -0.517000020       398.484253       1.59243345    
  -2.54972792      0.507171988     -0.517000020       398.484253       1.59243345    
  -1.84103203      0.366203994     -0.606999993       398.484253       1.59243345    
  -1.84103203      0.366203994     -0.606999993       660.424255       1.57934153    
  -1.33877206      0.266297996     -0.606999993       660.424255       1.57934153    
  -1.36500001       0.00000000     -0.606999993       660.424255       1.57934153    
  -1.87709999       0.00000000     -0.606999993       660.424255       1.57934153    
  -1.84103203      0.366203994     -0.606999993       1287.87292       1.58904815    
  -2.54972792      0.507171988     -0.517000020       1287.87292       1.58904815    
  -2.40179110      0.994853973     -0.517000020       1287.87292       1.58904815    
  -1.73421395      0.718334973     -0.606999993       1287.87292       1.58904815    
  -1.73421395      0.718334973     -0.606999993       2104.73706       1.57776618    
  -1.26109600      0.522363007     -0.606999993       2104.73706       1.57776618    
  -1.33877206      0.266297996     -0.606999993       2104.73706       1.57776618    
  -1.84103203      0.366203994     -0.606999993       2104.73706       1.57776618    
  -1.73421395      0.718334973     -0.606999993       2166.84326       1.58828890    
  -2.40179110      0.994853973     -0.517000020       2166.84326       1.58828890    
  -2.16155505       1.44430494     -0.517000020       2166.84326       1.58828890    
  -1.56075203       1.04286098     -0.606999993       2166.84326       1.58828890    
  -1.56075203       1.04286098     -0.606999993       3484.19287       1.57749391    
  -1.13495600      0.758352995     -0.606999993       3484.19287       1.57749391    
  -1.26109600      0.522363007     -0.606999993       3484.19287       1.57749391    
  -1.73421395      0.718334973     -0.606999993       3484.19287       1.57749391    
  -1.56075203       1.04286098     -0.606999993       2980.17407       1.58792257    
  -2.16155505       1.44430494     -0.517000020       2980.17407       1.58792257    
  -1.83825099       1.83825099     -0.517000020       2980.17407       1.58792257    
  -1.32730997       1.32730997     -0.606999993       2980.17407       1.58792257    
  -1.32730997       1.32730997     -0.606999993       4737.89551       1.57738721    
 -0.965201020      0.965201020     -0.606999993       4737.89551       1.57738721    
  -1.13495600      0.758352995     -0.606999993       4737.89551       1.57738721    
  -1.56075203       1.04286098     -0.606999993       4737.89551       1.57738721    
  -1.32730997       1.32730997     -0.606999993       3654.60596       1.58776689    
  -1.83825099       1.83825099     -0.517000020       3654.60596       1.58776689    
  -1.44430494       2.16155505     -0.517000020       3654.60596       1.58776689    
  -1.04286098       1.56075203     -0.606999993       3654.60596       1.58776689    
  -1.04286098       1.56075203     -0.606999993       5797.86865       1.57732642    
 -0.758352995       1.13495600     -0.606999993       5797.86865       1.57732642    
 -0.965201020      0.965201020     -0.606999993       5797.86865       1.57732642    
  -1.32730997       1.32730997     -0.606999993       5797.86865       1.57732642    
  -1.04286098       1.56075203     -0.606999993       4153.22314       1.58773887    
  -1.44430494       2.16155505     -0.517000020       4153.22314       1.58773887    
 -0.994853973       2.40179110     -0.517000020       4153.22314       1.58773887    
 -0.718334973       1.73421395     -0.606999993       4153.22314       1.58773887    
 -0.718334973       1.73421395     -0.606999993       6615.34912       1.57728350    
 -0.522363007       1.26109600     -0.606999993       6615.34912       1.57728350    
 -0.758352995       1.13495600     -0.606999993       6615.34912       1.57728350    
  -1.04286098       1.56075203     -0.606999993       6615.34912       1.57728350    
 -0.718334973       1.73421395     -0.606999993       4476.61670       1.58776391    
 -0.994853973       2.40179110     -0.517000020       4476.61670       1.58776391    
 -0.507171988       2.54972792     -0.517000020       4476.61670       1.58776391    
 -0.366203994       1.84103203     -0.606999993       4476.61670       1.58776391    
 -0.366203994       1.84103203     -0.606999993       7166.28223       1.57725370    
 -0.266297996       1.33877206     -0.606999993       7166.28223       1.57725370    
 -0.522363007       1.26109600     -0.606999993       7166.28223       1.57725370    
 -0.718334973       1.73421395     -0.606999993       7166.28223       1.57725370    
 -0.366203994       1.84103203     -0.606999993       4638.00000       1.58778429    
 -0.507171988       2.54972792     -0.517000020       4638.00000       1.58778429    
   0.00000000       2.59967995     -0.517000020       4638.00000       1.58778429    
   0.00000000       1.87709999     -0.606999993       4638.00000       1.58778429    
   0.00000000       1.87709999     -0.606999993       7446.54590       1.57723618    
   0.00000000       1.36500001     -0.606999993       7446.54590       1.57723618    
 -0.266297996       1.33877206     -0.606999993       7446.54590       1.57723618    
 -0.366203994       1.84103203     -0.606999993       7446.54590       1.57723618    
   0.00000000       1.87709999     -0.606999993       4644.14453       1.58776808    
   0.00000000       2.59967995     -0.517000020       4644.14453       1.58776808    
  0.507171988       2.54972792     -0.517000020       4644.14453       1.58776808    
  0.366203994       1.84103203     -0.606999993       4644.14453       1.58776808    
  0.366203994       1.84103203     -0.606999993       7456.80273       1.57723045    
  0.266297996       1.33877206     -0.606999993       7456.80273       1.57723045    
   0.00000000       1.36500001     -0.606999993       7456.80273       1.57723045    
   0.00000000       1.87709999     -0.606999993       7456.80273       1.57723045    
  0.366203994       1.84103203     -0.606999993       4494.83545       1.58771348    
  0.507171988       2.54972792     -0.517000020       4494.83545       1.58771348    
  0.994853973       2.40179110     -0.517000020       4494.83545       1.58771348    
  0.718334973       1.73421395     -0.606999993       4494.83545       1.58771348    
  0.718334973       1.73421395     -0.606999993       7196.67676       1.57723629    
  0.522363007       1.26109600     -0.606999993       7196.67676       1.57723629    
  0.266297996       1.33877206     -0.606999993       7196.67676       1.57723629    
  0.366203994       1.84103203     -0.606999993       7196.67676       1.57723629    
  0.718334973       1.73421395     -0.606999993       4183.04541       1.58764982    
  0.994853973       2.40179110     -0.517000020       4183.04541       1.58764982    
   1.44430494       2.16155505     -0.517000020       4183.04541       1.58764982    
   1.04286098       1.56075203     -0.606999993       4183.04541       1.58764982    
   1.04286098       1.56075203     -0.606999993       6664.58203       1.57725310    
  0.758352995       1.13495600     -0.606999993       6664.58203       1.57725310    
  0.522363007       1.26109600     -0.606999993       6664.58203       1.57725310    
  0.718334973       1.73421395     -0.606999993       6664.58203       1.57725310    
   1.04286098       1.56075203     -0.606999993       3695.13110       1.58762920    
   1.44430494       2.16155505     -0.517000020       3695.13110       1.58762920    
   1.83825099       1.83825099     -0.517000020       3695.13110       1.58762920    
   1.32730997       1.32730997     -0.606999993       3695.13110       1.58762920    
   1.32730997       1.32730997     -0.606999993       5864.27246       1.57728028    
  0.965201020      0.965201020     -0.606999993       5864.27246       1.57728028    
  0.758352995       1.13495600     -0.606999993       5864.27246       1.57728028    
   1.04286098       1.56075203     -0.606999993       5864.27246       1.57728028    
   1.32730997       1.32730997     -0.606999993       3029.69165       1.58771682    
   1.83825099       1.83825099     -0.517000020       3029.69165       1.58771682    
   2.16155505       1.44430494     -0.517000020       3029.69165       1.58771682    
   1.56075203       1.04286098     -0.606999993       3029.69165       1.58771682    
   1.56075203       1.04286098     -0.606999993       4818.39648       1.57732117    
   1.13495600      0.758352995     -0.606999993       4818.39648       1.57732117    
  0.965201020      0.965201020     -0.606999993       4818.39648       1.57732117    
   1.32730997       1.32730997     -0.606999993       4818.39648       1.57732117    
   1.56075203       1.04286098     -0.606999993       2222.69092       1.58797050    
   2.16155505       1.44430494     -0.517000020       2222.69092       1.58797050    
   2.40179110      0.994853973     -0.517000020       2222.69092       1.58797050    
   1.73421395      0.718334973     -0.606999993       2222.69092       1.58797050    
   1.73421395      0.718334973     -0.606999993       3574.01831       1.57740211    
   1.26109600      0.522363007     -0.606999993       3574.01831       1.57740211    
   1.13495600      0.758352995     -0.606999993       3574.01831       1.57740211    
   1.56075203       1.04286098     -0.606999993       3574.01831       1.57740211    
   1.73421395      0.718334973     -0.606999993       1347.23938       1.58847368    
   2.40179110      0.994853973     -0.517000020       1347.23938       1.58847368    
   2.54972792      0.507171988     -0.517000020       1347.23938       1.58847368    
   1.84103203      0.366203994     -0.606999993       1347.23938       1.58847368    
   1.84103203      0.366203994     -0.606999993       2199.87646       1.57761407    
   1.33877206      0.266297996     -0.606999993       2199.87646       1.57761407    
   1.26109600      0.522363007     -0.606999993       2199.87646       1.57761407    
   1.73421395      0.718334973     -0.606999993       2199.87646       1.57761407    
   1.84103203      0.366203994     -0.606999993       459.047821       1.59031701    
   2.54972792      0.507171988     -0.517000020       459.047821       1.59031701    
   2.59967995       0.00000000     -0.517000020       459.047821       1.59031701    
   1.87709999       0.00000000     -0.606999993       459.047821       1.59031701    
   1.87709999       0.00000000     -0.606999993       757.618225       1.57873487    
   1.36500001       0.00000000     -0.606999993       757.618225       1.57873487    
   1.33877206      0.266297996     -0.606999993       757.618225       1.57873487    
   1.84103203      0.366203994     -0.606999993       757.618225       1.57873487    
   1.87709999       0.00000000     -0.606999993       431.351593      -1.55680823    
   2.59967995       0.00000000     -0.517000020       431.351593      -1.55680823    
   2.54972792     -0.507171988     -0.517000020       431.351593      -1.55680823    
   1.84103203     -0.366203994     -0.606999993       431.351593      -1.55680823    
   1.84103203     -0.366203994     -0.606999993       708.894775      -1.56642520    
   1.33877206     -0.266297996     -0.606999993       708.894775      -1.56642520    
   1.36500001       0.00000000     -0.606999993       708.894775      -1.56642520    
   1.87709999       0.00000000     -0.606999993       708.894775      -1.56642520    
   1.84103203     -0.366203994     -0.606999993       1336.44336      -1.55505490    
   2.54972792     -0.507171988     -0.517000020       1336.44336      -1.55505490    
   2.40179110     -0.994853973     -0.517000020       1336.44336      -1.55505490    
   1.73421395     -0.718334973     -0.606999993       1336.44336      -1.55505490    
   1.73421395     -0.718334973     -0.606999993       2163.57715      -1.56516528    
   1.26109600     -0.522363007     -0.606999993       2163.57715      -1.56516528    
   1.33877206     -0.266297996     -0.606999993       2163.57715      -1.56516528    
   1.84103203     -0.366203994     -0.606999993       2163.57715      -1.56516528    
   1.73421395     -0.718334973     -0.606999993       2228.93848      -1.55485499    
   2.40179110     -0.994853973     -0.517000020       2228.93848      -1.55485499    
   2.16155505      -1.44430494     -0.517000020       2228.93848      -1.55485499    
   1.56075203      -1.04286098     -0.606999993       2228.93848      -1.55485499    
   1.56075203      -1.04286098     -0.606999993       3553.77856      -1.56491065    
   1.13495600     -0.758352995     -0.606999993       3553.77856      -1.56491065    
   1.26109600     -0.522363007     -0.606999993       3553.77856      -1.56491065    