 VARIABLES="X" "Y" "Z" "abs(p) (Pa)" "angle(p) (rad)"
ZONE N=   2709,E =    2358, F=FEPOINT, ET=QUADRILATERAL
   0.00000000      -5.48999977     -0.157000005       507.160461       2.68098092    
   0.00000000      -4.76741982     -0.246999994       507.160461       2.68098092    
  0.930077016      -4.67581606     -0.246999994       507.160461       2.68098092    
   1.07104599      -5.38451099     -0.157000005       507.160461       2.68098092    
  -1.07104599      -5.38451099     -0.157000005       507.003845       2.68070722    
 -0.930077016      -4.67581606     -0.246999994       507.003845       2.68070722    
   0.00000000      -4.76741982     -0.246999994       507.003845       2.68070722    
   0.00000000      -5.48999977     -0.157000005       507.003845       2.68070722    
  -2.10093188      -5.07209921     -0.157000005       485.528839       2.67835331    
  -1.82441294      -4.40452194     -0.246999994       485.528839       2.67835331    
 -0.930077016      -4.67581606     -0.246999994       485.528839       2.67835331    
  -1.07104599      -5.38451099     -0.157000005       485.528839       2.67835331    
  -3.05008101      -4.56476784     -0.157000005       449.367462       2.67982793    
  -2.64863706      -3.96396494     -0.246999994       449.367462       2.67982793    
  -1.82441294      -4.40452194     -0.246999994       449.367462       2.67982793    
  -2.10093188      -5.07209921     -0.157000005       449.367462       2.67982793    
  -3.88201594      -3.88201594     -0.157000005       394.549500       2.67713594    
  -3.37107491      -3.37107491     -0.246999994       394.549500       2.67713594    
  -2.64863706      -3.96396494     -0.246999994       394.549500       2.67713594    
  -3.05008101      -4.56476784     -0.157000005       394.549500       2.67713594    
  -4.56476784      -3.05008101     -0.157000005       322.606262       2.67136097    
  -3.96396494      -2.64863706     -0.246999994       322.606262       2.67136097    
  -3.37107491      -3.37107491     -0.246999994       322.606262       2.67136097    
  -3.88201594      -3.88201594     -0.157000005       322.606262       2.67136097    
  -5.07209921      -2.10093188     -0.157000005       240.970047       2.67290211    
  -4.40452194      -1.82441294     -0.246999994       240.970047       2.67290211    
  -3.96396494      -2.64863706     -0.246999994       240.970047       2.67290211    
  -4.56476784      -3.05008101     -0.157000005       240.970047       2.67290211    
  -5.38451099      -1.07104599     -0.157000005       148.789398       2.67329049    
  -4.67581606     -0.930077016     -0.246999994       148.789398       2.67329049    
  -4.40452194      -1.82441294     -0.246999994       148.789398       2.67329049    
  -5.07209921      -2.10093188     -0.157000005       148.789398       2.67329049    
  -5.48999977       0.00000000     -0.157000005       50.6694298       2.66113400    
  -4.76741982       0.00000000     -0.246999994       50.6694298       2.66113400    
  -4.67581606     -0.930077016     -0.246999994       50.6694298       2.66113400    
  -5.38451099      -1.07104599     -0.157000005       50.6694298       2.66113400    
  -5.38451099       1.07104599     -0.157000005       48.6788139     -0.440847397    
  -4.67581606      0.930077016     -0.246999994       48.6788139     -0.440847397    
  -4.76741982       0.00000000     -0.246999994       48.6788139     -0.440847397    
  -5.48999977       0.00000000     -0.157000005       48.6788139     -0.440847397    
  -5.07209921       2.10093188     -0.157000005       146.421890     -0.457876533    
  -4.40452194       1.82441294     -0.246999994       146.421890     -0.457876533    
  -4.67581606      0.930077016     -0.246999994       146.421890     -0.457876533    
  -5.38451099       1.07104599     -0.157000005       146.421890     -0.457876533    
  -4.56476784       3.05008101     -0.157000005       239.251831     -0.464333564    
  -3.96396494       2.64863706     -0.246999994       239.251831     -0.464333564    
  -4.40452194       1.82441294     -0.246999994       239.251831     -0.464333564    
  -5.07209921       2.10093188     -0.157000005       239.251831     -0.464333564    
  -3.88201594       3.88201594     -0.157000005       324.283844     -0.465642363    
  -3.37107491       3.37107491     -0.246999994       324.283844     -0.465642363    
  -3.96396494       2.64863706     -0.246999994       324.283844     -0.465642363    
  -4.56476784       3.05008101     -0.157000005       324.283844     -0.465642363    
  -3.05008101       4.56476784     -0.157000005       393.850891     -0.467447191    
  -2.64863706       3.96396494     -0.246999994       393.850891     -0.467447191    
  -3.37107491       3.37107491     -0.246999994       393.850891     -0.467447191    
  -3.88201594       3.88201594     -0.157000005       393.850891     -0.467447191    
  -2.10093188       5.07209921     -0.157000005       450.704987     -0.463764638    
  -1.82441294       4.40452194     -0.246999994       450.704987     -0.463764638    
  -2.64863706       3.96396494     -0.246999994       450.704987     -0.463764638    
  -3.05008101       4.56476784     -0.157000005       450.704987     -0.463764638    
  -1.07104599       5.38451099     -0.157000005       487.359528     -0.465456247    
 -0.930077016       4.67581606     -0.246999994       487.359528     -0.465456247    
  -1.82441294       4.40452194     -0.246999994       487.359528     -0.465456247    
  -2.10093188       5.07209921     -0.157000005       487.359528     -0.465456247    
   0.00000000       5.48999977     -0.157000005       508.917664     -0.463808298    
   0.00000000       4.76741982     -0.246999994       508.917664     -0.463808298    
 -0.930077016       4.67581606     -0.246999994       508.917664     -0.463808298    
  -1.07104599       5.38451099     -0.157000005       508.917664     -0.463808298    
   1.07104599       5.38451099     -0.157000005       507.174713     -0.465654403    
  0.930077016       4.67581606     -0.246999994       507.174713     -0.465654403    
   0.00000000       4.76741982     -0.246999994       507.174713     -0.465654403    
   0.00000000       5.48999977     -0.157000005       507.174713     -0.465654403    
   2.10093188       5.07209921     -0.157000005       489.653015     -0.463600904    
   1.82441294       4.40452194     -0.246999994       489.653015     -0.463600904    
  0.930077016       4.67581606     -0.246999994       489.653015     -0.463600904    
   1.07104599       5.38451099     -0.157000005       489.653015     -0.463600904    
   3.05008101       4.56476784     -0.157000005       451.398712     -0.463832855    
   2.64863706       3.96396494     -0.246999994       451.398712     -0.463832855    
   1.82441294       4.40452194     -0.246999994       451.398712     -0.463832855    
   2.10093188       5.07209921     -0.157000005       451.398712     -0.463832855    
   3.88201594       3.88201594     -0.157000005       394.164642     -0.468210250    
   3.37107491       3.37107491     -0.246999994       394.164642     -0.468210250    
   2.64863706       3.96396494     -0.246999994       394.164642     -0.468210250    
   3.05008101       4.56476784     -0.157000005       394.164642     -0.468210250    
   4.56476784       3.05008101     -0.157000005       323.599213     -0.468330860    
   3.96396494       2.64863706     -0.246999994       323.599213     -0.468330860    
   3.37107491       3.37107491     -0.246999994       323.599213     -0.468330860    
   3.88201594       3.88201594     -0.157000005       323.599213     -0.468330860    
   5.07209921       2.10093188     -0.157000005       239.682205     -0.465878725    
   4.40452194       1.82441294     -0.246999994       239.682205     -0.465878725    
   3.96396494       2.64863706     -0.246999994       239.682205     -0.465878725    
   4.56476784       3.05008101     -0.157000005       239.682205     -0.465878725    
   5.38451099       1.07104599     -0.157000005       148.011765     -0.457485676    
   4.67581606      0.930077016     -0.246999994       148.011765     -0.457485676    
   4.40452194       1.82441294     -0.246999994       148.011765     -0.457485676    
   5.07209921       2.10093188     -0.157000005       148.011765     -0.457485676    
   5.48999977       0.00000000     -0.157000005       50.0427094     -0.442940086    
   4.76741982       0.00000000     -0.246999994       50.0427094     -0.442940086    
   4.67581606      0.930077016     -0.246999994       50.0427094     -0.442940086    
   5.38451099       1.07104599     -0.157000005       50.0427094     -0.442940086    
   5.38451099      -1.07104599     -0.157000005       49.7951241       2.66682315    
   4.67581606     -0.930077016     -0.246999994       49.7951241       2.66682315    
   4.76741982       0.00000000     -0.246999994       49.7951241       2.66682315    
   5.48999977       0.00000000     -0.157000005       49.7951241       2.66682315    
   5.07209921      -2.10093188     -0.157000005       147.950302       2.67511797    
   4.40452194      -1.82441294     -0.246999994       147.950302       2.67511797    
   4.67581606     -0.930077016     -0.246999994       147.950302       2.67511797    
   5.38451099      -1.07104599     -0.157000005       147.950302       2.67511797    
   4.56476784      -3.05008101     -0.157000005       240.699768       2.67473555    
   3.96396494      -2.64863706     -0.246999994       240.699768       2.67473555    
   4.40452194      -1.82441294     -0.246999994       240.699768       2.67473555    
   5.07209921      -2.10093188     -0.157000005       240.699768       2.67473555    
   3.88201594      -3.88201594     -0.157000005       323.884491       2.67484879    
   3.37107491      -3.37107491     -0.246999994       323.884491       2.67484879    
   3.96396494      -2.64863706     -0.246999994       323.884491       2.67484879    
   4.56476784      -3.05008101     -0.157000005       323.884491       2.67484879    
   3.05008101      -4.56476784     -0.157000005       392.487335       2.67548347    
   2.64863706      -3.96396494     -0.246999994       392.487335       2.67548347    
   3.37107491      -3.37107491     -0.246999994       392.487335       2.67548347    
   3.88201594      -3.88201594     -0.157000005       392.487335       2.67548347    
   2.10093188      -5.07209921     -0.157000005       449.103668       2.68021798    
   1.82441294      -4.40452194     -0.246999994       449.103668       2.68021798    
   2.64863706      -3.96396494     -0.246999994       449.103668       2.68021798    
   3.05008101      -4.56476784     -0.157000005       449.103668       2.68021798    
   1.07104599      -5.38451099     -0.157000005       487.621613       2.68084621    
  0.930077016      -4.67581606     -0.246999994       487.621613       2.68084621    
   1.82441294      -4.40452194     -0.246999994       487.621613       2.68084621    
   2.10093188      -5.07209921     -0.157000005       487.621613       2.68084621    
   0.00000000      -1.87709999     -0.606999993       1187.53638       1.66090953    
   0.00000000      -1.36500001     -0.606999993       1187.53638       1.66090953    
  0.266297996      -1.33877206     -0.606999993       1187.53638       1.66090953    
  0.366203994      -1.84103203     -0.606999993       1187.53638       1.66090953    
   0.00000000      -1.87709999     -0.606999993       764.972534       1.77090788    
   0.00000000      -2.59967995     -0.517000020       764.972534       1.77090788    
 -0.507171988      -2.54972792     -0.517000020       764.972534       1.77090788    
 -0.366203994      -1.84103203     -0.606999993       764.972534       1.77090788    
 -0.366203994      -1.84103203     -0.606999993       1188.66614       1.66090548    
 -0.266297996      -1.33877206     -0.606999993       1188.66614       1.66090548    
   0.00000000      -1.36500001     -0.606999993       1188.66614       1.66090548    
   0.00000000      -1.87709999     -0.606999993       1188.66614       1.66090548    
 -0.366203994      -1.84103203     -0.606999993       740.193970       1.77004087    
 -0.507171988      -2.54972792     -0.517000020       740.193970       1.77004087    
 -0.994853973      -2.40179110     -0.517000020       740.193970       1.77004087    
 -0.718334973      -1.73421395     -0.606999993       740.193970       1.77004087    
 -0.718334973      -1.73421395     -0.606999993       1147.80273       1.66086519    
 -0.522363007      -1.26109600     -0.606999993       1147.80273       1.66086519    
 -0.266297996      -1.33877206     -0.606999993       1147.80273       1.66086519    
 -0.366203994      -1.84103203     -0.606999993       1147.80273       1.66086519    
 -0.718334973      -1.73421395     -0.606999993       690.128662       1.76856339    
 -0.994853973      -2.40179110     -0.517000020       690.128662       1.76856339    
  -1.44430494      -2.16155505     -0.517000020       690.128662       1.76856339    
  -1.04286098      -1.56075203     -0.606999993       690.128662       1.76856339    
  -1.04286098      -1.56075203     -0.606999993       1064.68628       1.66080391    
 -0.758352995      -1.13495600     -0.606999993       1064.68628       1.66080391    
 -0.522363007      -1.26109600     -0.606999993       1064.68628       1.66080391    
 -0.718334973      -1.73421395     -0.606999993       1064.68628       1.66080391    
  -1.04286098      -1.56075203     -0.606999993       612.783691       1.76704347    
  -1.44430494      -2.16155505     -0.517000020       612.783691       1.76704347    
  -1.83825099      -1.83825099     -0.517000020       612.783691       1.76704347    
  -1.32730997      -1.32730997     -0.606999993       612.783691       1.76704347    
  -1.32730997      -1.32730997     -0.606999993       939.228943       1.66076803    
 -0.965201020     -0.965201020     -0.606999993       939.228943       1.66076803    
 -0.758352995      -1.13495600     -0.606999993       939.228943       1.66076803    
  -1.04286098      -1.56075203     -0.606999993       939.228943       1.66076803    
  -1.32730997      -1.32730997     -0.606999993       506.227722       1.76629150    
  -1.83825099      -1.83825099     -0.517000020       506.227722       1.76629150    
  -2.16155505      -1.44430494     -0.517000020       506.227722       1.76629150    
  -1.56075203      -1.04286098     -0.606999993       506.227722       1.76629150    
  -1.56075203      -1.04286098     -0.606999993       773.920776       1.66074371    
  -1.13495600     -0.758352995     -0.606999993       773.920776       1.66074371    
 -0.965201020     -0.965201020     -0.606999993       773.920776       1.66074371    
  -1.32730997      -1.32730997     -0.606999993       773.920776       1.66074371    
  -1.56075203      -1.04286098     -0.606999993       373.481171       1.76701450    
  -2.16155505      -1.44430494     -0.517000020       373.481171       1.76701450    
  -2.40179110     -0.994853973     -0.517000020       373.481171       1.76701450    
  -1.73421395     -0.718334973     -0.606999993       373.481171       1.76701450    
  -1.73421395     -0.718334973     -0.606999993       575.681152       1.66065609    
  -1.26109600     -0.522363007     -0.606999993       575.681152       1.66065609    
  -1.13495600     -0.758352995     -0.606999993       575.681152       1.66065609    
  -1.56075203      -1.04286098     -0.606999993       575.681152       1.66065609    
  -1.73421395     -0.718334973     -0.606999993       226.784302       1.76818609    
  -2.40179110     -0.994853973     -0.517000020       226.784302       1.76818609    
  -2.54972792     -0.507171988     -0.517000020       226.784302       1.76818609    
  -1.84103203     -0.366203994     -0.606999993       226.784302       1.76818609    
  -1.84103203     -0.366203994     -0.606999993       355.719208       1.66036034    
  -1.33877206     -0.266297996     -0.606999993       355.719208       1.66036034    
  -1.26109600     -0.522363007     -0.606999993       355.719208       1.66036034    
  -1.73421395     -0.718334973     -0.606999993       355.719208       1.66036034    
  -1.84103203     -0.366203994     -0.606999993       78.3271561       1.76365674    
  -2.54972792     -0.507171988     -0.517000020       78.3271561       1.76365674    
  -2.59967995       0.00000000     -0.517000020       78.3271561       1.76365674    
  -1.87709999       0.00000000     -0.606999993       78.3271561       1.76365674    
  -1.87709999       0.00000000     -0.606999993       125.348198       1.65889204    
  -1.36500001       0.00000000     -0.606999993       125.348198       1.65889204    
  -1.33877206     -0.266297996     -0.606999993       125.348198       1.65889204    
  -1.84103203     -0.366203994     -0.606999993       125.348198       1.65889204    
  -1.87709999       0.00000000     -0.606999993       67.1494675      -1.35264325    
  -2.59967995       0.00000000     -0.517000020       67.1494675      -1.35264325    
  -2.54972792      0.507171988     -0.517000020       67.1494675      -1.35264325    
  -1.84103203      0.366203994     -0.606999993       67.1494675      -1.35264325    
  -1.84103203      0.366203994     -0.606999993       106.986977      -1.47761619    
  -1.33877206      0.266297996     -0.606999993       106.986977      -1.47761619    
  -1.36500001       0.00000000     -0.606999993       106.986977      -1.47761619    
  -1.87709999       0.00000000     -0.606999993       106.986977      -1.47761619    
  -1.84103203      0.366203994     -0.606999993       213.119247      -1.36378205    
  -2.54972792      0.507171988     -0.517000020       213.119247      -1.36378205    
  -2.40179110      0.994853973     -0.517000020       213.119247      -1.36378205    
  -1.73421395      0.718334973     -0.606999993       213.119247      -1.36378205    
  -1.73421395      0.718334973     -0.606999993       336.177612      -1.47952282    
  -1.26109600      0.522363007     -0.606999993       336.177612      -1.47952282    
  -1.33877206      0.266297996     -0.606999993       336.177612      -1.47952282    
  -1.84103203      0.366203994     -0.606999993       336.177612      -1.47952282    
  -1.73421395      0.718334973     -0.606999993       358.107391      -1.36825681    
  -2.40179110      0.994853973     -0.517000020       358.107391      -1.36825681    
  -2.16155505       1.44430494     -0.517000020       358.107391      -1.36825681    
  -1.56075203       1.04286098     -0.606999993       358.107391      -1.36825681    
  -1.56075203       1.04286098     -0.606999993       555.364197      -1.47990239    
  -1.13495600      0.758352995     -0.606999993       555.364197      -1.47990239    
  -1.26109600      0.522363007     -0.606999993       555.364197      -1.47990239    
  -1.73421395      0.718334973     -0.606999993       555.364197      -1.47990239    
  -1.56075203       1.04286098     -0.606999993       492.226532      -1.37096763    
  -2.16155505       1.44430494     -0.517000020       492.226532      -1.37096763    
  -1.83825099       1.83825099     -0.517000020       492.226532      -1.37096763    
  -1.32730997       1.32730997     -0.606999993       492.226532      -1.37096763    
  -1.32730997       1.32730997     -0.606999993       754.587158      -1.48009908    
 -0.965201020      0.965201020     -0.606999993       754.587158      -1.48009908    
  -1.13495600      0.758352995     -0.606999993       754.587158      -1.48009908    
  -1.56075203       1.04286098     -0.606999993       754.587158      -1.48009908    
  -1.32730997       1.32730997     -0.606999993       602.428406      -1.37166107    
  -1.83825099       1.83825099     -0.517000020       602.428406      -1.37166107    
  -1.44430494       2.16155505     -0.517000020       602.428406      -1.37166107    
  -1.04286098       1.56075203     -0.606999993       602.428406      -1.37166107    
  -1.04286098       1.56075203     -0.606999993       922.538025      -1.48020542    
 -0.758352995       1.13495600     -0.606999993       922.538025      -1.48020542    
 -0.965201020      0.965201020     -0.606999993       922.538025      -1.48020542    
  -1.32730997       1.32730997     -0.606999993       922.538025      -1.48020542    
  -1.04286098       1.56075203     -0.606999993       683.487488      -1.37111688    
  -1.44430494       2.16155505     -0.517000020       683.487488      -1.37111688    
 -0.994853973       2.40179110     -0.517000020       683.487488      -1.37111688    
 -0.718334973       1.73421395     -0.606999993       683.487488      -1.37111688    
 -0.718334973       1.73421395     -0.606999993       1051.61548      -1.48026013    
 -0.522363007       1.26109600     -0.606999993       1051.61548      -1.48026013    
 -0.758352995       1.13495600     -0.606999993       1051.61548      -1.48026013    
  -1.04286098       1.56075203     -0.606999993       1051.61548      -1.48026013    
 -0.718334973       1.73421395     -0.606999993       736.314026      -1.37025213    
 -0.994853973       2.40179110     -0.517000020       736.314026      -1.37025213    
 -0.507171988       2.54972792     -0.517000020       736.314026      -1.37025213    
 -0.366203994       1.84103203     -0.606999993       736.314026      -1.37025213    
 -0.366203994       1.84103203     -0.606999993       1138.35437      -1.48027539    
 -0.266297996       1.33877206     -0.606999993       1138.35437      -1.48027539    
 -0.522363007       1.26109600     -0.606999993       1138.35437      -1.48027539    
 -0.718334973       1.73421395     -0.606999993       1138.35437      -1.48027539    
 -0.366203994       1.84103203     -0.606999993       763.020691      -1.36978734    
 -0.507171988       2.54972792     -0.517000020       763.020691      -1.36978734    
   0.00000000       2.59967995     -0.517000020       763.020691      -1.36978734    
   0.00000000       1.87709999     -0.606999993       763.020691      -1.36978734    
   0.00000000       1.87709999     -0.606999993       1182.32300      -1.48030078    
   0.00000000       1.36500001     -0.606999993       1182.32300      -1.48030078    
 -0.266297996       1.33877206     -0.606999993       1182.32300      -1.48030078    
 -0.366203994       1.84103203     -0.606999993       1182.32300      -1.48030078    
   0.00000000       1.87709999     -0.606999993       763.718628      -1.36994934    
   0.00000000       2.59967995     -0.517000020       763.718628      -1.36994934    
  0.507171988       2.54972792     -0.517000020       763.718628      -1.36994934    
  0.366203994       1.84103203     -0.606999993       763.718628      -1.36994934    
  0.366203994       1.84103203     -0.606999993       1183.51257      -1.48036063    
  0.266297996       1.33877206     -0.606999993       1183.51257      -1.48036063    
   0.00000000       1.36500001     -0.606999993       1183.51257      -1.48036063    
   0.00000000       1.87709999     -0.606999993       1183.51257      -1.48036063    
  0.366203994       1.84103203     -0.606999993       738.386719      -1.37075007    
  0.507171988       2.54972792     -0.517000020       738.386719      -1.37075007    
  0.994853973       2.40179110     -0.517000020       738.386719      -1.37075007    
  0.718334973       1.73421395     -0.606999993       738.386719      -1.37075007    
  0.718334973       1.73421395     -0.606999993       1141.88062      -1.48045957    
  0.522363007       1.26109600     -0.606999993       1141.88062      -1.48045957    
  0.266297996       1.33877206     -0.606999993       1141.88062      -1.48045957    
  0.366203994       1.84103203     -0.606999993       1141.88062      -1.48045957    
  0.718334973       1.73421395     -0.606999993       686.890137      -1.37199485    
  0.994853973       2.40179110     -0.517000020       686.890137      -1.37199485    
   1.44430494       2.16155505     -0.517000020       686.890137      -1.37199485    
   1.04286098       1.56075203     -0.606999993       686.890137      -1.37199485    
   1.04286098       1.56075203     -0.606999993       1057.32288      -1.48057926    
  0.758352995       1.13495600     -0.606999993       1057.32288      -1.48057926    
  0.522363007       1.26109600     -0.606999993       1057.32288      -1.48057926    
  0.718334973       1.73421395     -0.606999993       1057.32288      -1.48057926    
   1.04286098       1.56075203     -0.606999993       607.076172      -1.37301087    
   1.44430494       2.16155505     -0.517000020       607.076172      -1.37301087    
   1.83825099       1.83825099     -0.517000020       607.076172      -1.37301087    
   1.32730997       1.32730997     -0.606999993       607.076172      -1.37301087    
   1.32730997       1.32730997     -0.606999993       930.245178      -1.48067963    
  0.965201020      0.965201020     -0.606999993       930.245178      -1.48067963    
  0.758352995       1.13495600     -0.606999993       930.245178      -1.48067963    
   1.04286098       1.56075203     -0.606999993       930.245178      -1.48067963    
   1.32730997       1.32730997     -0.606999993       497.920807      -1.37296212    
   1.83825099       1.83825099     -0.517000020       497.920807      -1.37296212    
   2.16155505       1.44430494     -0.517000020       497.920807      -1.37296212    
   1.56075203       1.04286098     -0.606999993       497.920807      -1.37296212    
   1.56075203       1.04286098     -0.606999993       763.922668      -1.48075950    
   1.13495600      0.758352995     -0.606999993       763.922668      -1.48075950    
  0.965201020      0.965201020     -0.606999993       763.922668      -1.48075950    
   1.32730997       1.32730997     -0.606999993       763.922668      -1.48075950    
   1.56075203       1.04286098     -0.606999993       364.522400      -1.37129617    
   2.16155505       1.44430494     -0.517000020       364.522400      -1.37129617    
   2.40179110      0.994853973     -0.517000020       364.522400      -1.37129617    
   1.73421395      0.718334973     -0.606999993       364.522400      -1.37129617    
   1.73421395      0.718334973     -0.606999993       565.744873      -1.48079956    
   1.26109600      0.522363007     -0.606999993       565.744873      -1.48079956    
   1.13495600      0.758352995     -0.606999993       565.744873      -1.48079956    
   1.56075203       1.04286098     -0.606999993       565.744873      -1.48079956    
   1.73421395      0.718334973     -0.606999993       219.917465      -1.36909795    
   2.40179110      0.994853973     -0.517000020       219.917465      -1.36909795    
   2.54972792      0.507171988     -0.517000020       219.917465      -1.36909795    
   1.84103203      0.366203994     -0.606999993       219.917465      -1.36909795    
   1.84103203      0.366203994     -0.606999993       347.122253      -1.48089468    
   1.33877206      0.266297996     -0.606999993       347.122253      -1.48089468    
   1.26109600      0.522363007     -0.606999993       347.122253      -1.48089468    
   1.73421395      0.718334973     -0.606999993       347.122253      -1.48089468    
   1.84103203      0.366203994     -0.606999993       74.0583191      -1.36927223    
   2.54972792      0.507171988     -0.517000020       74.0583191      -1.36927223    
   2.59967995       0.00000000     -0.517000020       74.0583191      -1.36927223    
   1.87709999       0.00000000     -0.606999993       74.0583191      -1.36927223    
   1.87709999       0.00000000     -0.606999993       118.144547      -1.48140013    
   1.36500001       0.00000000     -0.606999993       118.144547      -1.48140013    
   1.33877206      0.266297996     -0.606999993       118.144547      -1.48140013    
   1.84103203      0.366203994     -0.606999993       118.144547      -1.48140013    
   1.87709999       0.00000000     -0.606999993       71.5127411       1.77782488    
   2.59967995       0.00000000     -0.517000020       71.5127411       1.77782488    
   2.54972792     -0.507171988     -0.517000020       71.5127411       1.77782488    
   1.84103203     -0.366203994     -0.606999993       71.5127411       1.77782488    
   1.84103203     -0.366203994     -0.606999993       114.385139       1.66169131    
   1.33877206     -0.266297996     -0.606999993       114.385139       1.66169131    
   1.36500001       0.00000000     -0.606999993       114.385139       1.66169131    
   1.87709999       0.00000000     -0.606999993       114.385139       1.66169131    
   1.84103203     -0.366203994     -0.606999993       220.283157       1.77262056    
   2.54972792     -0.507171988     -0.517000020       220.283157       1.77262056    
   2.40179110     -0.994853973     -0.517000020       220.283157       1.77262056    
   1.73421395     -0.718334973     -0.606999993       220.283157       1.77262056    
   1.73421395     -0.718334973     -0.606999993       345.355652       1.66109645    
   1.26109600     -0.522363007     -0.606999993       345.355652       1.66109645    
   1.33877206     -0.266297996     -0.606999993       345.355652       1.66109645    
   1.84103203     -0.366203994     -0.606999993       345.355652       1.66109645    
   1.73421395     -0.718334973     -0.606999993       367.502502       1.76939785    
   2.40179110     -0.994853973     -0.517000020       367.502502       1.76939785    
   2.16155505      -1.44430494     -0.517000020       367.502502       1.76939785    
   1.56075203      -1.04286098     -0.606999993       367.502502       1.76939785    
   1.56075203      -1.04286098     -0.606999993       566.308716       1.66094315    
   1.13495600     -0.758352995     -0.606999993       566.308716       1.66094315    
   1.26109600     -0.522363007     -0.606999993       566.308716       1.66094315    