 VARIABLES="X" "Y" "Z" "abs(p) (Pa)" "angle(p) (rad)"
ZONE N=   2709,E =    2358, F=FEPOINT, ET=QUADRILATERAL
   0.00000000      -5.48999977     -0.157000005       42.3565559       2.56755233    
   0.00000000      -4.76741982     -0.246999994       42.3565559       2.56755233    
  0.930077016      -4.67581606     -0.246999994       42.3565559       2.56755233    
   1.07104599      -5.38451099     -0.157000005       42.3565559       2.56755233    
  -1.07104599      -5.38451099     -0.157000005       42.0115280       2.56327748    
 -0.930077016      -4.67581606     -0.246999994       42.0115280       2.56327748    
   0.00000000      -4.76741982     -0.246999994       42.0115280       2.56327748    
   0.00000000      -5.48999977     -0.157000005       42.0115280       2.56327748    
  -2.10093188      -5.07209921     -0.157000005       41.2823296       2.49501181    
  -1.82441294      -4.40452194     -0.246999994       41.2823296       2.49501181    
 -0.930077016      -4.67581606     -0.246999994       41.2823296       2.49501181    
  -1.07104599      -5.38451099     -0.157000005       41.2823296       2.49501181    
  -3.05008101      -4.56476784     -0.157000005       37.1248932       2.59798479    
  -2.64863706      -3.96396494     -0.246999994       37.1248932       2.59798479    
  -1.82441294      -4.40452194     -0.246999994       37.1248932       2.59798479    
  -2.10093188      -5.07209921     -0.157000005       37.1248932       2.59798479    
  -3.88201594      -3.88201594     -0.157000005       33.8632164       2.57845592    
  -3.37107491      -3.37107491     -0.246999994       33.8632164       2.57845592    
  -2.64863706      -3.96396494     -0.246999994       33.8632164       2.57845592    
  -3.05008101      -4.56476784     -0.157000005       33.8632164       2.57845592    
  -4.56476784      -3.05008101     -0.157000005       29.9282055       2.45673370    
  -3.96396494      -2.64863706     -0.246999994       29.9282055       2.45673370    
  -3.37107491      -3.37107491     -0.246999994       29.9282055       2.45673370    
  -3.88201594      -3.88201594     -0.157000005       29.9282055       2.45673370    
  -5.07209921      -2.10093188     -0.157000005       21.3696117       2.55366921    
  -4.40452194      -1.82441294     -0.246999994       21.3696117       2.55366921    
  -3.96396494      -2.64863706     -0.246999994       21.3696117       2.55366921    
  -4.56476784      -3.05008101     -0.157000005       21.3696117       2.55366921    
  -5.38451099      -1.07104599     -0.157000005       12.3443708       2.65016890    
  -4.67581606     -0.930077016     -0.246999994       12.3443708       2.65016890    
  -4.40452194      -1.82441294     -0.246999994       12.3443708       2.65016890    
  -5.07209921      -2.10093188     -0.157000005       12.3443708       2.65016890    
  -5.48999977       0.00000000     -0.157000005       3.85830283       2.73600650    
  -4.76741982       0.00000000     -0.246999994       3.85830283       2.73600650    
  -4.67581606     -0.930077016     -0.246999994       3.85830283       2.73600650    
  -5.38451099      -1.07104599     -0.157000005       3.85830283       2.73600650    
  -5.38451099       1.07104599     -0.157000005       4.13202333     -0.662055075    
  -4.67581606      0.930077016     -0.246999994       4.13202333     -0.662055075    
  -4.76741982       0.00000000     -0.246999994       4.13202333     -0.662055075    
  -5.48999977       0.00000000     -0.157000005       4.13202333     -0.662055075    
  -5.07209921       2.10093188     -0.157000005       12.1156826     -0.633390248    
  -4.40452194       1.82441294     -0.246999994       12.1156826     -0.633390248    
  -4.67581606      0.930077016     -0.246999994       12.1156826     -0.633390248    
  -5.38451099       1.07104599     -0.157000005       12.1156826     -0.633390248    
  -4.56476784       3.05008101     -0.157000005       20.6608543     -0.669889212    
  -3.96396494       2.64863706     -0.246999994       20.6608543     -0.669889212    
  -4.40452194       1.82441294     -0.246999994       20.6608543     -0.669889212    
  -5.07209921       2.10093188     -0.157000005       20.6608543     -0.669889212    
  -3.88201594       3.88201594     -0.157000005       28.1088142     -0.613933623    
  -3.37107491       3.37107491     -0.246999994       28.1088142     -0.613933623    
  -3.96396494       2.64863706     -0.246999994       28.1088142     -0.613933623    
  -4.56476784       3.05008101     -0.157000005       28.1088142     -0.613933623    
  -3.05008101       4.56476784     -0.157000005       35.3416748     -0.672937810    
  -2.64863706       3.96396494     -0.246999994       35.3416748     -0.672937810    
  -3.37107491       3.37107491     -0.246999994       35.3416748     -0.672937810    
  -3.88201594       3.88201594     -0.157000005       35.3416748     -0.672937810    
  -2.10093188       5.07209921     -0.157000005       38.3521538     -0.568708837    
  -1.82441294       4.40452194     -0.246999994       38.3521538     -0.568708837    
  -2.64863706       3.96396494     -0.246999994       38.3521538     -0.568708837    
  -3.05008101       4.56476784     -0.157000005       38.3521538     -0.568708837    
  -1.07104599       5.38451099     -0.157000005       42.4139938     -0.654272735    
 -0.930077016       4.67581606     -0.246999994       42.4139938     -0.654272735    
  -1.82441294       4.40452194     -0.246999994       42.4139938     -0.654272735    
  -2.10093188       5.07209921     -0.157000005       42.4139938     -0.654272735    
   0.00000000       5.48999977     -0.157000005       42.6697578     -0.594970882    
   0.00000000       4.76741982     -0.246999994       42.6697578     -0.594970882    
 -0.930077016       4.67581606     -0.246999994       42.6697578     -0.594970882    
  -1.07104599       5.38451099     -0.157000005       42.6697578     -0.594970882    
   1.07104599       5.38451099     -0.157000005       43.6393852     -0.667954028    
  0.930077016       4.67581606     -0.246999994       43.6393852     -0.667954028    
   0.00000000       4.76741982     -0.246999994       43.6393852     -0.667954028    
   0.00000000       5.48999977     -0.157000005       43.6393852     -0.667954028    
   2.10093188       5.07209921     -0.157000005       40.7316132     -0.570004523    
   1.82441294       4.40452194     -0.246999994       40.7316132     -0.570004523    
  0.930077016       4.67581606     -0.246999994       40.7316132     -0.570004523    
   1.07104599       5.38451099     -0.157000005       40.7316132     -0.570004523    
   3.05008101       4.56476784     -0.157000005       37.9811134     -0.543514609    
   2.64863706       3.96396494     -0.246999994       37.9811134     -0.543514609    
   1.82441294       4.40452194     -0.246999994       37.9811134     -0.543514609    
   2.10093188       5.07209921     -0.157000005       37.9811134     -0.543514609    
   3.88201594       3.88201594     -0.157000005       35.6121674     -0.651260436    
   3.37107491       3.37107491     -0.246999994       35.6121674     -0.651260436    
   2.64863706       3.96396494     -0.246999994       35.6121674     -0.651260436    
   3.05008101       4.56476784     -0.157000005       35.6121674     -0.651260436    
   4.56476784       3.05008101     -0.157000005       29.4923897     -0.641973734    
   3.96396494       2.64863706     -0.246999994       29.4923897     -0.641973734    
   3.37107491       3.37107491     -0.246999994       29.4923897     -0.641973734    
   3.88201594       3.88201594     -0.157000005       29.4923897     -0.641973734    
   5.07209921       2.10093188     -0.157000005       21.3489609     -0.642911136    
   4.40452194       1.82441294     -0.246999994       21.3489609     -0.642911136    
   3.96396494       2.64863706     -0.246999994       21.3489609     -0.642911136    
   4.56476784       3.05008101     -0.157000005       21.3489609     -0.642911136    
   5.38451099       1.07104599     -0.157000005       11.7839079     -0.485966414    
   4.67581606      0.930077016     -0.246999994       11.7839079     -0.485966414    
   4.40452194       1.82441294     -0.246999994       11.7839079     -0.485966414    
   5.07209921       2.10093188     -0.157000005       11.7839079     -0.485966414    
   5.48999977       0.00000000     -0.157000005       3.26668429     -0.366349012    
   4.76741982       0.00000000     -0.246999994       3.26668429     -0.366349012    
   4.67581606      0.930077016     -0.246999994       3.26668429     -0.366349012    
   5.38451099       1.07104599     -0.157000005       3.26668429     -0.366349012    
   5.38451099      -1.07104599     -0.157000005       4.62777376       2.66215158    
   4.67581606     -0.930077016     -0.246999994       4.62777376       2.66215158    
   4.76741982       0.00000000     -0.246999994       4.62777376       2.66215158    
   5.48999977       0.00000000     -0.157000005       4.62777376       2.66215158    
   5.07209921      -2.10093188     -0.157000005       12.5397243       2.61568975    
   4.40452194      -1.82441294     -0.246999994       12.5397243       2.61568975    
   4.67581606     -0.930077016     -0.246999994       12.5397243       2.61568975    
   5.38451099      -1.07104599     -0.157000005       12.5397243       2.61568975    
   4.56476784      -3.05008101     -0.157000005       20.5774021       2.56028819    
   3.96396494      -2.64863706     -0.246999994       20.5774021       2.56028819    
   4.40452194      -1.82441294     -0.246999994       20.5774021       2.56028819    
   5.07209921      -2.10093188     -0.157000005       20.5774021       2.56028819    
   3.88201594      -3.88201594     -0.157000005       27.9671154       2.53805161    
   3.37107491      -3.37107491     -0.246999994       27.9671154       2.53805161    
   3.96396494      -2.64863706     -0.246999994       27.9671154       2.53805161    
   4.56476784      -3.05008101     -0.157000005       27.9671154       2.53805161    
   3.05008101      -4.56476784     -0.157000005       34.4070969       2.48774719    
   2.64863706      -3.96396494     -0.246999994       34.4070969       2.48774719    
   3.37107491      -3.37107491     -0.246999994       34.4070969       2.48774719    
   3.88201594      -3.88201594     -0.157000005       34.4070969       2.48774719    
   2.10093188      -5.07209921     -0.157000005       37.5033646       2.59452438    
   1.82441294      -4.40452194     -0.246999994       37.5033646       2.59452438    
   2.64863706      -3.96396494     -0.246999994       37.5033646       2.59452438    
   3.05008101      -4.56476784     -0.157000005       37.5033646       2.59452438    
   1.07104599      -5.38451099     -0.157000005       40.8446846       2.58145428    
  0.930077016      -4.67581606     -0.246999994       40.8446846       2.58145428    
   1.82441294      -4.40452194     -0.246999994       40.8446846       2.58145428    
   2.10093188      -5.07209921     -0.157000005       40.8446846       2.58145428    
   0.00000000      -1.87709999     -0.606999993       1599.54150       1.57617903    
   0.00000000      -1.36500001     -0.606999993       1599.54150       1.57617903    
  0.266297996      -1.33877206     -0.606999993       1599.54150       1.57617903    
  0.366203994      -1.84103203     -0.606999993       1599.54150       1.57617903    
   0.00000000      -1.87709999     -0.606999993       821.369263       1.57889485    
   0.00000000      -2.59967995     -0.517000020       821.369263       1.57889485    
 -0.507171988      -2.54972792     -0.517000020       821.369263       1.57889485    
 -0.366203994      -1.84103203     -0.606999993       821.369263       1.57889485    
 -0.366203994      -1.84103203     -0.606999993       1605.26160       1.57615650    
 -0.266297996      -1.33877206     -0.606999993       1605.26160       1.57615650    
   0.00000000      -1.36500001     -0.606999993       1605.26160       1.57615650    
   0.00000000      -1.87709999     -0.606999993       1605.26160       1.57615650    
 -0.366203994      -1.84103203     -0.606999993       801.544373       1.57874799    
 -0.507171988      -2.54972792     -0.517000020       801.544373       1.57874799    
 -0.994853973      -2.40179110     -0.517000020       801.544373       1.57874799    
 -0.718334973      -1.73421395     -0.606999993       801.544373       1.57874799    
 -0.718334973      -1.73421395     -0.606999993       1558.69775       1.57610846    
 -0.522363007      -1.26109600     -0.606999993       1558.69775       1.57610846    
 -0.266297996      -1.33877206     -0.606999993       1558.69775       1.57610846    
 -0.366203994      -1.84103203     -0.606999993       1558.69775       1.57610846    
 -0.718334973      -1.73421395     -0.606999993       756.562622       1.57856989    
 -0.994853973      -2.40179110     -0.517000020       756.562622       1.57856989    
  -1.44430494      -2.16155505     -0.517000020       756.562622       1.57856989    
  -1.04286098      -1.56075203     -0.606999993       756.562622       1.57856989    
  -1.04286098      -1.56075203     -0.606999993       1456.64478       1.57605708    
 -0.758352995      -1.13495600     -0.606999993       1456.64478       1.57605708    
 -0.522363007      -1.26109600     -0.606999993       1456.64478       1.57605708    
 -0.718334973      -1.73421395     -0.606999993       1456.64478       1.57605708    
  -1.04286098      -1.56075203     -0.606999993       679.742188       1.57846785    
  -1.44430494      -2.16155505     -0.517000020       679.742188       1.57846785    
  -1.83825099      -1.83825099     -0.517000020       679.742188       1.57846785    
  -1.32730997      -1.32730997     -0.606999993       679.742188       1.57846785    
  -1.32730997      -1.32730997     -0.606999993       1295.30493       1.57603765    
 -0.965201020     -0.965201020     -0.606999993       1295.30493       1.57603765    
 -0.758352995      -1.13495600     -0.606999993       1295.30493       1.57603765    
  -1.04286098      -1.56075203     -0.606999993       1295.30493       1.57603765    
  -1.32730997      -1.32730997     -0.606999993       565.490662       1.57850540    
  -1.83825099      -1.83825099     -0.517000020       565.490662       1.57850540    
  -2.16155505      -1.44430494     -0.517000020       565.490662       1.57850540    
  -1.56075203      -1.04286098     -0.606999993       565.490662       1.57850540    
  -1.56075203      -1.04286098     -0.606999993       1075.73621       1.57606101    
  -1.13495600     -0.758352995     -0.606999993       1075.73621       1.57606101    
 -0.965201020     -0.965201020     -0.606999993       1075.73621       1.57606101    
  -1.32730997      -1.32730997     -0.606999993       1075.73621       1.57606101    
  -1.56075203      -1.04286098     -0.606999993       417.054779       1.57870066    
  -2.16155505      -1.44430494     -0.517000020       417.054779       1.57870066    
  -2.40179110     -0.994853973     -0.517000020       417.054779       1.57870066    
  -1.73421395     -0.718334973     -0.606999993       417.054779       1.57870066    
  -1.73421395     -0.718334973     -0.606999993       807.061523       1.57612669    
  -1.26109600     -0.522363007     -0.606999993       807.061523       1.57612669    
  -1.13495600     -0.758352995     -0.606999993       807.061523       1.57612669    
  -1.56075203      -1.04286098     -0.606999993       807.061523       1.57612669    
  -1.73421395     -0.718334973     -0.606999993       253.174255       1.57897246    
  -2.40179110     -0.994853973     -0.517000020       253.174255       1.57897246    
  -2.54972792     -0.507171988     -0.517000020       253.174255       1.57897246    
  -1.84103203     -0.366203994     -0.606999993       253.174255       1.57897246    
  -1.84103203     -0.366203994     -0.606999993       505.971344       1.57623577    
  -1.33877206     -0.266297996     -0.606999993       505.971344       1.57623577    
  -1.26109600     -0.522363007     -0.606999993       505.971344       1.57623577    
  -1.73421395     -0.718334973     -0.606999993       505.971344       1.57623577    
  -1.84103203     -0.366203994     -0.606999993       91.1334152       1.57924259    
  -2.54972792     -0.507171988     -0.517000020       91.1334152       1.57924259    
  -2.59967995       0.00000000     -0.517000020       91.1334152       1.57924259    
  -1.87709999       0.00000000     -0.606999993       91.1334152       1.57924259    
  -1.87709999       0.00000000     -0.606999993       189.023178       1.57650793    
  -1.36500001       0.00000000     -0.606999993       189.023178       1.57650793    
  -1.33877206     -0.266297996     -0.606999993       189.023178       1.57650793    
  -1.84103203     -0.366203994     -0.606999993       189.023178       1.57650793    
  -1.87709999       0.00000000     -0.606999993       64.7347946      -1.56237817    
  -2.59967995       0.00000000     -0.517000020       64.7347946      -1.56237817    
  -2.54972792      0.507171988     -0.517000020       64.7347946      -1.56237817    
  -1.84103203      0.366203994     -0.606999993       64.7347946      -1.56237817    
  -1.84103203      0.366203994     -0.606999993       132.391739      -1.56590843    
  -1.33877206      0.266297996     -0.606999993       132.391739      -1.56590843    
  -1.36500001       0.00000000     -0.606999993       132.391739      -1.56590843    
  -1.87709999       0.00000000     -0.606999993       132.391739      -1.56590843    
  -1.84103203      0.366203994     -0.606999993       224.499619      -1.56250656    
  -2.54972792      0.507171988     -0.517000020       224.499619      -1.56250656    
  -2.40179110      0.994853973     -0.517000020       224.499619      -1.56250656    
  -1.73421395      0.718334973     -0.606999993       224.499619      -1.56250656    
  -1.73421395      0.718334973     -0.606999993       452.549011      -1.56554997    
  -1.26109600      0.522363007     -0.606999993       452.549011      -1.56554997    
  -1.33877206      0.266297996     -0.606999993       452.549011      -1.56554997    
  -1.84103203      0.366203994     -0.606999993       452.549011      -1.56554997    
  -1.73421395      0.718334973     -0.606999993       389.187958      -1.56273830    
  -2.40179110      0.994853973     -0.517000020       389.187958      -1.56273830    
  -2.16155505       1.44430494     -0.517000020       389.187958      -1.56273830    
  -1.56075203       1.04286098     -0.606999993       389.187958      -1.56273830    
  -1.56075203       1.04286098     -0.606999993       762.036743      -1.56551445    
  -1.13495600      0.758352995     -0.606999993       762.036743      -1.56551445    
  -1.26109600      0.522363007     -0.606999993       762.036743      -1.56551445    
  -1.73421395      0.718334973     -0.606999993       762.036743      -1.56551445    
  -1.56075203       1.04286098     -0.606999993       545.091797      -1.56295109    
  -2.16155505       1.44430494     -0.517000020       545.091797      -1.56295109    
  -1.83825099       1.83825099     -0.517000020       545.091797      -1.56295109    
  -1.32730997       1.32730997     -0.606999993       545.091797      -1.56295109    
  -1.32730997       1.32730997     -0.606999993       1045.28052      -1.56551206    
 -0.965201020      0.965201020     -0.606999993       1045.28052      -1.56551206    
  -1.13495600      0.758352995     -0.606999993       1045.28052      -1.56551206    
  -1.56075203       1.04286098     -0.606999993       1045.28052      -1.56551206    
  -1.32730997       1.32730997     -0.606999993       671.331909      -1.56302381    
  -1.83825099       1.83825099     -0.517000020       671.331909      -1.56302381    
  -1.44430494       2.16155505     -0.517000020       671.331909      -1.56302381    
  -1.04286098       1.56075203     -0.606999993       671.331909      -1.56302381    
  -1.04286098       1.56075203     -0.606999993       1283.40869      -1.56549668    
 -0.758352995       1.13495600     -0.606999993       1283.40869      -1.56549668    
 -0.965201020      0.965201020     -0.606999993       1283.40869      -1.56549668    
  -1.32730997       1.32730997     -0.606999993       1283.40869      -1.56549668    
  -1.04286098       1.56075203     -0.606999993       759.725830      -1.56295288    
  -1.44430494       2.16155505     -0.517000020       759.725830      -1.56295288    
 -0.994853973       2.40179110     -0.517000020       759.725830      -1.56295288    
 -0.718334973       1.73421395     -0.606999993       759.725830      -1.56295288    
 -0.718334973       1.73421395     -0.606999993       1463.63953      -1.56545317    
 -0.522363007       1.26109600     -0.606999993       1463.63953      -1.56545317    
 -0.758352995       1.13495600     -0.606999993       1463.63953      -1.56545317    
  -1.04286098       1.56075203     -0.606999993       1463.63953      -1.56545317    
 -0.718334973       1.73421395     -0.606999993       813.057068      -1.56279385    
 -0.994853973       2.40179110     -0.517000020       813.057068      -1.56279385    
 -0.507171988       2.54972792     -0.517000020       813.057068      -1.56279385    
 -0.366203994       1.84103203     -0.606999993       813.057068      -1.56279385    
 -0.366203994       1.84103203     -0.606999993       1581.01746      -1.56539083    
 -0.266297996       1.33877206     -0.606999993       1581.01746      -1.56539083    
 -0.522363007       1.26109600     -0.606999993       1581.01746      -1.56539083    
 -0.718334973       1.73421395     -0.606999993       1581.01746      -1.56539083    
 -0.366203994       1.84103203     -0.606999993       837.462402      -1.56265914    
 -0.507171988       2.54972792     -0.517000020       837.462402      -1.56265914    
   0.00000000       2.59967995     -0.517000020       837.462402      -1.56265914    
   0.00000000       1.87709999     -0.606999993       837.462402      -1.56265914    
   0.00000000       1.87709999     -0.606999993       1636.57593      -1.56533706    
   0.00000000       1.36500001     -0.606999993       1636.57593      -1.56533706    
 -0.266297996       1.33877206     -0.606999993       1636.57593      -1.56533706    
 -0.366203994       1.84103203     -0.606999993       1636.57593      -1.56533706    
   0.00000000       1.87709999     -0.606999993       835.664062      -1.56262612    
   0.00000000       2.59967995     -0.517000020       835.664062      -1.56262612    
  0.507171988       2.54972792     -0.517000020       835.664062      -1.56262612    
  0.366203994       1.84103203     -0.606999993       835.664062      -1.56262612    
  0.366203994       1.84103203     -0.606999993       1632.17346      -1.56531000    
  0.266297996       1.33877206     -0.606999993       1632.17346      -1.56531000    
   0.00000000       1.36500001     -0.606999993       1632.17346      -1.56531000    
   0.00000000       1.87709999     -0.606999993       1632.17346      -1.56531000    
  0.366203994       1.84103203     -0.606999993       808.000977      -1.56270361    
  0.507171988       2.54972792     -0.517000020       808.000977      -1.56270361    
  0.994853973       2.40179110     -0.517000020       808.000977      -1.56270361    
  0.718334973       1.73421395     -0.606999993       808.000977      -1.56270361    
  0.718334973       1.73421395     -0.606999993       1568.53992      -1.56531501    
  0.522363007       1.26109600     -0.606999993       1568.53992      -1.56531501    
  0.266297996       1.33877206     -0.606999993       1568.53992      -1.56531501    
  0.366203994       1.84103203     -0.606999993       1568.53992      -1.56531501    
  0.718334973       1.73421395     -0.606999993       752.367798      -1.56280422    
  0.994853973       2.40179110     -0.517000020       752.367798      -1.56280422    
   1.44430494       2.16155505     -0.517000020       752.367798      -1.56280422    
   1.04286098       1.56075203     -0.606999993       752.367798      -1.56280422    
   1.04286098       1.56075203     -0.606999993       1445.17981      -1.56533241    
  0.758352995       1.13495600     -0.606999993       1445.17981      -1.56533241    
  0.522363007       1.26109600     -0.606999993       1445.17981      -1.56533241    
  0.718334973       1.73421395     -0.606999993       1445.17981      -1.56533241    
   1.04286098       1.56075203     -0.606999993       663.079163      -1.56282461    
   1.44430494       2.16155505     -0.517000020       663.079163      -1.56282461    
   1.83825099       1.83825099     -0.517000020       663.079163      -1.56282461    
   1.32730997       1.32730997     -0.606999993       663.079163      -1.56282461    
   1.32730997       1.32730997     -0.606999993       1262.10852      -1.56533408    
  0.965201020      0.965201020     -0.606999993       1262.10852      -1.56533408    
  0.758352995       1.13495600     -0.606999993       1262.10852      -1.56533408    
   1.04286098       1.56075203     -0.606999993       1262.10852      -1.56533408    
   1.32730997       1.32730997     -0.606999993       537.492371      -1.56270862    
   1.83825099       1.83825099     -0.517000020       537.492371      -1.56270862    
   2.16155505       1.44430494     -0.517000020       537.492371      -1.56270862    
   1.56075203       1.04286098     -0.606999993       537.492371      -1.56270862    
   1.56075203       1.04286098     -0.606999993       1024.75989      -1.56531346    
   1.13495600      0.758352995     -0.606999993       1024.75989      -1.56531346    
  0.965201020      0.965201020     -0.606999993       1024.75989      -1.56531346    
   1.32730997       1.32730997     -0.606999993       1024.75989      -1.56531346    
   1.56075203       1.04286098     -0.606999993       383.680450      -1.56244993    
   2.16155505       1.44430494     -0.517000020       383.680450      -1.56244993    
   2.40179110      0.994853973     -0.517000020       383.680450      -1.56244993    
   1.73421395      0.718334973     -0.606999993       383.680450      -1.56244993    
   1.73421395      0.718334973     -0.606999993       745.664490      -1.56528151    
   1.26109600      0.522363007     -0.606999993       745.664490      -1.56528151    
   1.13495600      0.758352995     -0.606999993       745.664490      -1.56528151    
   1.56075203       1.04286098     -0.606999993       745.664490      -1.56528151    
   1.73421395      0.718334973     -0.606999993       222.293777      -1.56218970    
   2.40179110      0.994853973     -0.517000020       222.293777      -1.56218970    
   2.54972792      0.507171988     -0.517000020       222.293777      -1.56218970    
   1.84103203      0.366203994     -0.606999993       222.293777      -1.56218970    
   1.84103203      0.366203994     -0.606999993       443.340790      -1.56528592    
   1.33877206      0.266297996     -0.606999993       443.340790      -1.56528592    
   1.26109600      0.522363007     -0.606999993       443.340790      -1.56528592    
   1.73421395      0.718334973     -0.606999993       443.340790      -1.56528592    
   1.84103203      0.366203994     -0.606999993       66.6720428      -1.56210721    
   2.54972792      0.507171988     -0.517000020       66.6720428      -1.56210721    
   2.59967995       0.00000000     -0.517000020       66.6720428      -1.56210721    
   1.87709999       0.00000000     -0.606999993       66.6720428      -1.56210721    
   1.87709999       0.00000000     -0.606999993       132.460602      -1.56555867    
   1.36500001       0.00000000     -0.606999993       132.460602      -1.56555867    
   1.33877206      0.266297996     -0.606999993       132.460602      -1.56555867    
   1.84103203      0.366203994     -0.606999993       132.460602      -1.56555867    
   1.87709999       0.00000000     -0.606999993       84.8056717       1.57965899    
   2.59967995       0.00000000     -0.517000020       84.8056717       1.57965899    
   2.54972792     -0.507171988     -0.517000020       84.8056717       1.57965899    
   1.84103203     -0.366203994     -0.606999993       84.8056717       1.57965899    
   1.84103203     -0.366203994     -0.606999993       179.076767       1.57671261    
   1.33877206     -0.266297996     -0.606999993       179.076767       1.57671261    
   1.36500001       0.00000000     -0.606999993       179.076767       1.57671261    
   1.87709999       0.00000000     -0.606999993       179.076767       1.57671261    
   1.84103203     -0.366203994     -0.606999993       242.878403       1.57928109    
   2.54972792     -0.507171988     -0.517000020       242.878403       1.57928109    
   2.40179110     -0.994853973     -0.517000020       242.878403       1.57928109    
   1.73421395     -0.718334973     -0.606999993       242.878403       1.57928109    
   1.73421395     -0.718334973     -0.606999993       487.050110       1.57645035    
   1.26109600     -0.522363007     -0.606999993       487.050110       1.57645035    
   1.33877206     -0.266297996     -0.606999993       487.050110       1.57645035    
   1.84103203     -0.366203994     -0.606999993       487.050110       1.57645035    
   1.73421395     -0.718334973     -0.606999993       403.859100       1.57895041    
   2.40179110     -0.994853973     -0.517000020       403.859100       1.57895041    
   2.16155505      -1.44430494     -0.517000020       403.859100       1.57895041    
   1.56075203      -1.04286098     -0.606999993       403.859100       1.57895041    
   1.56075203      -1.04286098     -0.606999993       781.506836       1.57632470    
   1.13495600     -0.758352995     -0.606999993       781.506836       1.57632470    
   1.26109600     -0.522363007     -0.606999993       781.506836       1.57632470    