 VARIABLES="X" "Y" "Z" "abs(p) (Pa)" "angle(p) (rad)"
ZONE N=   2709,E =    2358, F=FEPOINT, ET=QUADRILATERAL
   0.00000000      -5.48999977     -0.157000005       42.6883392     -0.195356295    
   0.00000000      -4.76741982     -0.246999994       42.6883392     -0.195356295    
  0.930077016      -4.67581606     -0.246999994       42.6883392     -0.195356295    
   1.07104599      -5.38451099     -0.157000005       42.6883392     -0.195356295    
  -1.07104599      -5.38451099     -0.157000005       41.9672661       2.91178155    
 -0.930077016      -4.67581606     -0.246999994       41.9672661       2.91178155    
   0.00000000      -4.76741982     -0.246999994       41.9672661       2.91178155    
   0.00000000      -5.48999977     -0.157000005       41.9672661       2.91178155    
  -2.10093188      -5.07209921     -0.157000005       123.943016       2.92635608    
  -1.82441294      -4.40452194     -0.246999994       123.943016       2.92635608    
 -0.930077016      -4.67581606     -0.246999994       123.943016       2.92635608    
  -1.07104599      -5.38451099     -0.157000005       123.943016       2.92635608    
  -3.05008101      -4.56476784     -0.157000005       202.242599       2.94251227    
  -2.64863706      -3.96396494     -0.246999994       202.242599       2.94251227    
  -1.82441294      -4.40452194     -0.246999994       202.242599       2.94251227    
  -2.10093188      -5.07209921     -0.157000005       202.242599       2.94251227    
  -3.88201594      -3.88201594     -0.157000005       271.735168       2.94748998    
  -3.37107491      -3.37107491     -0.246999994       271.735168       2.94748998    
  -2.64863706      -3.96396494     -0.246999994       271.735168       2.94748998    
  -3.05008101      -4.56476784     -0.157000005       271.735168       2.94748998    
  -4.56476784      -3.05008101     -0.157000005       328.812134       2.94418836    
  -3.96396494      -2.64863706     -0.246999994       328.812134       2.94418836    
  -3.37107491      -3.37107491     -0.246999994       328.812134       2.94418836    
  -3.88201594      -3.88201594     -0.157000005       328.812134       2.94418836    
  -5.07209921      -2.10093188     -0.157000005       378.546661       2.94618130    
  -4.40452194      -1.82441294     -0.246999994       378.546661       2.94618130    
  -3.96396494      -2.64863706     -0.246999994       378.546661       2.94618130    
  -4.56476784      -3.05008101     -0.157000005       378.546661       2.94618130    
  -5.38451099      -1.07104599     -0.157000005       411.832855       2.94428706    
  -4.67581606     -0.930077016     -0.246999994       411.832855       2.94428706    
  -4.40452194      -1.82441294     -0.246999994       411.832855       2.94428706    
  -5.07209921      -2.10093188     -0.157000005       411.832855       2.94428706    
  -5.48999977       0.00000000     -0.157000005       425.811188       2.94037986    
  -4.76741982       0.00000000     -0.246999994       425.811188       2.94037986    
  -4.67581606     -0.930077016     -0.246999994       425.811188       2.94037986    
  -5.38451099      -1.07104599     -0.157000005       425.811188       2.94037986    
  -5.38451099       1.07104599     -0.157000005       425.947815       2.93911266    
  -4.67581606      0.930077016     -0.246999994       425.947815       2.93911266    
  -4.76741982       0.00000000     -0.246999994       425.947815       2.93911266    
  -5.48999977       0.00000000     -0.157000005       425.947815       2.93911266    
  -5.07209921       2.10093188     -0.157000005       410.116150       2.93787575    
  -4.40452194       1.82441294     -0.246999994       410.116150       2.93787575    
  -4.67581606      0.930077016     -0.246999994       410.116150       2.93787575    
  -5.38451099       1.07104599     -0.157000005       410.116150       2.93787575    
  -4.56476784       3.05008101     -0.157000005       378.374054       2.93985081    
  -3.96396494       2.64863706     -0.246999994       378.374054       2.93985081    
  -4.40452194       1.82441294     -0.246999994       378.374054       2.93985081    
  -5.07209921       2.10093188     -0.157000005       378.374054       2.93985081    
  -3.88201594       3.88201594     -0.157000005       333.840851       2.94594097    
  -3.37107491       3.37107491     -0.246999994       333.840851       2.94594097    
  -3.96396494       2.64863706     -0.246999994       333.840851       2.94594097    
  -4.56476784       3.05008101     -0.157000005       333.840851       2.94594097    
  -3.05008101       4.56476784     -0.157000005       272.598541       2.94459605    
  -2.64863706       3.96396494     -0.246999994       272.598541       2.94459605    
  -3.37107491       3.37107491     -0.246999994       272.598541       2.94459605    
  -3.88201594       3.88201594     -0.157000005       272.598541       2.94459605    
  -2.10093188       5.07209921     -0.157000005       203.914719       2.94571805    
  -1.82441294       4.40452194     -0.246999994       203.914719       2.94571805    
  -2.64863706       3.96396494     -0.246999994       203.914719       2.94571805    
  -3.05008101       4.56476784     -0.157000005       203.914719       2.94571805    
  -1.07104599       5.38451099     -0.157000005       125.350388       2.93671227    
 -0.930077016       4.67581606     -0.246999994       125.350388       2.93671227    
  -1.82441294       4.40452194     -0.246999994       125.350388       2.93671227    
  -2.10093188       5.07209921     -0.157000005       125.350388       2.93671227    
   0.00000000       5.48999977     -0.157000005       42.8139114       2.94326901    
   0.00000000       4.76741982     -0.246999994       42.8139114       2.94326901    
 -0.930077016       4.67581606     -0.246999994       42.8139114       2.94326901    
  -1.07104599       5.38451099     -0.157000005       42.8139114       2.94326901    
   1.07104599       5.38451099     -0.157000005       41.8870087     -0.233322978    
  0.930077016       4.67581606     -0.246999994       41.8870087     -0.233322978    
   0.00000000       4.76741982     -0.246999994       41.8870087     -0.233322978    
   0.00000000       5.48999977     -0.157000005       41.8870087     -0.233322978    
   2.10093188       5.07209921     -0.157000005       125.380272     -0.212071404    
   1.82441294       4.40452194     -0.246999994       125.380272     -0.212071404    
  0.930077016       4.67581606     -0.246999994       125.380272     -0.212071404    
   1.07104599       5.38451099     -0.157000005       125.380272     -0.212071404    
   3.05008101       4.56476784     -0.157000005       203.086060     -0.202116743    
   2.64863706       3.96396494     -0.246999994       203.086060     -0.202116743    
   1.82441294       4.40452194     -0.246999994       203.086060     -0.202116743    
   2.10093188       5.07209921     -0.157000005       203.086060     -0.202116743    
   3.88201594       3.88201594     -0.157000005       271.021820     -0.202785850    
   3.37107491       3.37107491     -0.246999994       271.021820     -0.202785850    
   2.64863706       3.96396494     -0.246999994       271.021820     -0.202785850    
   3.05008101       4.56476784     -0.157000005       271.021820     -0.202785850    
   4.56476784       3.05008101     -0.157000005       330.760651     -0.202209637    
   3.96396494       2.64863706     -0.246999994       330.760651     -0.202209637    
   3.37107491       3.37107491     -0.246999994       330.760651     -0.202209637    
   3.88201594       3.88201594     -0.157000005       330.760651     -0.202209637    
   5.07209921       2.10093188     -0.157000005       377.132324     -0.204587087    
   4.40452194       1.82441294     -0.246999994       377.132324     -0.204587087    
   3.96396494       2.64863706     -0.246999994       377.132324     -0.204587087    
   4.56476784       3.05008101     -0.157000005       377.132324     -0.204587087    
   5.38451099       1.07104599     -0.157000005       412.817078     -0.200911283    
   4.67581606      0.930077016     -0.246999994       412.817078     -0.200911283    
   4.40452194       1.82441294     -0.246999994       412.817078     -0.200911283    
   5.07209921       2.10093188     -0.157000005       412.817078     -0.200911283    
   5.48999977       0.00000000     -0.157000005       429.786835     -0.197969943    
   4.76741982       0.00000000     -0.246999994       429.786835     -0.197969943    
   4.67581606      0.930077016     -0.246999994       429.786835     -0.197969943    
   5.38451099       1.07104599     -0.157000005       429.786835     -0.197969943    
   5.38451099      -1.07104599     -0.157000005       429.722656     -0.196139365    
   4.67581606     -0.930077016     -0.246999994       429.722656     -0.196139365    
   4.76741982       0.00000000     -0.246999994       429.722656     -0.196139365    
   5.48999977       0.00000000     -0.157000005       429.722656     -0.196139365    
   5.07209921      -2.10093188     -0.157000005       413.095123     -0.195004627    
   4.40452194      -1.82441294     -0.246999994       413.095123     -0.195004627    
   4.67581606     -0.930077016     -0.246999994       413.095123     -0.195004627    
   5.38451099      -1.07104599     -0.157000005       413.095123     -0.195004627    
   4.56476784      -3.05008101     -0.157000005       380.327271     -0.191746637    
   3.96396494      -2.64863706     -0.246999994       380.327271     -0.191746637    
   4.40452194      -1.82441294     -0.246999994       380.327271     -0.191746637    
   5.07209921      -2.10093188     -0.157000005       380.327271     -0.191746637    
   3.88201594      -3.88201594     -0.157000005       332.859497     -0.189069733    
   3.37107491      -3.37107491     -0.246999994       332.859497     -0.189069733    
   3.96396494      -2.64863706     -0.246999994       332.859497     -0.189069733    
   4.56476784      -3.05008101     -0.157000005       332.859497     -0.189069733    
   3.05008101      -4.56476784     -0.157000005       271.345093     -0.191842645    
   2.64863706      -3.96396494     -0.246999994       271.345093     -0.191842645    
   3.37107491      -3.37107491     -0.246999994       271.345093     -0.191842645    
   3.88201594      -3.88201594     -0.157000005       271.345093     -0.191842645    
   2.10093188      -5.07209921     -0.157000005       203.027420     -0.192336813    
   1.82441294      -4.40452194     -0.246999994       203.027420     -0.192336813    
   2.64863706      -3.96396494     -0.246999994       203.027420     -0.192336813    
   3.05008101      -4.56476784     -0.157000005       203.027420     -0.192336813    
   1.07104599      -5.38451099     -0.157000005       125.591934     -0.199579492    
  0.930077016      -4.67581606     -0.246999994       125.591934     -0.199579492    
   1.82441294      -4.40452194     -0.246999994       125.591934     -0.199579492    
   2.10093188      -5.07209921     -0.157000005       125.591934     -0.199579492    
   0.00000000      -1.87709999     -0.606999993       132.656677      -1.49700689    
   0.00000000      -1.36500001     -0.606999993       132.656677      -1.49700689    
  0.266297996      -1.33877206     -0.606999993       132.656677      -1.49700689    
  0.366203994      -1.84103203     -0.606999993       132.656677      -1.49700689    
   0.00000000      -1.87709999     -0.606999993       78.5548019       1.72899997    
   0.00000000      -2.59967995     -0.517000020       78.5548019       1.72899997    
 -0.507171988      -2.54972792     -0.517000020       78.5548019       1.72899997    
 -0.366203994      -1.84103203     -0.606999993       78.5548019       1.72899997    
 -0.366203994      -1.84103203     -0.606999993       121.505501       1.64298213    
 -0.266297996      -1.33877206     -0.606999993       121.505501       1.64298213    
   0.00000000      -1.36500001     -0.606999993       121.505501       1.64298213    
   0.00000000      -1.87709999     -0.606999993       121.505501       1.64298213    
 -0.366203994      -1.84103203     -0.606999993       233.967316       1.72927594    
 -0.507171988      -2.54972792     -0.517000020       233.967316       1.72927594    
 -0.994853973      -2.40179110     -0.517000020       233.967316       1.72927594    
 -0.718334973      -1.73421395     -0.606999993       233.967316       1.72927594    
 -0.718334973      -1.73421395     -0.606999993       368.403656       1.64362764    
 -0.522363007      -1.26109600     -0.606999993       368.403656       1.64362764    
 -0.266297996      -1.33877206     -0.606999993       368.403656       1.64362764    
 -0.366203994      -1.84103203     -0.606999993       368.403656       1.64362764    
 -0.718334973      -1.73421395     -0.606999993       369.327026       1.73225605    
 -0.994853973      -2.40179110     -0.517000020       369.327026       1.73225605    
  -1.44430494      -2.16155505     -0.517000020       369.327026       1.73225605    
  -1.04286098      -1.56075203     -0.606999993       369.327026       1.73225605    
  -1.04286098      -1.56075203     -0.606999993       595.538574       1.64386880    
 -0.758352995      -1.13495600     -0.606999993       595.538574       1.64386880    
 -0.522363007      -1.26109600     -0.606999993       595.538574       1.64386880    
 -0.718334973      -1.73421395     -0.606999993       595.538574       1.64386880    
  -1.04286098      -1.56075203     -0.606999993       486.123169       1.73467243    
  -1.44430494      -2.16155505     -0.517000020       486.123169       1.73467243    
  -1.83825099      -1.83825099     -0.517000020       486.123169       1.73467243    
  -1.32730997      -1.32730997     -0.606999993       486.123169       1.73467243    
  -1.32730997      -1.32730997     -0.606999993       796.739807       1.64406419    
 -0.965201020     -0.965201020     -0.606999993       796.739807       1.64406419    
 -0.758352995      -1.13495600     -0.606999993       796.739807       1.64406419    
  -1.04286098      -1.56075203     -0.606999993       796.739807       1.64406419    
  -1.32730997      -1.32730997     -0.606999993       588.551025       1.73555923    
  -1.83825099      -1.83825099     -0.517000020       588.551025       1.73555923    
  -2.16155505      -1.44430494     -0.517000020       588.551025       1.73555923    
  -1.56075203      -1.04286098     -0.606999993       588.551025       1.73555923    
  -1.56075203      -1.04286098     -0.606999993       968.826111       1.64418733    
  -1.13495600     -0.758352995     -0.606999993       968.826111       1.64418733    
 -0.965201020     -0.965201020     -0.606999993       968.826111       1.64418733    
  -1.32730997      -1.32730997     -0.606999993       968.826111       1.64418733    
  -1.56075203      -1.04286098     -0.606999993       676.179321       1.73497546    
  -2.16155505      -1.44430494     -0.517000020       676.179321       1.73497546    
  -2.40179110     -0.994853973     -0.517000020       676.179321       1.73497546    
  -1.73421395     -0.718334973     -0.606999993       676.179321       1.73497546    
  -1.73421395     -0.718334973     -0.606999993       1108.14783       1.64419663    
  -1.26109600     -0.522363007     -0.606999993       1108.14783       1.64419663    
  -1.13495600     -0.758352995     -0.606999993       1108.14783       1.64419663    
  -1.56075203      -1.04286098     -0.606999993       1108.14783       1.64419663    
  -1.73421395     -0.718334973     -0.606999993       741.365967       1.73391235    
  -2.40179110     -0.994853973     -0.517000020       741.365967       1.73391235    
  -2.54972792     -0.507171988     -0.517000020       741.365967       1.73391235    
  -1.84103203     -0.366203994     -0.606999993       741.365967       1.73391235    
  -1.84103203     -0.366203994     -0.606999993       1207.72119       1.64414549    
  -1.33877206     -0.266297996     -0.606999993       1207.72119       1.64414549    
  -1.26109600     -0.522363007     -0.606999993       1207.72119       1.64414549    
  -1.73421395     -0.718334973     -0.606999993       1207.72119       1.64414549    
  -1.84103203     -0.366203994     -0.606999993       776.636475       1.73311925    
  -2.54972792     -0.507171988     -0.517000020       776.636475       1.73311925    
  -2.59967995       0.00000000     -0.517000020       776.636475       1.73311925    
  -1.87709999       0.00000000     -0.606999993       776.636475       1.73311925    
  -1.87709999       0.00000000     -0.606999993       1260.55249       1.64409530    
  -1.36500001       0.00000000     -0.606999993       1260.55249       1.64409530    
  -1.33877206     -0.266297996     -0.606999993       1260.55249       1.64409530    
  -1.84103203     -0.366203994     -0.606999993       1260.55249       1.64409530    
  -1.87709999       0.00000000     -0.606999993       777.997009       1.73298419    
  -2.59967995       0.00000000     -0.517000020       777.997009       1.73298419    
  -2.54972792      0.507171988     -0.517000020       777.997009       1.73298419    
  -1.84103203      0.366203994     -0.606999993       777.997009       1.73298419    
  -1.84103203      0.366203994     -0.606999993       1262.17932       1.64409375    
  -1.33877206      0.266297996     -0.606999993       1262.17932       1.64409375    
  -1.36500001       0.00000000     -0.606999993       1262.17932       1.64409375    
  -1.87709999       0.00000000     -0.606999993       1262.17932       1.64409375    
  -1.84103203      0.366203994     -0.606999993       745.064087       1.73355973    
  -2.54972792      0.507171988     -0.517000020       745.064087       1.73355973    
  -2.40179110      0.994853973     -0.517000020       745.064087       1.73355973    
  -1.73421395      0.718334973     -0.606999993       745.064087       1.73355973    
  -1.73421395      0.718334973     -0.606999993       1212.25232       1.64414597    
  -1.26109600      0.522363007     -0.606999993       1212.25232       1.64414597    
  -1.33877206      0.266297996     -0.606999993       1212.25232       1.64414597    
  -1.84103203      0.366203994     -0.606999993       1212.25232       1.64414597    
  -1.73421395      0.718334973     -0.606999993       680.973755       1.73456371    
  -2.40179110      0.994853973     -0.517000020       680.973755       1.73456371    
  -2.16155505       1.44430494     -0.517000020       680.973755       1.73456371    
  -1.56075203       1.04286098     -0.606999993       680.973755       1.73456371    
  -1.56075203       1.04286098     -0.606999993       1114.72449       1.64420843    
  -1.13495600      0.758352995     -0.606999993       1114.72449       1.64420843    
  -1.26109600      0.522363007     -0.606999993       1114.72449       1.64420843    
  -1.73421395      0.718334973     -0.606999993       1114.72449       1.64420843    
  -1.56075203       1.04286098     -0.606999993       592.935120       1.73526323    
  -2.16155505       1.44430494     -0.517000020       592.935120       1.73526323    
  -1.83825099       1.83825099     -0.517000020       592.935120       1.73526323    
  -1.32730997       1.32730997     -0.606999993       592.935120       1.73526323    
  -1.32730997       1.32730997     -0.606999993       976.396545       1.64422429    
 -0.965201020      0.965201020     -0.606999993       976.396545       1.64422429    
  -1.13495600      0.758352995     -0.606999993       976.396545       1.64422429    
  -1.56075203       1.04286098     -0.606999993       976.396545       1.64422429    
  -1.32730997       1.32730997     -0.606999993       489.523163       1.73452306    
  -1.83825099       1.83825099     -0.517000020       489.523163       1.73452306    
  -1.44430494       2.16155505     -0.517000020       489.523163       1.73452306    
  -1.04286098       1.56075203     -0.606999993       489.523163       1.73452306    
  -1.04286098       1.56075203     -0.606999993       804.610107       1.64414561    
 -0.758352995       1.13495600     -0.606999993       804.610107       1.64414561    
 -0.965201020      0.965201020     -0.606999993       804.610107       1.64414561    
  -1.32730997       1.32730997     -0.606999993       804.610107       1.64414561    
  -1.04286098       1.56075203     -0.606999993       372.501587       1.73201728    
  -1.44430494       2.16155505     -0.517000020       372.501587       1.73201728    
 -0.994853973       2.40179110     -0.517000020       372.501587       1.73201728    
 -0.718334973       1.73421395     -0.606999993       372.501587       1.73201728    
 -0.718334973       1.73421395     -0.606999993       603.884766       1.64399898    
 -0.522363007       1.26109600     -0.606999993       603.884766       1.64399898    
 -0.758352995       1.13495600     -0.606999993       603.884766       1.64399898    
  -1.04286098       1.56075203     -0.606999993       603.884766       1.64399898    
 -0.718334973       1.73421395     -0.606999993       238.139679       1.72829235    
 -0.994853973       2.40179110     -0.517000020       238.139679       1.72829235    
 -0.507171988       2.54972792     -0.517000020       238.139679       1.72829235    
 -0.366203994       1.84103203     -0.606999993       238.139679       1.72829235    
 -0.366203994       1.84103203     -0.606999993       377.907349       1.64377761    
 -0.266297996       1.33877206     -0.606999993       377.907349       1.64377761    
 -0.522363007       1.26109600     -0.606999993       377.907349       1.64377761    
 -0.718334973       1.73421395     -0.606999993       377.907349       1.64377761    
 -0.366203994       1.84103203     -0.606999993       84.5412598       1.72356498    
 -0.507171988       2.54972792     -0.517000020       84.5412598       1.72356498    
   0.00000000       2.59967995     -0.517000020       84.5412598       1.72356498    
   0.00000000       1.87709999     -0.606999993       84.5412598       1.72356498    
   0.00000000       1.87709999     -0.606999993       132.535767       1.64332986    
   0.00000000       1.36500001     -0.606999993       132.535767       1.64332986    
 -0.266297996       1.33877206     -0.606999993       132.535767       1.64332986    
 -0.366203994       1.84103203     -0.606999993       132.535767       1.64332986    
   0.00000000       1.87709999     -0.606999993       77.3609695      -1.40928578    
   0.00000000       2.59967995     -0.517000020       77.3609695      -1.40928578    
  0.507171988       2.54972792     -0.517000020       77.3609695      -1.40928578    
  0.366203994       1.84103203     -0.606999993       77.3609695      -1.40928578    
  0.366203994       1.84103203     -0.606999993       120.267883      -1.49696529    
  0.266297996       1.33877206     -0.606999993       120.267883      -1.49696529    
   0.00000000       1.36500001     -0.606999993       120.267883      -1.49696529    
   0.00000000       1.87709999     -0.606999993       120.267883      -1.49696529    
  0.366203994       1.84103203     -0.606999993       231.304550      -1.41040182    
  0.507171988       2.54972792     -0.517000020       231.304550      -1.41040182    
  0.994853973       2.40179110     -0.517000020       231.304550      -1.41040182    
  0.718334973       1.73421395     -0.606999993       231.304550      -1.41040182    
  0.718334973       1.73421395     -0.606999993       366.173584      -1.49735546    
  0.522363007       1.26109600     -0.606999993       366.173584      -1.49735546    
  0.266297996       1.33877206     -0.606999993       366.173584      -1.49735546    
  0.366203994       1.84103203     -0.606999993       366.173584      -1.49735546    
  0.718334973       1.73421395     -0.606999993       366.260895      -1.40785158    
  0.994853973       2.40179110     -0.517000020       366.260895      -1.40785158    
   1.44430494       2.16155505     -0.517000020       366.260895      -1.40785158    
   1.04286098       1.56075203     -0.606999993       366.260895      -1.40785158    
   1.04286098       1.56075203     -0.606999993       593.225403      -1.49732363    
  0.758352995       1.13495600     -0.606999993       593.225403      -1.49732363    
  0.522363007       1.26109600     -0.606999993       593.225403      -1.49732363    
  0.718334973       1.73421395     -0.606999993       593.225403      -1.49732363    
   1.04286098       1.56075203     -0.606999993       484.099457      -1.40589190    
   1.44430494       2.16155505     -0.517000020       484.099457      -1.40589190    
   1.83825099       1.83825099     -0.517000020       484.099457      -1.40589190    
   1.32730997       1.32730997     -0.606999993       484.099457      -1.40589190    
   1.32730997       1.32730997     -0.606999993       795.435547      -1.49724114    
  0.965201020      0.965201020     -0.606999993       795.435547      -1.49724114    
  0.758352995       1.13495600     -0.606999993       795.435547      -1.49724114    
   1.04286098       1.56075203     -0.606999993       795.435547      -1.49724114    
   1.32730997       1.32730997     -0.606999993       588.495911      -1.40547013    
   1.83825099       1.83825099     -0.517000020       588.495911      -1.40547013    
   2.16155505       1.44430494     -0.517000020       588.495911      -1.40547013    
   1.56075203       1.04286098     -0.606999993       588.495911      -1.40547013    
   1.56075203       1.04286098     -0.606999993       969.011719      -1.49718201    
   1.13495600      0.758352995     -0.606999993       969.011719      -1.49718201    
  0.965201020      0.965201020     -0.606999993       969.011719      -1.49718201    
   1.32730997       1.32730997     -0.606999993       969.011719      -1.49718201    
   1.56075203       1.04286098     -0.606999993       677.607666      -1.40634680    
   2.16155505       1.44430494     -0.517000020       677.607666      -1.40634680    
   2.40179110      0.994853973     -0.517000020       677.607666      -1.40634680    
   1.73421395      0.718334973     -0.606999993       677.607666      -1.40634680    
   1.73421395      0.718334973     -0.606999993       1109.03369      -1.49717188    
   1.26109600      0.522363007     -0.606999993       1109.03369      -1.49717188    
   1.13495600      0.758352995     -0.606999993       1109.03369      -1.49717188    
   1.56075203       1.04286098     -0.606999993       1109.03369      -1.49717188    
   1.73421395      0.718334973     -0.606999993       742.828186      -1.40744936    
   2.40179110      0.994853973     -0.517000020       742.828186      -1.40744936    
   2.54972792      0.507171988     -0.517000020       742.828186      -1.40744936    
   1.84103203      0.366203994     -0.606999993       742.828186      -1.40744936    
   1.84103203      0.366203994     -0.606999993       1208.43909      -1.49720836    
   1.33877206      0.266297996     -0.606999993       1208.43909      -1.49720836    
   1.26109600      0.522363007     -0.606999993       1208.43909      -1.49720836    
   1.73421395      0.718334973     -0.606999993       1208.43909      -1.49720836    
   1.84103203      0.366203994     -0.606999993       776.968018      -1.40810633    
   2.54972792      0.507171988     -0.517000020       776.968018      -1.40810633    
   2.59967995       0.00000000     -0.517000020       776.968018      -1.40810633    
   1.87709999       0.00000000     -0.606999993       776.968018      -1.40810633    
   1.87709999       0.00000000     -0.606999993       1260.46228      -1.49724352    
   1.36500001       0.00000000     -0.606999993       1260.46228      -1.49724352    
   1.33877206      0.266297996     -0.606999993       1260.46228      -1.49724352    
   1.84103203      0.366203994     -0.606999993       1260.46228      -1.49724352    
   1.87709999       0.00000000     -0.606999993       776.863892      -1.40806770    
   2.59967995       0.00000000     -0.517000020       776.863892      -1.40806770    
   2.54972792     -0.507171988     -0.517000020       776.863892      -1.40806770    
   1.84103203     -0.366203994     -0.606999993       776.863892      -1.40806770    
   1.84103203     -0.366203994     -0.606999993       1260.99902      -1.49722981    
   1.33877206     -0.266297996     -0.606999993       1260.99902      -1.49722981    
   1.36500001       0.00000000     -0.606999993       1260.99902      -1.49722981    
   1.87709999       0.00000000     -0.606999993       1260.99902      -1.49722981    
   1.84103203     -0.366203994     -0.606999993       742.853149      -1.40739846    
   2.54972792     -0.507171988     -0.517000020       742.853149      -1.40739846    
   2.40179110     -0.994853973     -0.517000020       742.853149      -1.40739846    
   1.73421395     -0.718334973     -0.606999993       742.853149      -1.40739846    
   1.73421395     -0.718334973     -0.606999993       1210.39429      -1.49717629    
   1.26109600     -0.522363007     -0.606999993       1210.39429      -1.49717629    
   1.33877206     -0.266297996     -0.606999993       1210.39429      -1.49717629    
   1.84103203     -0.366203994     -0.606999993       1210.39429      -1.49717629    
   1.73421395     -0.718334973     -0.606999993       678.878601      -1.40649867    
   2.40179110     -0.994853973     -0.517000020       678.878601      -1.40649867    
   2.16155505      -1.44430494     -0.517000020       678.878601      -1.40649867    
   1.56075203      -1.04286098     -0.606999993       678.878601      -1.40649867    
   1.56075203      -1.04286098     -0.606999993       1113.10779      -1.49713326    
   1.13495600     -0.758352995     -0.606999993       1113.10779      -1.49713326    
   1.26109600     -0.522363007     -0.606999993       1113.10779      -1.49713326    