 VARIABLES="X" "Y" "Z" "abs(p) (Pa)" "angle(p) (rad)"
ZONE N=   2709,E =    2358, F=FEPOINT, ET=QUADRILATERAL
   0.00000000      -5.48999977     -0.157000005       5.22363472      -2.74512148    
   0.00000000      -4.76741982     -0.246999994       5.22363472      -2.74512148    
  0.930077016      -4.67581606     -0.246999994       5.22363472      -2.74512148    
   1.07104599      -5.38451099     -0.157000005       5.22363472      -2.74512148    
  -1.07104599      -5.38451099     -0.157000005       5.71478748      0.516021788    
 -0.930077016      -4.67581606     -0.246999994       5.71478748      0.516021788    
   0.00000000      -4.76741982     -0.246999994       5.71478748      0.516021788    
   0.00000000      -5.48999977     -0.157000005       5.71478748      0.516021788    
  -2.10093188      -5.07209921     -0.157000005       16.4132442      0.531187356    
  -1.82441294      -4.40452194     -0.246999994       16.4132442      0.531187356    
 -0.930077016      -4.67581606     -0.246999994       16.4132442      0.531187356    
  -1.07104599      -5.38451099     -0.157000005       16.4132442      0.531187356    
  -3.05008101      -4.56476784     -0.157000005       25.7055950      0.511169195    
  -2.64863706      -3.96396494     -0.246999994       25.7055950      0.511169195    
  -1.82441294      -4.40452194     -0.246999994       25.7055950      0.511169195    
  -2.10093188      -5.07209921     -0.157000005       25.7055950      0.511169195    
  -3.88201594      -3.88201594     -0.157000005       32.9847412      0.562242508    
  -3.37107491      -3.37107491     -0.246999994       32.9847412      0.562242508    
  -2.64863706      -3.96396494     -0.246999994       32.9847412      0.562242508    
  -3.05008101      -4.56476784     -0.157000005       32.9847412      0.562242508    
  -4.56476784      -3.05008101     -0.157000005       42.8048172      0.409919620    
  -3.96396494      -2.64863706     -0.246999994       42.8048172      0.409919620    
  -3.37107491      -3.37107491     -0.246999994       42.8048172      0.409919620    
  -3.88201594      -3.88201594     -0.157000005       42.8048172      0.409919620    
  -5.07209921      -2.10093188     -0.157000005       46.6916389      0.539556146    
  -4.40452194      -1.82441294     -0.246999994       46.6916389      0.539556146    
  -3.96396494      -2.64863706     -0.246999994       46.6916389      0.539556146    
  -4.56476784      -3.05008101     -0.157000005       46.6916389      0.539556146    
  -5.38451099      -1.07104599     -0.157000005       50.3026657      0.522811115    
  -4.67581606     -0.930077016     -0.246999994       50.3026657      0.522811115    
  -4.40452194      -1.82441294     -0.246999994       50.3026657      0.522811115    
  -5.07209921      -2.10093188     -0.157000005       50.3026657      0.522811115    
  -5.48999977       0.00000000     -0.157000005       56.6730614      0.465279400    
  -4.76741982       0.00000000     -0.246999994       56.6730614      0.465279400    
  -4.67581606     -0.930077016     -0.246999994       56.6730614      0.465279400    
  -5.38451099      -1.07104599     -0.157000005       56.6730614      0.465279400    
  -5.38451099       1.07104599     -0.157000005       56.5620880      0.455387622    
  -4.67581606      0.930077016     -0.246999994       56.5620880      0.455387622    
  -4.76741982       0.00000000     -0.246999994       56.5620880      0.455387622    
  -5.48999977       0.00000000     -0.157000005       56.5620880      0.455387622    
  -5.07209921       2.10093188     -0.157000005       54.2641869      0.452105224    
  -4.40452194       1.82441294     -0.246999994       54.2641869      0.452105224    
  -4.67581606      0.930077016     -0.246999994       54.2641869      0.452105224    
  -5.38451099       1.07104599     -0.157000005       54.2641869      0.452105224    
  -4.56476784       3.05008101     -0.157000005       50.3018456      0.457059383    
  -3.96396494       2.64863706     -0.246999994       50.3018456      0.457059383    
  -4.40452194       1.82441294     -0.246999994       50.3018456      0.457059383    
  -5.07209921       2.10093188     -0.157000005       50.3018456      0.457059383    
  -3.88201594       3.88201594     -0.157000005       40.4479218      0.507406414    
  -3.37107491       3.37107491     -0.246999994       40.4479218      0.507406414    
  -3.96396494       2.64863706     -0.246999994       40.4479218      0.507406414    
  -4.56476784       3.05008101     -0.157000005       40.4479218      0.507406414    
  -3.05008101       4.56476784     -0.157000005       35.9924545      0.464461684    
  -2.64863706       3.96396494     -0.246999994       35.9924545      0.464461684    
  -3.37107491       3.37107491     -0.246999994       35.9924545      0.464461684    
  -3.88201594       3.88201594     -0.157000005       35.9924545      0.464461684    
  -2.10093188       5.07209921     -0.157000005       24.5237427      0.486793160    
  -1.82441294       4.40452194     -0.246999994       24.5237427      0.486793160    
  -2.64863706       3.96396494     -0.246999994       24.5237427      0.486793160    
  -3.05008101       4.56476784     -0.157000005       24.5237427      0.486793160    
  -1.07104599       5.38451099     -0.157000005       16.1929474      0.470652074    
 -0.930077016       4.67581606     -0.246999994       16.1929474      0.470652074    
  -1.82441294       4.40452194     -0.246999994       16.1929474      0.470652074    
  -2.10093188       5.07209921     -0.157000005       16.1929474      0.470652074    
   0.00000000       5.48999977     -0.157000005       5.07173395      0.293551475    
   0.00000000       4.76741982     -0.246999994       5.07173395      0.293551475    
 -0.930077016       4.67581606     -0.246999994       5.07173395      0.293551475    
  -1.07104599       5.38451099     -0.157000005       5.07173395      0.293551475    
   1.07104599       5.38451099     -0.157000005       5.98201132      -2.73239446    
  0.930077016       4.67581606     -0.246999994       5.98201132      -2.73239446    
   0.00000000       4.76741982     -0.246999994       5.98201132      -2.73239446    
   0.00000000       5.48999977     -0.157000005       5.98201132      -2.73239446    
   2.10093188       5.07209921     -0.157000005       15.6731558      -2.53086114    
   1.82441294       4.40452194     -0.246999994       15.6731558      -2.53086114    
  0.930077016       4.67581606     -0.246999994       15.6731558      -2.53086114    
   1.07104599       5.38451099     -0.157000005       15.6731558      -2.53086114    
   3.05008101       4.56476784     -0.157000005       24.9709511      -2.65149522    
   2.64863706       3.96396494     -0.246999994       24.9709511      -2.65149522    
   1.82441294       4.40452194     -0.246999994       24.9709511      -2.65149522    
   2.10093188       5.07209921     -0.157000005       24.9709511      -2.65149522    
   3.88201594       3.88201594     -0.157000005       36.5567398      -2.62075043    
   3.37107491       3.37107491     -0.246999994       36.5567398      -2.62075043    
   2.64863706       3.96396494     -0.246999994       36.5567398      -2.62075043    
   3.05008101       4.56476784     -0.157000005       36.5567398      -2.62075043    
   4.56476784       3.05008101     -0.157000005       41.0161285      -2.69461036    
   3.96396494       2.64863706     -0.246999994       41.0161285      -2.69461036    
   3.37107491       3.37107491     -0.246999994       41.0161285      -2.69461036    
   3.88201594       3.88201594     -0.157000005       41.0161285      -2.69461036    
   5.07209921       2.10093188     -0.157000005       50.3824081      -2.65116072    
   4.40452194       1.82441294     -0.246999994       50.3824081      -2.65116072    
   3.96396494       2.64863706     -0.246999994       50.3824081      -2.65116072    
   4.56476784       3.05008101     -0.157000005       50.3824081      -2.65116072    
   5.38451099       1.07104599     -0.157000005       50.4037476      -2.62857842    
   4.67581606      0.930077016     -0.246999994       50.4037476      -2.62857842    
   4.40452194       1.82441294     -0.246999994       50.4037476      -2.62857842    
   5.07209921       2.10093188     -0.157000005       50.4037476      -2.62857842    
   5.48999977       0.00000000     -0.157000005       52.6947937      -2.60351133    
   4.76741982       0.00000000     -0.246999994       52.6947937      -2.60351133    
   4.67581606      0.930077016     -0.246999994       52.6947937      -2.60351133    
   5.38451099       1.07104599     -0.157000005       52.6947937      -2.60351133    
   5.38451099      -1.07104599     -0.157000005       52.4076004      -2.62292838    
   4.67581606     -0.930077016     -0.246999994       52.4076004      -2.62292838    
   4.76741982       0.00000000     -0.246999994       52.4076004      -2.62292838    
   5.48999977       0.00000000     -0.157000005       52.4076004      -2.62292838    
   5.07209921      -2.10093188     -0.157000005       50.4979591      -2.61149287    
   4.40452194      -1.82441294     -0.246999994       50.4979591      -2.61149287    
   4.67581606     -0.930077016     -0.246999994       50.4979591      -2.61149287    
   5.38451099      -1.07104599     -0.157000005       50.4979591      -2.61149287    
   4.56476784      -3.05008101     -0.157000005       46.4521027      -2.62073827    
   3.96396494      -2.64863706     -0.246999994       46.4521027      -2.62073827    
   4.40452194      -1.82441294     -0.246999994       46.4521027      -2.62073827    
   5.07209921      -2.10093188     -0.157000005       46.4521027      -2.62073827    
   3.88201594      -3.88201594     -0.157000005       40.5395927      -2.61976981    
   3.37107491      -3.37107491     -0.246999994       40.5395927      -2.61976981    
   3.96396494      -2.64863706     -0.246999994       40.5395927      -2.61976981    
   4.56476784      -3.05008101     -0.157000005       40.5395927      -2.61976981    
   3.05008101      -4.56476784     -0.157000005       35.8051414      -2.68952060    
   2.64863706      -3.96396494     -0.246999994       35.8051414      -2.68952060    
   3.37107491      -3.37107491     -0.246999994       35.8051414      -2.68952060    
   3.88201594      -3.88201594     -0.157000005       35.8051414      -2.68952060    
   2.10093188      -5.07209921     -0.157000005       24.7755814      -2.63770795    
   1.82441294      -4.40452194     -0.246999994       24.7755814      -2.63770795    
   2.64863706      -3.96396494     -0.246999994       24.7755814      -2.63770795    
   3.05008101      -4.56476784     -0.157000005       24.7755814      -2.63770795    
   1.07104599      -5.38451099     -0.157000005       14.9355278      -2.61933327    
  0.930077016      -4.67581606     -0.246999994       14.9355278      -2.61933327    
   1.82441294      -4.40452194     -0.246999994       14.9355278      -2.61933327    
   2.10093188      -5.07209921     -0.157000005       14.9355278      -2.61933327    
   0.00000000      -1.87709999     -0.606999993       13.8210802       1.56531954    
   0.00000000      -1.36500001     -0.606999993       13.8210802       1.56531954    
  0.266297996      -1.33877206     -0.606999993       13.8210802       1.56531954    
  0.366203994      -1.84103203     -0.606999993       13.8210802       1.56531954    
   0.00000000      -1.87709999     -0.606999993       2.09368443      -1.62432337    
   0.00000000      -2.59967995     -0.517000020       2.09368443      -1.62432337    
 -0.507171988      -2.54972792     -0.517000020       2.09368443      -1.62432337    
 -0.366203994      -1.84103203     -0.606999993       2.09368443      -1.62432337    
 -0.366203994      -1.84103203     -0.606999993       7.54700756       1.58311296    
 -0.266297996      -1.33877206     -0.606999993       7.54700756       1.58311296    
   0.00000000      -1.36500001     -0.606999993       7.54700756       1.58311296    
   0.00000000      -1.87709999     -0.606999993       7.54700756       1.58311296    
 -0.366203994      -1.84103203     -0.606999993       17.1039677      -1.58797276    
 -0.507171988      -2.54972792     -0.517000020       17.1039677      -1.58797276    
 -0.994853973      -2.40179110     -0.517000020       17.1039677      -1.58797276    
 -0.718334973      -1.73421395     -0.606999993       17.1039677      -1.58797276    
 -0.718334973      -1.73421395     -0.606999993      0.625940442      -1.98469424    
 -0.522363007      -1.26109600     -0.606999993      0.625940442      -1.98469424    
 -0.266297996      -1.33877206     -0.606999993      0.625940442      -1.98469424    
 -0.366203994      -1.84103203     -0.606999993      0.625940442      -1.98469424    
 -0.718334973      -1.73421395     -0.606999993       32.0301628      -1.58494830    
 -0.994853973      -2.40179110     -0.517000020       32.0301628      -1.58494830    
  -1.44430494      -2.16155505     -0.517000020       32.0301628      -1.58494830    
  -1.04286098      -1.56075203     -0.606999993       32.0301628      -1.58494830    
  -1.04286098      -1.56075203     -0.606999993       9.87658691      -1.60959136    
 -0.758352995      -1.13495600     -0.606999993       9.87658691      -1.60959136    
 -0.522363007      -1.26109600     -0.606999993       9.87658691      -1.60959136    
 -0.718334973      -1.73421395     -0.606999993       9.87658691      -1.60959136    
  -1.04286098      -1.56075203     -0.606999993       45.9586296      -1.58388770    
  -1.44430494      -2.16155505     -0.517000020       45.9586296      -1.58388770    
  -1.83825099      -1.83825099     -0.517000020       45.9586296      -1.58388770    
  -1.32730997      -1.32730997     -0.606999993       45.9586296      -1.58388770    
  -1.32730997      -1.32730997     -0.606999993       19.2894173      -1.59679008    
 -0.965201020     -0.965201020     -0.606999993       19.2894173      -1.59679008    
 -0.758352995      -1.13495600     -0.606999993       19.2894173      -1.59679008    
  -1.04286098      -1.56075203     -0.606999993       19.2894173      -1.59679008    
  -1.32730997      -1.32730997     -0.606999993       57.8651009      -1.58370876    
  -1.83825099      -1.83825099     -0.517000020       57.8651009      -1.58370876    
  -2.16155505      -1.44430494     -0.517000020       57.8651009      -1.58370876    
  -1.56075203      -1.04286098     -0.606999993       57.8651009      -1.58370876    
  -1.56075203      -1.04286098     -0.606999993       27.3285904      -1.59318602    
  -1.13495600     -0.758352995     -0.606999993       27.3285904      -1.59318602    
 -0.965201020     -0.965201020     -0.606999993       27.3285904      -1.59318602    
  -1.32730997      -1.32730997     -0.606999993       27.3285904      -1.59318602    
  -1.56075203      -1.04286098     -0.606999993       66.9009171      -1.58389616    
  -2.16155505      -1.44430494     -0.517000020       66.9009171      -1.58389616    
  -2.40179110     -0.994853973     -0.517000020       66.9009171      -1.58389616    
  -1.73421395     -0.718334973     -0.606999993       66.9009171      -1.58389616    
  -1.73421395     -0.718334973     -0.606999993       32.7548180      -1.59170830    
  -1.26109600     -0.522363007     -0.606999993       32.7548180      -1.59170830    
  -1.13495600     -0.758352995     -0.606999993       32.7548180      -1.59170830    
  -1.56075203      -1.04286098     -0.606999993       32.7548180      -1.59170830    
  -1.73421395     -0.718334973     -0.606999993       72.5023117      -1.58417904    
  -2.40179110     -0.994853973     -0.517000020       72.5023117      -1.58417904    
  -2.54972792     -0.507171988     -0.517000020       72.5023117      -1.58417904    
  -1.84103203     -0.366203994     -0.606999993       72.5023117      -1.58417904    
  -1.84103203     -0.366203994     -0.606999993       35.3347092      -1.59169316    
  -1.33877206     -0.266297996     -0.606999993       35.3347092      -1.59169316    
  -1.26109600     -0.522363007     -0.606999993       35.3347092      -1.59169316    
  -1.73421395     -0.718334973     -0.606999993       35.3347092      -1.59169316    
  -1.84103203     -0.366203994     -0.606999993       74.6367493      -1.58432364    
  -2.54972792     -0.507171988     -0.517000020       74.6367493      -1.58432364    
  -2.59967995       0.00000000     -0.517000020       74.6367493      -1.58432364    
  -1.87709999       0.00000000     -0.606999993       74.6367493      -1.58432364    
  -1.87709999       0.00000000     -0.606999993       35.4293709      -1.59248745    
  -1.36500001       0.00000000     -0.606999993       35.4293709      -1.59248745    
  -1.33877206     -0.266297996     -0.606999993       35.4293709      -1.59248745    
  -1.84103203     -0.366203994     -0.606999993       35.4293709      -1.59248745    
  -1.87709999       0.00000000     -0.606999993       73.6230774      -1.58444893    
  -2.59967995       0.00000000     -0.517000020       73.6230774      -1.58444893    
  -2.54972792      0.507171988     -0.517000020       73.6230774      -1.58444893    
  -1.84103203      0.366203994     -0.606999993       73.6230774      -1.58444893    
  -1.84103203      0.366203994     -0.606999993       33.5168800      -1.59356308    
  -1.33877206      0.266297996     -0.606999993       33.5168800      -1.59356308    
  -1.36500001       0.00000000     -0.606999993       33.5168800      -1.59356308    
  -1.87709999       0.00000000     -0.606999993       33.5168800      -1.59356308    
  -1.84103203      0.366203994     -0.606999993       69.8984070      -1.58471942    
  -2.54972792      0.507171988     -0.517000020       69.8984070      -1.58471942    
  -2.40179110      0.994853973     -0.517000020       69.8984070      -1.58471942    
  -1.73421395      0.718334973     -0.606999993       69.8984070      -1.58471942    
  -1.73421395      0.718334973     -0.606999993       30.4778690      -1.59491897    
  -1.26109600      0.522363007     -0.606999993       30.4778690      -1.59491897    
  -1.33877206      0.266297996     -0.606999993       30.4778690      -1.59491897    
  -1.84103203      0.366203994     -0.606999993       30.4778690      -1.59491897    
  -1.73421395      0.718334973     -0.606999993       63.8961639      -1.58521295    
  -2.40179110      0.994853973     -0.517000020       63.8961639      -1.58521295    
  -2.16155505       1.44430494     -0.517000020       63.8961639      -1.58521295    
  -1.56075203       1.04286098     -0.606999993       63.8961639      -1.58521295    
  -1.56075203       1.04286098     -0.606999993       27.1155205      -1.59676826    
  -1.13495600      0.758352995     -0.606999993       27.1155205      -1.59676826    
  -1.26109600      0.522363007     -0.606999993       27.1155205      -1.59676826    
  -1.73421395      0.718334973     -0.606999993       27.1155205      -1.59676826    
  -1.56075203       1.04286098     -0.606999993       56.0321350      -1.58558095    
  -2.16155505       1.44430494     -0.517000020       56.0321350      -1.58558095    
  -1.83825099       1.83825099     -0.517000020       56.0321350      -1.58558095    
  -1.32730997       1.32730997     -0.606999993       56.0321350      -1.58558095    
  -1.32730997       1.32730997     -0.606999993       24.0705738      -1.59686816    
 -0.965201020      0.965201020     -0.606999993       24.0705738      -1.59686816    
  -1.13495600      0.758352995     -0.606999993       24.0705738      -1.59686816    
  -1.56075203       1.04286098     -0.606999993       24.0705738      -1.59686816    
  -1.32730997       1.32730997     -0.606999993       46.7696228      -1.58547235    
  -1.83825099       1.83825099     -0.517000020       46.7696228      -1.58547235    
  -1.44430494       2.16155505     -0.517000020       46.7696228      -1.58547235    
  -1.04286098       1.56075203     -0.606999993       46.7696228      -1.58547235    
  -1.04286098       1.56075203     -0.606999993       21.5605755      -1.59566069    
 -0.758352995       1.13495600     -0.606999993       21.5605755      -1.59566069    
 -0.965201020      0.965201020     -0.606999993       21.5605755      -1.59566069    
  -1.32730997       1.32730997     -0.606999993       21.5605755      -1.59566069    
  -1.04286098       1.56075203     -0.606999993       36.3264008      -1.58466733    
  -1.44430494       2.16155505     -0.517000020       36.3264008      -1.58466733    
 -0.994853973       2.40179110     -0.517000020       36.3264008      -1.58466733    
 -0.718334973       1.73421395     -0.606999993       36.3264008      -1.58466733    
 -0.718334973       1.73421395     -0.606999993       19.3594131      -1.59141350    
 -0.522363007       1.26109600     -0.606999993       19.3594131      -1.59141350    
 -0.758352995       1.13495600     -0.606999993       19.3594131      -1.59141350    
  -1.04286098       1.56075203     -0.606999993       19.3594131      -1.59141350    
 -0.718334973       1.73421395     -0.606999993       24.6936760      -1.58310032    
 -0.994853973       2.40179110     -0.517000020       24.6936760      -1.58310032    
 -0.507171988       2.54972792     -0.517000020       24.6936760      -1.58310032    
 -0.366203994       1.84103203     -0.606999993       24.6936760      -1.58310032    
 -0.366203994       1.84103203     -0.606999993       16.8049622      -1.58486187    
 -0.266297996       1.33877206     -0.606999993       16.8049622      -1.58486187    
 -0.522363007       1.26109600     -0.606999993       16.8049622      -1.58486187    
 -0.718334973       1.73421395     -0.606999993       16.8049622      -1.58486187    
 -0.366203994       1.84103203     -0.606999993       11.8357687      -1.57928121    
 -0.507171988       2.54972792     -0.517000020       11.8357687      -1.57928121    
   0.00000000       2.59967995     -0.517000020       11.8357687      -1.57928121    
   0.00000000       1.87709999     -0.606999993       11.8357687      -1.57928121    
   0.00000000       1.87709999     -0.606999993       13.1386967      -1.57626534    
   0.00000000       1.36500001     -0.606999993       13.1386967      -1.57626534    
 -0.266297996       1.33877206     -0.606999993       13.1386967      -1.57626534    
 -0.366203994       1.84103203     -0.606999993       13.1386967      -1.57626534    
   0.00000000       1.87709999     -0.606999993       2.09270334       1.52209711    
   0.00000000       2.59967995     -0.517000020       2.09270334       1.52209711    
  0.507171988       2.54972792     -0.517000020       2.09270334       1.52209711    
  0.366203994       1.84103203     -0.606999993       2.09270334       1.52209711    
  0.366203994       1.84103203     -0.606999993       7.77179480      -1.55851066    
  0.266297996       1.33877206     -0.606999993       7.77179480      -1.55851066    
   0.00000000       1.36500001     -0.606999993       7.77179480      -1.55851066    
   0.00000000       1.87709999     -0.606999993       7.77179480      -1.55851066    
  0.366203994       1.84103203     -0.606999993       16.6660461       1.55339324    
  0.507171988       2.54972792     -0.517000020       16.6660461       1.55339324    
  0.994853973       2.40179110     -0.517000020       16.6660461       1.55339324    
  0.718334973       1.73421395     -0.606999993       16.6660461       1.55339324    
  0.718334973       1.73421395     -0.606999993      0.750402451      -1.24160814    
  0.522363007       1.26109600     -0.606999993      0.750402451      -1.24160814    
  0.266297996       1.33877206     -0.606999993      0.750402451      -1.24160814    
  0.366203994       1.84103203     -0.606999993      0.750402451      -1.24160814    
  0.718334973       1.73421395     -0.606999993       31.2150021       1.55600226    
  0.994853973       2.40179110     -0.517000020       31.2150021       1.55600226    
   1.44430494       2.16155505     -0.517000020       31.2150021       1.55600226    
   1.04286098       1.56075203     -0.606999993       31.2150021       1.55600226    
   1.04286098       1.56075203     -0.606999993       7.71450281       1.52296126    
  0.758352995       1.13495600     -0.606999993       7.71450281       1.52296126    
  0.522363007       1.26109600     -0.606999993       7.71450281       1.52296126    
  0.718334973       1.73421395     -0.606999993       7.71450281       1.52296126    
   1.04286098       1.56075203     -0.606999993       44.9060326       1.55708849    
   1.44430494       2.16155505     -0.517000020       44.9060326       1.55708849    
   1.83825099       1.83825099     -0.517000020       44.9060326       1.55708849    
   1.32730997       1.32730997     -0.606999993       44.9060326       1.55708849    
   1.32730997       1.32730997     -0.606999993       16.4531784       1.54078591    
  0.965201020      0.965201020     -0.606999993       16.4531784       1.54078591    
  0.758352995       1.13495600     -0.606999993       16.4531784       1.54078591    
   1.04286098       1.56075203     -0.606999993       16.4531784       1.54078591    
   1.32730997       1.32730997     -0.606999993       56.7809525       1.55773711    
   1.83825099       1.83825099     -0.517000020       56.7809525       1.55773711    
   2.16155505       1.44430494     -0.517000020       56.7809525       1.55773711    
   1.56075203       1.04286098     -0.606999993       56.7809525       1.55773711    
   1.56075203       1.04286098     -0.606999993       24.3612118       1.54658580    
   1.13495600      0.758352995     -0.606999993       24.3612118       1.54658580    
  0.965201020      0.965201020     -0.606999993       24.3612118       1.54658580    
   1.32730997       1.32730997     -0.606999993       24.3612118       1.54658580    
   1.56075203       1.04286098     -0.606999993       65.8950653       1.55807483    
   2.16155505       1.44430494     -0.517000020       65.8950653       1.55807483    
   2.40179110      0.994853973     -0.517000020       65.8950653       1.55807483    
   1.73421395      0.718334973     -0.606999993       65.8950653       1.55807483    
   1.73421395      0.718334973     -0.606999993       30.2034893       1.54894269    
   1.26109600      0.522363007     -0.606999993       30.2034893       1.54894269    
   1.13495600      0.758352995     -0.606999993       30.2034893       1.54894269    
   1.56075203       1.04286098     -0.606999993       30.2034893       1.54894269    
   1.73421395      0.718334973     -0.606999993       71.6326752       1.55820131    
   2.40179110      0.994853973     -0.517000020       71.6326752       1.55820131    
   2.54972792      0.507171988     -0.517000020       71.6326752       1.55820131    
   1.84103203      0.366203994     -0.606999993       71.6326752       1.55820131    
   1.84103203      0.366203994     -0.606999993       33.1884232       1.54975021    
   1.33877206      0.266297996     -0.606999993       33.1884232       1.54975021    
   1.26109600      0.522363007     -0.606999993       33.1884232       1.54975021    
   1.73421395      0.718334973     -0.606999993       33.1884232       1.54975021    
   1.84103203      0.366203994     -0.606999993       73.9046936       1.55839145    
   2.54972792      0.507171988     -0.517000020       73.9046936       1.55839145    
   2.59967995       0.00000000     -0.517000020       73.9046936       1.55839145    
   1.87709999       0.00000000     -0.606999993       73.9046936       1.55839145    
   1.87709999       0.00000000     -0.606999993       33.4765053       1.54935229    
   1.36500001       0.00000000     -0.606999993       33.4765053       1.54935229    
   1.33877206      0.266297996     -0.606999993       33.4765053       1.54935229    
   1.84103203      0.366203994     -0.606999993       33.4765053       1.54935229    
   1.87709999       0.00000000     -0.606999993       73.0918808       1.55862761    
   2.59967995       0.00000000     -0.517000020       73.0918808       1.55862761    
   2.54972792     -0.507171988     -0.517000020       73.0918808       1.55862761    
   1.84103203     -0.366203994     -0.606999993       73.0918808       1.55862761    
   1.84103203     -0.366203994     -0.606999993       31.9602623       1.54826665    
   1.33877206     -0.266297996     -0.606999993       31.9602623       1.54826665    
   1.36500001       0.00000000     -0.606999993       31.9602623       1.54826665    
   1.87709999       0.00000000     -0.606999993       31.9602623       1.54826665    
   1.84103203     -0.366203994     -0.606999993       69.6372375       1.55869102    
   2.54972792     -0.507171988     -0.517000020       69.6372375       1.55869102    
   2.40179110     -0.994853973     -0.517000020       69.6372375       1.55869102    
   1.73421395     -0.718334973     -0.606999993       69.6372375       1.55869102    
   1.73421395     -0.718334973     -0.606999993       29.5405025       1.54713297    
   1.26109600     -0.522363007     -0.606999993       29.5405025       1.54713297    
   1.33877206     -0.266297996     -0.606999993       29.5405025       1.54713297    
   1.84103203     -0.366203994     -0.606999993       29.5405025       1.54713297    
   1.73421395     -0.718334973     -0.606999993       63.9864540       1.55860806    
   2.40179110     -0.994853973     -0.517000020       63.9864540       1.55860806    
   2.16155505      -1.44430494     -0.517000020       63.9864540       1.55860806    
   1.56075203      -1.04286098     -0.606999993       63.9864540       1.55860806    
   1.56075203      -1.04286098     -0.606999993       26.9842091       1.54647195    
   1.13495600     -0.758352995     -0.606999993       26.9842091       1.54647195    
   1.26109600     -0.522363007     -0.606999993       26.9842091       1.54647195    