 VARIABLES="X" "Y" "Z" "abs(p) (Pa)" "angle(p) (rad)"
ZONE N=   2709,E =    2358, F=FEPOINT, ET=QUADRILATERAL
   0.00000000      -5.48999977     -0.157000005       2709.28076      -1.51725233    
   0.00000000      -4.76741982     -0.246999994       2709.28076      -1.51725233    
  0.930077016      -4.67581606     -0.246999994       2709.28076      -1.51725233    
   1.07104599      -5.38451099     -0.157000005       2709.28076      -1.51725233    
  -1.07104599      -5.38451099     -0.157000005       2707.58301      -1.51854789    
 -0.930077016      -4.67581606     -0.246999994       2707.58301      -1.51854789    
   0.00000000      -4.76741982     -0.246999994       2707.58301      -1.51854789    
   0.00000000      -5.48999977     -0.157000005       2707.58301      -1.51854789    
  -2.10093188      -5.07209921     -0.157000005       2619.59058      -1.51366627    
  -1.82441294      -4.40452194     -0.246999994       2619.59058      -1.51366627    
 -0.930077016      -4.67581606     -0.246999994       2619.59058      -1.51366627    
  -1.07104599      -5.38451099     -0.157000005       2619.59058      -1.51366627    
  -3.05008101      -4.56476784     -0.157000005       2399.88770      -1.51778316    
  -2.64863706      -3.96396494     -0.246999994       2399.88770      -1.51778316    
  -1.82441294      -4.40452194     -0.246999994       2399.88770      -1.51778316    
  -2.10093188      -5.07209921     -0.157000005       2399.88770      -1.51778316    
  -3.88201594      -3.88201594     -0.157000005       2100.90259      -1.51903284    
  -3.37107491      -3.37107491     -0.246999994       2100.90259      -1.51903284    
  -2.64863706      -3.96396494     -0.246999994       2100.90259      -1.51903284    
  -3.05008101      -4.56476784     -0.157000005       2100.90259      -1.51903284    
  -4.56476784      -3.05008101     -0.157000005       1741.31323      -1.51273537    
  -3.96396494      -2.64863706     -0.246999994       1741.31323      -1.51273537    
  -3.37107491      -3.37107491     -0.246999994       1741.31323      -1.51273537    
  -3.88201594      -3.88201594     -0.157000005       1741.31323      -1.51273537    
  -5.07209921      -2.10093188     -0.157000005       1281.60962      -1.52061892    
  -4.40452194      -1.82441294     -0.246999994       1281.60962      -1.52061892    
  -3.96396494      -2.64863706     -0.246999994       1281.60962      -1.52061892    
  -4.56476784      -3.05008101     -0.157000005       1281.60962      -1.52061892    
  -5.38451099      -1.07104599     -0.157000005       787.587769      -1.51755142    
  -4.67581606     -0.930077016     -0.246999994       787.587769      -1.51755142    
  -4.40452194      -1.82441294     -0.246999994       787.587769      -1.51755142    
  -5.07209921      -2.10093188     -0.157000005       787.587769      -1.51755142    
  -5.48999977       0.00000000     -0.157000005       266.213562      -1.51860034    
  -4.76741982       0.00000000     -0.246999994       266.213562      -1.51860034    
  -4.67581606     -0.930077016     -0.246999994       266.213562      -1.51860034    
  -5.38451099      -1.07104599     -0.157000005       266.213562      -1.51860034    
  -5.38451099       1.07104599     -0.157000005       270.976135       1.63092554    
  -4.67581606      0.930077016     -0.246999994       270.976135       1.63092554    
  -4.76741982       0.00000000     -0.246999994       270.976135       1.63092554    
  -5.48999977       0.00000000     -0.157000005       270.976135       1.63092554    
  -5.07209921       2.10093188     -0.157000005       798.192261       1.62778044    
  -4.40452194       1.82441294     -0.246999994       798.192261       1.62778044    
  -4.67581606      0.930077016     -0.246999994       798.192261       1.62778044    
  -5.38451099       1.07104599     -0.157000005       798.192261       1.62778044    
  -4.56476784       3.05008101     -0.157000005       1291.70947       1.62907386    
  -3.96396494       2.64863706     -0.246999994       1291.70947       1.62907386    
  -4.40452194       1.82441294     -0.246999994       1291.70947       1.62907386    
  -5.07209921       2.10093188     -0.157000005       1291.70947       1.62907386    
  -3.88201594       3.88201594     -0.157000005       1729.08887       1.62291706    
  -3.37107491       3.37107491     -0.246999994       1729.08887       1.62291706    
  -3.96396494       2.64863706     -0.246999994       1729.08887       1.62291706    
  -4.56476784       3.05008101     -0.157000005       1729.08887       1.62291706    
  -3.05008101       4.56476784     -0.157000005       2116.68384       1.62892389    
  -2.64863706       3.96396494     -0.246999994       2116.68384       1.62892389    
  -3.37107491       3.37107491     -0.246999994       2116.68384       1.62892389    
  -3.88201594       3.88201594     -0.157000005       2116.68384       1.62892389    
  -2.10093188       5.07209921     -0.157000005       2402.37964       1.62283897    
  -1.82441294       4.40452194     -0.246999994       2402.37964       1.62283897    
  -2.64863706       3.96396494     -0.246999994       2402.37964       1.62283897    
  -3.05008101       4.56476784     -0.157000005       2402.37964       1.62283897    
  -1.07104599       5.38451099     -0.157000005       2619.55054       1.62851238    
 -0.930077016       4.67581606     -0.246999994       2619.55054       1.62851238    
  -1.82441294       4.40452194     -0.246999994       2619.55054       1.62851238    
  -2.10093188       5.07209921     -0.157000005       2619.55054       1.62851238    
   0.00000000       5.48999977     -0.157000005       2709.29565       1.62303472    
   0.00000000       4.76741982     -0.246999994       2709.29565       1.62303472    
 -0.930077016       4.67581606     -0.246999994       2709.29565       1.62303472    
  -1.07104599       5.38451099     -0.157000005       2709.29565       1.62303472    
   1.07104599       5.38451099     -0.157000005       2723.64844       1.62783527    
  0.930077016       4.67581606     -0.246999994       2723.64844       1.62783527    
   0.00000000       4.76741982     -0.246999994       2723.64844       1.62783527    
   0.00000000       5.48999977     -0.157000005       2723.64844       1.62783527    
   2.10093188       5.07209921     -0.157000005       2604.91626       1.62394607    
   1.82441294       4.40452194     -0.246999994       2604.91626       1.62394607    
  0.930077016       4.67581606     -0.246999994       2604.91626       1.62394607    
   1.07104599       5.38451099     -0.157000005       2604.91626       1.62394607    
   3.05008101       4.56476784     -0.157000005       2398.68433       1.62299657    
   2.64863706       3.96396494     -0.246999994       2398.68433       1.62299657    
   1.82441294       4.40452194     -0.246999994       2398.68433       1.62299657    
   2.10093188       5.07209921     -0.157000005       2398.68433       1.62299657    
   3.88201594       3.88201594     -0.157000005       2114.26221       1.62739408    
   3.37107491       3.37107491     -0.246999994       2114.26221       1.62739408    
   2.64863706       3.96396494     -0.246999994       2114.26221       1.62739408    
   3.05008101       4.56476784     -0.157000005       2114.26221       1.62739408    
   4.56476784       3.05008101     -0.157000005       1735.90393       1.62598622    
   3.96396494       2.64863706     -0.246999994       1735.90393       1.62598622    
   3.37107491       3.37107491     -0.246999994       1735.90393       1.62598622    
   3.88201594       3.88201594     -0.157000005       1735.90393       1.62598622    
   5.07209921       2.10093188     -0.157000005       1287.29773       1.62569559    
   4.40452194       1.82441294     -0.246999994       1287.29773       1.62569559    
   3.96396494       2.64863706     -0.246999994       1287.29773       1.62569559    
   4.56476784       3.05008101     -0.157000005       1287.29773       1.62569559    
   5.38451099       1.07104599     -0.157000005       789.256287       1.62376297    
   4.67581606      0.930077016     -0.246999994       789.256287       1.62376297    
   4.40452194       1.82441294     -0.246999994       789.256287       1.62376297    
   5.07209921       2.10093188     -0.157000005       789.256287       1.62376297    
   5.48999977       0.00000000     -0.157000005       264.290314       1.61664748    
   4.76741982       0.00000000     -0.246999994       264.290314       1.61664748    
   4.67581606      0.930077016     -0.246999994       264.290314       1.61664748    
   5.38451099       1.07104599     -0.157000005       264.290314       1.61664748    
   5.38451099      -1.07104599     -0.157000005       268.209320      -1.51827896    
   4.67581606     -0.930077016     -0.246999994       268.209320      -1.51827896    
   4.76741982       0.00000000     -0.246999994       268.209320      -1.51827896    
   5.48999977       0.00000000     -0.157000005       268.209320      -1.51827896    
   5.07209921      -2.10093188     -0.157000005       792.166992      -1.51620781    
   4.40452194      -1.82441294     -0.246999994       792.166992      -1.51620781    
   4.67581606     -0.930077016     -0.246999994       792.166992      -1.51620781    
   5.38451099      -1.07104599     -0.157000005       792.166992      -1.51620781    
   4.56476784      -3.05008101     -0.157000005       1284.60132      -1.51669049    
   3.96396494      -2.64863706     -0.246999994       1284.60132      -1.51669049    
   4.40452194      -1.82441294     -0.246999994       1284.60132      -1.51669049    
   5.07209921      -2.10093188     -0.157000005       1284.60132      -1.51669049    
   3.88201594      -3.88201594     -0.157000005       1727.47827      -1.51849067    
   3.37107491      -3.37107491     -0.246999994       1727.47827      -1.51849067    
   3.96396494      -2.64863706     -0.246999994       1727.47827      -1.51849067    
   4.56476784      -3.05008101     -0.157000005       1727.47827      -1.51849067    
   3.05008101      -4.56476784     -0.157000005       2118.31909      -1.51290631    
   2.64863706      -3.96396494     -0.246999994       2118.31909      -1.51290631    
   3.37107491      -3.37107491     -0.246999994       2118.31909      -1.51290631    
   3.88201594      -3.88201594     -0.157000005       2118.31909      -1.51290631    
   2.10093188      -5.07209921     -0.157000005       2401.14966      -1.51787663    
   1.82441294      -4.40452194     -0.246999994       2401.14966      -1.51787663    
   2.64863706      -3.96396494     -0.246999994       2401.14966      -1.51787663    
   3.05008101      -4.56476784     -0.157000005       2401.14966      -1.51787663    
   1.07104599      -5.38451099     -0.157000005       2605.07471      -1.51773143    
  0.930077016      -4.67581606     -0.246999994       2605.07471      -1.51773143    
   1.82441294      -4.40452194     -0.246999994       2605.07471      -1.51773143    
   2.10093188      -5.07209921     -0.157000005       2605.07471      -1.51773143    
   0.00000000      -1.87709999     -0.606999993       3271.96387       1.57395542    
   0.00000000      -1.36500001     -0.606999993       3271.96387       1.57395542    
  0.266297996      -1.33877206     -0.606999993       3271.96387       1.57395542    
  0.366203994      -1.84103203     -0.606999993       3271.96387       1.57395542    
   0.00000000      -1.87709999     -0.606999993       4864.45557       1.57248485    
   0.00000000      -2.59967995     -0.517000020       4864.45557       1.57248485    
 -0.507171988      -2.54972792     -0.517000020       4864.45557       1.57248485    
 -0.366203994      -1.84103203     -0.606999993       4864.45557       1.57248485    
 -0.366203994      -1.84103203     -0.606999993       3271.73096       1.57395244    
 -0.266297996      -1.33877206     -0.606999993       3271.73096       1.57395244    
   0.00000000      -1.36500001     -0.606999993       3271.73096       1.57395244    
   0.00000000      -1.87709999     -0.606999993       3271.73096       1.57395244    
 -0.366203994      -1.84103203     -0.606999993       4676.11865       1.57247341    
 -0.507171988      -2.54972792     -0.517000020       4676.11865       1.57247341    
 -0.994853973      -2.40179110     -0.517000020       4676.11865       1.57247341    
 -0.718334973      -1.73421395     -0.606999993       4676.11865       1.57247341    
 -0.718334973      -1.73421395     -0.606999993       3144.10352       1.57394516    
 -0.522363007      -1.26109600     -0.606999993       3144.10352       1.57394516    
 -0.266297996      -1.33877206     -0.606999993       3144.10352       1.57394516    
 -0.366203994      -1.84103203     -0.606999993       3144.10352       1.57394516    
 -0.718334973      -1.73421395     -0.606999993       4310.07617       1.57247567    
 -0.994853973      -2.40179110     -0.517000020       4310.07617       1.57247567    
  -1.44430494      -2.16155505     -0.517000020       4310.07617       1.57247567    
  -1.04286098      -1.56075203     -0.606999993       4310.07617       1.57247567    
  -1.04286098      -1.56075203     -0.606999993       2896.22925       1.57392836    
 -0.758352995      -1.13495600     -0.606999993       2896.22925       1.57392836    
 -0.522363007      -1.26109600     -0.606999993       2896.22925       1.57392836    
 -0.718334973      -1.73421395     -0.606999993       2896.22925       1.57392836    
  -1.04286098      -1.56075203     -0.606999993       3780.92676       1.57248795    
  -1.44430494      -2.16155505     -0.517000020       3780.92676       1.57248795    
  -1.83825099      -1.83825099     -0.517000020       3780.92676       1.57248795    
  -1.32730997      -1.32730997     -0.606999993       3780.92676       1.57248795    
  -1.32730997      -1.32730997     -0.606999993       2539.38525       1.57392216    
 -0.965201020     -0.965201020     -0.606999993       2539.38525       1.57392216    
 -0.758352995      -1.13495600     -0.606999993       2539.38525       1.57392216    
  -1.04286098      -1.56075203     -0.606999993       2539.38525       1.57392216    
  -1.32730997      -1.32730997     -0.606999993       3106.42114       1.57250226    
  -1.83825099      -1.83825099     -0.517000020       3106.42114       1.57250226    
  -2.16155505      -1.44430494     -0.517000020       3106.42114       1.57250226    
  -1.56075203      -1.04286098     -0.606999993       3106.42114       1.57250226    
  -1.56075203      -1.04286098     -0.606999993       2086.99609       1.57393432    
  -1.13495600     -0.758352995     -0.606999993       2086.99609       1.57393432    
 -0.965201020     -0.965201020     -0.606999993       2086.99609       1.57393432    
  -1.32730997      -1.32730997     -0.606999993       2086.99609       1.57393432    
  -1.56075203      -1.04286098     -0.606999993       2309.96362       1.57252347    
  -2.16155505      -1.44430494     -0.517000020       2309.96362       1.57252347    
  -2.40179110     -0.994853973     -0.517000020       2309.96362       1.57252347    
  -1.73421395     -0.718334973     -0.606999993       2309.96362       1.57252347    
  -1.73421395     -0.718334973     -0.606999993       1553.98169       1.57396507    
  -1.26109600     -0.522363007     -0.606999993       1553.98169       1.57396507    
  -1.13495600     -0.758352995     -0.606999993       1553.98169       1.57396507    
  -1.56075203      -1.04286098     -0.606999993       1553.98169       1.57396507    
  -1.73421395     -0.718334973     -0.606999993       1422.33813       1.57254076    
  -2.40179110     -0.994853973     -0.517000020       1422.33813       1.57254076    
  -2.54972792     -0.507171988     -0.517000020       1422.33813       1.57254076    
  -1.84103203     -0.366203994     -0.606999993       1422.33813       1.57254076    
  -1.84103203     -0.366203994     -0.606999993       957.861328       1.57397437    
  -1.33877206     -0.266297996     -0.606999993       957.861328       1.57397437    
  -1.26109600     -0.522363007     -0.606999993       957.861328       1.57397437    
  -1.73421395     -0.718334973     -0.606999993       957.861328       1.57397437    
  -1.84103203     -0.366203994     -0.606999993       480.304016       1.57246172    
  -2.54972792     -0.507171988     -0.517000020       480.304016       1.57246172    
  -2.59967995       0.00000000     -0.517000020       480.304016       1.57246172    
  -1.87709999       0.00000000     -0.606999993       480.304016       1.57246172    
  -1.87709999       0.00000000     -0.606999993       321.559143       1.57382905    
  -1.36500001       0.00000000     -0.606999993       321.559143       1.57382905    
  -1.33877206     -0.266297996     -0.606999993       321.559143       1.57382905    
  -1.84103203     -0.366203994     -0.606999993       321.559143       1.57382905    
  -1.87709999       0.00000000     -0.606999993       478.863342      -1.56870639    
  -2.59967995       0.00000000     -0.517000020       478.863342      -1.56870639    
  -2.54972792      0.507171988     -0.517000020       478.863342      -1.56870639    
  -1.84103203      0.366203994     -0.606999993       478.863342      -1.56870639    
  -1.84103203      0.366203994     -0.606999993       328.505066      -1.56717598    
  -1.33877206      0.266297996     -0.606999993       328.505066      -1.56717598    
  -1.36500001       0.00000000     -0.606999993       328.505066      -1.56717598    
  -1.87709999       0.00000000     -0.606999993       328.505066      -1.56717598    
  -1.84103203      0.366203994     -0.606999993       1420.50745      -1.56887269    
  -2.54972792      0.507171988     -0.517000020       1420.50745      -1.56887269    
  -2.40179110      0.994853973     -0.517000020       1420.50745      -1.56887269    
  -1.73421395      0.718334973     -0.606999993       1420.50745      -1.56887269    
  -1.73421395      0.718334973     -0.606999993       965.505188      -1.56741834    
  -1.26109600      0.522363007     -0.606999993       965.505188      -1.56741834    
  -1.33877206      0.266297996     -0.606999993       965.505188      -1.56741834    
  -1.84103203      0.366203994     -0.606999993       965.505188      -1.56741834    
  -1.73421395      0.718334973     -0.606999993       2308.24512      -1.56896746    
  -2.40179110      0.994853973     -0.517000020       2308.24512      -1.56896746    
  -2.16155505       1.44430494     -0.517000020       2308.24512      -1.56896746    
  -1.56075203       1.04286098     -0.606999993       2308.24512      -1.56896746    
  -1.56075203       1.04286098     -0.606999993       1562.73145      -1.56752694    
  -1.13495600      0.758352995     -0.606999993       1562.73145      -1.56752694    
  -1.26109600      0.522363007     -0.606999993       1562.73145      -1.56752694    
  -1.73421395      0.718334973     -0.606999993       1562.73145      -1.56752694    
  -1.56075203       1.04286098     -0.606999993       3104.04712      -1.56903112    
  -2.16155505       1.44430494     -0.517000020       3104.04712      -1.56903112    
  -1.83825099       1.83825099     -0.517000020       3104.04712      -1.56903112    
  -1.32730997       1.32730997     -0.606999993       3104.04712      -1.56903112    
  -1.32730997       1.32730997     -0.606999993       2095.69824      -1.56759763    
 -0.965201020      0.965201020     -0.606999993       2095.69824      -1.56759763    
  -1.13495600      0.758352995     -0.606999993       2095.69824      -1.56759763    
  -1.56075203       1.04286098     -0.606999993       2095.69824      -1.56759763    
  -1.32730997       1.32730997     -0.606999993       3776.79346      -1.56906211    
  -1.83825099       1.83825099     -0.517000020       3776.79346      -1.56906211    
  -1.44430494       2.16155505     -0.517000020       3776.79346      -1.56906211    
  -1.04286098       1.56075203     -0.606999993       3776.79346      -1.56906211    
  -1.04286098       1.56075203     -0.606999993       2545.25806      -1.56762826    
 -0.758352995       1.13495600     -0.606999993       2545.25806      -1.56762826    
 -0.965201020      0.965201020     -0.606999993       2545.25806      -1.56762826    
  -1.32730997       1.32730997     -0.606999993       2545.25806      -1.56762826    
  -1.04286098       1.56075203     -0.606999993       4304.13477      -1.56906688    
  -1.44430494       2.16155505     -0.517000020       4304.13477      -1.56906688    
 -0.994853973       2.40179110     -0.517000020       4304.13477      -1.56906688    
 -0.718334973       1.73421395     -0.606999993       4304.13477      -1.56906688    
 -0.718334973       1.73421395     -0.606999993       2897.86426      -1.56762958    
 -0.522363007       1.26109600     -0.606999993       2897.86426      -1.56762958    
 -0.758352995       1.13495600     -0.606999993       2897.86426      -1.56762958    
  -1.04286098       1.56075203     -0.606999993       2897.86426      -1.56762958    
 -0.718334973       1.73421395     -0.606999993       4669.70068      -1.56906354    
 -0.994853973       2.40179110     -0.517000020       4669.70068      -1.56906354    
 -0.507171988       2.54972792     -0.517000020       4669.70068      -1.56906354    
 -0.366203994       1.84103203     -0.606999993       4669.70068      -1.56906354    
 -0.366203994       1.84103203     -0.606999993       3142.42725      -1.56762004    
 -0.266297996       1.33877206     -0.606999993       3142.42725      -1.56762004    
 -0.522363007       1.26109600     -0.606999993       3142.42725      -1.56762004    
 -0.718334973       1.73421395     -0.606999993       3142.42725      -1.56762004    
 -0.366203994       1.84103203     -0.606999993       4858.63721      -1.56906998    
 -0.507171988       2.54972792     -0.517000020       4858.63721      -1.56906998    
   0.00000000       2.59967995     -0.517000020       4858.63721      -1.56906998    
   0.00000000       1.87709999     -0.606999993       4858.63721      -1.56906998    
   0.00000000       1.87709999     -0.606999993       3268.48462      -1.56762195    
   0.00000000       1.36500001     -0.606999993       3268.48462      -1.56762195    
 -0.266297996       1.33877206     -0.606999993       3268.48462      -1.56762195    
 -0.366203994       1.84103203     -0.606999993       3268.48462      -1.56762195    
   0.00000000       1.87709999     -0.606999993       4859.00977      -1.56908321    
   0.00000000       2.59967995     -0.517000020       4859.00977      -1.56908321    
  0.507171988       2.54972792     -0.517000020       4859.00977      -1.56908321    
  0.366203994       1.84103203     -0.606999993       4859.00977      -1.56908321    
  0.366203994       1.84103203     -0.606999993       3268.26440      -1.56762755    
  0.266297996       1.33877206     -0.606999993       3268.26440      -1.56762755    
   0.00000000       1.36500001     -0.606999993       3268.26440      -1.56762755    
   0.00000000       1.87709999     -0.606999993       3268.26440      -1.56762755    
  0.366203994       1.84103203     -0.606999993       4670.68799      -1.56909108    
  0.507171988       2.54972792     -0.517000020       4670.68799      -1.56909108    
  0.994853973       2.40179110     -0.517000020       4670.68799      -1.56909108    
  0.718334973       1.73421395     -0.606999993       4670.68799      -1.56909108    
  0.718334973       1.73421395     -0.606999993       3141.28833      -1.56764221    
  0.522363007       1.26109600     -0.606999993       3141.28833      -1.56764221    
  0.266297996       1.33877206     -0.606999993       3141.28833      -1.56764221    
  0.366203994       1.84103203     -0.606999993       3141.28833      -1.56764221    
  0.718334973       1.73421395     -0.606999993       4304.67871      -1.56909335    
  0.994853973       2.40179110     -0.517000020       4304.67871      -1.56909335    
   1.44430494       2.16155505     -0.517000020       4304.67871      -1.56909335    
   1.04286098       1.56075203     -0.606999993       4304.67871      -1.56909335    
   1.04286098       1.56075203     -0.606999993       2894.30615      -1.56765950    
  0.758352995       1.13495600     -0.606999993       2894.30615      -1.56765950    
  0.522363007       1.26109600     -0.606999993       2894.30615      -1.56765950    
  0.718334973       1.73421395     -0.606999993       2894.30615      -1.56765950    
   1.04286098       1.56075203     -0.606999993       3775.53833      -1.56909013    
   1.44430494       2.16155505     -0.517000020       3775.53833      -1.56909013    
   1.83825099       1.83825099     -0.517000020       3775.53833      -1.56909013    
   1.32730997       1.32730997     -0.606999993       3775.53833      -1.56909013    
   1.32730997       1.32730997     -0.606999993       2537.76636      -1.56765318    
  0.965201020      0.965201020     -0.606999993       2537.76636      -1.56765318    
  0.758352995       1.13495600     -0.606999993       2537.76636      -1.56765318    
   1.04286098       1.56075203     -0.606999993       2537.76636      -1.56765318    
   1.32730997       1.32730997     -0.606999993       3100.67310      -1.56906974    
   1.83825099       1.83825099     -0.517000020       3100.67310      -1.56906974    
   2.16155505       1.44430494     -0.517000020       3100.67310      -1.56906974    
   1.56075203       1.04286098     -0.606999993       3100.67310      -1.56906974    
   1.56075203       1.04286098     -0.606999993       2083.56812      -1.56761205    
   1.13495600      0.758352995     -0.606999993       2083.56812      -1.56761205    
  0.965201020      0.965201020     -0.606999993       2083.56812      -1.56761205    
   1.32730997       1.32730997     -0.606999993       2083.56812      -1.56761205    
   1.56075203       1.04286098     -0.606999993       2303.72290      -1.56903017    
   2.16155505       1.44430494     -0.517000020       2303.72290      -1.56903017    
   2.40179110      0.994853973     -0.517000020       2303.72290      -1.56903017    
   1.73421395      0.718334973     -0.606999993       2303.72290      -1.56903017    
   1.73421395      0.718334973     -0.606999993       1547.78638      -1.56754804    
   1.26109600      0.522363007     -0.606999993       1547.78638      -1.56754804    
   1.13495600      0.758352995     -0.606999993       1547.78638      -1.56754804    
   1.56075203       1.04286098     -0.606999993       1547.78638      -1.56754804    
   1.73421395      0.718334973     -0.606999993       1416.12854      -1.56897032    
   2.40179110      0.994853973     -0.517000020       1416.12854      -1.56897032    
   2.54972792      0.507171988     -0.517000020       1416.12854      -1.56897032    
   1.84103203      0.366203994     -0.606999993       1416.12854      -1.56897032    
   1.84103203      0.366203994     -0.606999993       950.845825      -1.56747854    
   1.33877206      0.266297996     -0.606999993       950.845825      -1.56747854    
   1.26109600      0.522363007     -0.606999993       950.845825      -1.56747854    
   1.73421395      0.718334973     -0.606999993       950.845825      -1.56747854    
   1.84103203      0.366203994     -0.606999993       475.314423      -1.56897604    
   2.54972792      0.507171988     -0.517000020       475.314423      -1.56897604    
   2.59967995       0.00000000     -0.517000020       475.314423      -1.56897604    
   1.87709999       0.00000000     -0.606999993       475.314423      -1.56897604    
   1.87709999       0.00000000     -0.606999993       315.544250      -1.56750333    
   1.36500001       0.00000000     -0.606999993       315.544250      -1.56750333    
   1.33877206      0.266297996     -0.606999993       315.544250      -1.56750333    
   1.84103203      0.366203994     -0.606999993       315.544250      -1.56750333    
   1.87709999       0.00000000     -0.606999993       482.925903       1.57278919    
   2.59967995       0.00000000     -0.517000020       482.925903       1.57278919    
   2.54972792     -0.507171988     -0.517000020       482.925903       1.57278919    
   1.84103203     -0.366203994     -0.606999993       482.925903       1.57278919    
   1.84103203     -0.366203994     -0.606999993       332.813934       1.57425165    
   1.33877206     -0.266297996     -0.606999993       332.813934       1.57425165    
   1.36500001       0.00000000     -0.606999993       332.813934       1.57425165    
   1.87709999       0.00000000     -0.606999993       332.813934       1.57425165    
   1.84103203     -0.366203994     -0.606999993       1424.29211       1.57266712    
   2.54972792     -0.507171988     -0.517000020       1424.29211       1.57266712    
   2.40179110     -0.994853973     -0.517000020       1424.29211       1.57266712    
   1.73421395     -0.718334973     -0.606999993       1424.29211       1.57266712    
   1.73421395     -0.718334973     -0.606999993       968.002502       1.57410645    
   1.26109600     -0.522363007     -0.606999993       968.002502       1.57410645    
   1.33877206     -0.266297996     -0.606999993       968.002502       1.57410645    
   1.84103203     -0.366203994     -0.606999993       968.002502       1.57410645    
   1.73421395     -0.718334973     -0.606999993       2311.76123       1.57255530    
   2.40179110     -0.994853973     -0.517000020       2311.76123       1.57255530    
   2.16155505      -1.44430494     -0.517000020       2311.76123       1.57255530    
   1.56075203      -1.04286098     -0.606999993       2311.76123       1.57255530    
   1.56075203      -1.04286098     -0.606999993       1563.60925       1.57399702    
   1.13495600     -0.758352995     -0.606999993       1563.60925       1.57399702    
   1.26109600     -0.522363007     -0.606999993       1563.60925       1.57399702    