 VARIABLES="X" "Y" "Z" "abs(p) (Pa)" "angle(p) (rad)"
ZONE N=   2709,E =    2358, F=FEPOINT, ET=QUADRILATERAL
   0.00000000      -5.48999977     -0.157000005       5.19985485      -2.74095511    
   0.00000000      -4.76741982     -0.246999994       5.19985485      -2.74095511    
  0.930077016      -4.67581606     -0.246999994       5.19985485      -2.74095511    
   1.07104599      -5.38451099     -0.157000005       5.19985485      -2.74095511    
  -1.07104599      -5.38451099     -0.157000005       5.69475746      0.512941718    
 -0.930077016      -4.67581606     -0.246999994       5.69475746      0.512941718    
   0.00000000      -4.76741982     -0.246999994       5.69475746      0.512941718    
   0.00000000      -5.48999977     -0.157000005       5.69475746      0.512941718    
  -2.10093188      -5.07209921     -0.157000005       16.4191914      0.529278159    
  -1.82441294      -4.40452194     -0.246999994       16.4191914      0.529278159    
 -0.930077016      -4.67581606     -0.246999994       16.4191914      0.529278159    
  -1.07104599      -5.38451099     -0.157000005       16.4191914      0.529278159    
  -3.05008101      -4.56476784     -0.157000005       25.7073860      0.511440158    
  -2.64863706      -3.96396494     -0.246999994       25.7073860      0.511440158    
  -1.82441294      -4.40452194     -0.246999994       25.7073860      0.511440158    
  -2.10093188      -5.07209921     -0.157000005       25.7073860      0.511440158    
  -3.88201594      -3.88201594     -0.157000005       32.9405823      0.563826501    
  -3.37107491      -3.37107491     -0.246999994       32.9405823      0.563826501    
  -2.64863706      -3.96396494     -0.246999994       32.9405823      0.563826501    
  -3.05008101      -4.56476784     -0.157000005       32.9405823      0.563826501    
  -4.56476784      -3.05008101     -0.157000005       42.8021049      0.409861416    
  -3.96396494      -2.64863706     -0.246999994       42.8021049      0.409861416    
  -3.37107491      -3.37107491     -0.246999994       42.8021049      0.409861416    
  -3.88201594      -3.88201594     -0.157000005       42.8021049      0.409861416    
  -5.07209921      -2.10093188     -0.157000005       46.6949196      0.539449692    
  -4.40452194      -1.82441294     -0.246999994       46.6949196      0.539449692    
  -3.96396494      -2.64863706     -0.246999994       46.6949196      0.539449692    
  -4.56476784      -3.05008101     -0.157000005       46.6949196      0.539449692    
  -5.38451099      -1.07104599     -0.157000005       50.2950859      0.522346020    
  -4.67581606     -0.930077016     -0.246999994       50.2950859      0.522346020    
  -4.40452194      -1.82441294     -0.246999994       50.2950859      0.522346020    
  -5.07209921      -2.10093188     -0.157000005       50.2950859      0.522346020    
  -5.48999977       0.00000000     -0.157000005       56.6875725      0.464920253    
  -4.76741982       0.00000000     -0.246999994       56.6875725      0.464920253    
  -4.67581606     -0.930077016     -0.246999994       56.6875725      0.464920253    
  -5.38451099      -1.07104599     -0.157000005       56.6875725      0.464920253    
  -5.38451099       1.07104599     -0.157000005       56.5873451      0.455461293    
  -4.67581606      0.930077016     -0.246999994       56.5873451      0.455461293    
  -4.76741982       0.00000000     -0.246999994       56.5873451      0.455461293    
  -5.48999977       0.00000000     -0.157000005       56.5873451      0.455461293    
  -5.07209921       2.10093188     -0.157000005       54.2812576      0.452037364    
  -4.40452194       1.82441294     -0.246999994       54.2812576      0.452037364    
  -4.67581606      0.930077016     -0.246999994       54.2812576      0.452037364    
  -5.38451099       1.07104599     -0.157000005       54.2812576      0.452037364    
  -4.56476784       3.05008101     -0.157000005       50.3139153      0.457111061    
  -3.96396494       2.64863706     -0.246999994       50.3139153      0.457111061    
  -4.40452194       1.82441294     -0.246999994       50.3139153      0.457111061    
  -5.07209921       2.10093188     -0.157000005       50.3139153      0.457111061    
  -3.88201594       3.88201594     -0.157000005       40.4653358      0.507279992    
  -3.37107491       3.37107491     -0.246999994       40.4653358      0.507279992    
  -3.96396494       2.64863706     -0.246999994       40.4653358      0.507279992    
  -4.56476784       3.05008101     -0.157000005       40.4653358      0.507279992    
  -3.05008101       4.56476784     -0.157000005       36.0129585      0.463766903    
  -2.64863706       3.96396494     -0.246999994       36.0129585      0.463766903    
  -3.37107491       3.37107491     -0.246999994       36.0129585      0.463766903    
  -3.88201594       3.88201594     -0.157000005       36.0129585      0.463766903    
  -2.10093188       5.07209921     -0.157000005       24.5455265      0.485505909    
  -1.82441294       4.40452194     -0.246999994       24.5455265      0.485505909    
  -2.64863706       3.96396494     -0.246999994       24.5455265      0.485505909    
  -3.05008101       4.56476784     -0.157000005       24.5455265      0.485505909    
  -1.07104599       5.38451099     -0.157000005       16.2079372      0.471714348    
 -0.930077016       4.67581606     -0.246999994       16.2079372      0.471714348    
  -1.82441294       4.40452194     -0.246999994       16.2079372      0.471714348    
  -2.10093188       5.07209921     -0.157000005       16.2079372      0.471714348    
   0.00000000       5.48999977     -0.157000005       5.05262566      0.299485296    
   0.00000000       4.76741982     -0.246999994       5.05262566      0.299485296    
 -0.930077016       4.67581606     -0.246999994       5.05262566      0.299485296    
  -1.07104599       5.38451099     -0.157000005       5.05262566      0.299485296    
   1.07104599       5.38451099     -0.157000005       6.01862907      -2.73326826    
  0.930077016       4.67581606     -0.246999994       6.01862907      -2.73326826    
   0.00000000       4.76741982     -0.246999994       6.01862907      -2.73326826    
   0.00000000       5.48999977     -0.157000005       6.01862907      -2.73326826    
   2.10093188       5.07209921     -0.157000005       15.6737738      -2.53234839    
   1.82441294       4.40452194     -0.246999994       15.6737738      -2.53234839    
  0.930077016       4.67581606     -0.246999994       15.6737738      -2.53234839    
   1.07104599       5.38451099     -0.157000005       15.6737738      -2.53234839    
   3.05008101       4.56476784     -0.157000005       24.9347858      -2.65192747    
   2.64863706       3.96396494     -0.246999994       24.9347858      -2.65192747    
   1.82441294       4.40452194     -0.246999994       24.9347858      -2.65192747    
   2.10093188       5.07209921     -0.157000005       24.9347858      -2.65192747    
   3.88201594       3.88201594     -0.157000005       36.5644913      -2.62090969    
   3.37107491       3.37107491     -0.246999994       36.5644913      -2.62090969    
   2.64863706       3.96396494     -0.246999994       36.5644913      -2.62090969    
   3.05008101       4.56476784     -0.157000005       36.5644913      -2.62090969    
   4.56476784       3.05008101     -0.157000005       41.0316963      -2.69473052    
   3.96396494       2.64863706     -0.246999994       41.0316963      -2.69473052    
   3.37107491       3.37107491     -0.246999994       41.0316963      -2.69473052    
   3.88201594       3.88201594     -0.157000005       41.0316963      -2.69473052    
   5.07209921       2.10093188     -0.157000005       50.3691559      -2.65103960    
   4.40452194       1.82441294     -0.246999994       50.3691559      -2.65103960    
   3.96396494       2.64863706     -0.246999994       50.3691559      -2.65103960    
   4.56476784       3.05008101     -0.157000005       50.3691559      -2.65103960    
   5.38451099       1.07104599     -0.157000005       50.4145317      -2.62856555    
   4.67581606      0.930077016     -0.246999994       50.4145317      -2.62856555    
   4.40452194       1.82441294     -0.246999994       50.4145317      -2.62856555    
   5.07209921       2.10093188     -0.157000005       50.4145317      -2.62856555    
   5.48999977       0.00000000     -0.157000005       52.7022018      -2.60386276    
   4.76741982       0.00000000     -0.246999994       52.7022018      -2.60386276    
   4.67581606      0.930077016     -0.246999994       52.7022018      -2.60386276    
   5.38451099       1.07104599     -0.157000005       52.7022018      -2.60386276    
   5.38451099      -1.07104599     -0.157000005       52.3827858      -2.62271166    
   4.67581606     -0.930077016     -0.246999994       52.3827858      -2.62271166    
   4.76741982       0.00000000     -0.246999994       52.3827858      -2.62271166    
   5.48999977       0.00000000     -0.157000005       52.3827858      -2.62271166    
   5.07209921      -2.10093188     -0.157000005       50.4616394      -2.61131620    
   4.40452194      -1.82441294     -0.246999994       50.4616394      -2.61131620    
   4.67581606     -0.930077016     -0.246999994       50.4616394      -2.61131620    
   5.38451099      -1.07104599     -0.157000005       50.4616394      -2.61131620    
   4.56476784      -3.05008101     -0.157000005       46.4218521      -2.62087178    
   3.96396494      -2.64863706     -0.246999994       46.4218521      -2.62087178    
   4.40452194      -1.82441294     -0.246999994       46.4218521      -2.62087178    
   5.07209921      -2.10093188     -0.157000005       46.4218521      -2.62087178    
   3.88201594      -3.88201594     -0.157000005       40.5169296      -2.61961555    
   3.37107491      -3.37107491     -0.246999994       40.5169296      -2.61961555    
   3.96396494      -2.64863706     -0.246999994       40.5169296      -2.61961555    
   4.56476784      -3.05008101     -0.157000005       40.5169296      -2.61961555    
   3.05008101      -4.56476784     -0.157000005       35.7811279      -2.69002342    
   2.64863706      -3.96396494     -0.246999994       35.7811279      -2.69002342    
   3.37107491      -3.37107491     -0.246999994       35.7811279      -2.69002342    
   3.88201594      -3.88201594     -0.157000005       35.7811279      -2.69002342    
   2.10093188      -5.07209921     -0.157000005       24.7839317      -2.63853216    
   1.82441294      -4.40452194     -0.246999994       24.7839317      -2.63853216    
   2.64863706      -3.96396494     -0.246999994       24.7839317      -2.63853216    
   3.05008101      -4.56476784     -0.157000005       24.7839317      -2.63853216    
   1.07104599      -5.38451099     -0.157000005       14.9532948      -2.61860943    
  0.930077016      -4.67581606     -0.246999994       14.9532948      -2.61860943    
   1.82441294      -4.40452194     -0.246999994       14.9532948      -2.61860943    
   2.10093188      -5.07209921     -0.157000005       14.9532948      -2.61860943    
   0.00000000      -1.87709999     -0.606999993       13.8103504       1.56557226    
   0.00000000      -1.36500001     -0.606999993       13.8103504       1.56557226    
  0.266297996      -1.33877206     -0.606999993       13.8103504       1.56557226    
  0.366203994      -1.84103203     -0.606999993       13.8103504       1.56557226    
   0.00000000      -1.87709999     -0.606999993       2.07202816      -1.61935794    
   0.00000000      -2.59967995     -0.517000020       2.07202816      -1.61935794    
 -0.507171988      -2.54972792     -0.517000020       2.07202816      -1.61935794    
 -0.366203994      -1.84103203     -0.606999993       2.07202816      -1.61935794    
 -0.366203994      -1.84103203     -0.606999993       7.52890110       1.58188224    
 -0.266297996      -1.33877206     -0.606999993       7.52890110       1.58188224    
   0.00000000      -1.36500001     -0.606999993       7.52890110       1.58188224    
   0.00000000      -1.87709999     -0.606999993       7.52890110       1.58188224    
 -0.366203994      -1.84103203     -0.606999993       17.1060410      -1.58762300    
 -0.507171988      -2.54972792     -0.517000020       17.1060410      -1.58762300    
 -0.994853973      -2.40179110     -0.517000020       17.1060410      -1.58762300    
 -0.718334973      -1.73421395     -0.606999993       17.1060410      -1.58762300    
 -0.718334973      -1.73421395     -0.606999993      0.626113057      -1.96881878    
 -0.522363007      -1.26109600     -0.606999993      0.626113057      -1.96881878    
 -0.266297996      -1.33877206     -0.606999993      0.626113057      -1.96881878    
 -0.366203994      -1.84103203     -0.606999993      0.626113057      -1.96881878    
 -0.718334973      -1.73421395     -0.606999993       32.0330696      -1.58528721    
 -0.994853973      -2.40179110     -0.517000020       32.0330696      -1.58528721    
  -1.44430494      -2.16155505     -0.517000020       32.0330696      -1.58528721    
  -1.04286098      -1.56075203     -0.606999993       32.0330696      -1.58528721    
  -1.04286098      -1.56075203     -0.606999993       9.87493229      -1.60895765    
 -0.758352995      -1.13495600     -0.606999993       9.87493229      -1.60895765    
 -0.522363007      -1.26109600     -0.606999993       9.87493229      -1.60895765    
 -0.718334973      -1.73421395     -0.606999993       9.87493229      -1.60895765    
  -1.04286098      -1.56075203     -0.606999993       45.9421349      -1.58437800    
  -1.44430494      -2.16155505     -0.517000020       45.9421349      -1.58437800    
  -1.83825099      -1.83825099     -0.517000020       45.9421349      -1.58437800    
  -1.32730997      -1.32730997     -0.606999993       45.9421349      -1.58437800    
  -1.32730997      -1.32730997     -0.606999993       19.2597065      -1.59689951    
 -0.965201020     -0.965201020     -0.606999993       19.2597065      -1.59689951    
 -0.758352995      -1.13495600     -0.606999993       19.2597065      -1.59689951    
  -1.04286098      -1.56075203     -0.606999993       19.2597065      -1.59689951    
  -1.32730997      -1.32730997     -0.606999993       57.8563690      -1.58396697    
  -1.83825099      -1.83825099     -0.517000020       57.8563690      -1.58396697    
  -2.16155505      -1.44430494     -0.517000020       57.8563690      -1.58396697    
  -1.56075203      -1.04286098     -0.606999993       57.8563690      -1.58396697    
  -1.56075203      -1.04286098     -0.606999993       27.2957973      -1.59301496    
  -1.13495600     -0.758352995     -0.606999993       27.2957973      -1.59301496    
 -0.965201020     -0.965201020     -0.606999993       27.2957973      -1.59301496    
  -1.32730997      -1.32730997     -0.606999993       27.2957973      -1.59301496    
  -1.56075203      -1.04286098     -0.606999993       66.8952255      -1.58386290    
  -2.16155505      -1.44430494     -0.517000020       66.8952255      -1.58386290    
  -2.40179110     -0.994853973     -0.517000020       66.8952255      -1.58386290    
  -1.73421395     -0.718334973     -0.606999993       66.8952255      -1.58386290    
  -1.73421395     -0.718334973     -0.606999993       32.7317352      -1.59167862    
  -1.26109600     -0.522363007     -0.606999993       32.7317352      -1.59167862    
  -1.13495600     -0.758352995     -0.606999993       32.7317352      -1.59167862    
  -1.56075203      -1.04286098     -0.606999993       32.7317352      -1.59167862    
  -1.73421395     -0.718334973     -0.606999993       72.5182724      -1.58394849    
  -2.40179110     -0.994853973     -0.517000020       72.5182724      -1.58394849    
  -2.54972792     -0.507171988     -0.517000020       72.5182724      -1.58394849    
  -1.84103203     -0.366203994     -0.606999993       72.5182724      -1.58394849    
  -1.84103203     -0.366203994     -0.606999993       35.3567390      -1.59156275    
  -1.33877206     -0.266297996     -0.606999993       35.3567390      -1.59156275    
  -1.26109600     -0.522363007     -0.606999993       35.3567390      -1.59156275    
  -1.73421395     -0.718334973     -0.606999993       35.3567390      -1.59156275    
  -1.84103203     -0.366203994     -0.606999993       74.6595230      -1.58415723    
  -2.54972792     -0.507171988     -0.517000020       74.6595230      -1.58415723    
  -2.59967995       0.00000000     -0.517000020       74.6595230      -1.58415723    
  -1.87709999       0.00000000     -0.606999993       74.6595230      -1.58415723    
  -1.87709999       0.00000000     -0.606999993       35.4430313      -1.59229934    
  -1.36500001       0.00000000     -0.606999993       35.4430313      -1.59229934    
  -1.33877206     -0.266297996     -0.606999993       35.4430313      -1.59229934    
  -1.84103203     -0.366203994     -0.606999993       35.4430313      -1.59229934    
  -1.87709999       0.00000000     -0.606999993       73.6373444      -1.58448911    
  -2.59967995       0.00000000     -0.517000020       73.6373444      -1.58448911    
  -2.54972792      0.507171988     -0.517000020       73.6373444      -1.58448911    
  -1.84103203      0.366203994     -0.606999993       73.6373444      -1.58448911    
  -1.84103203      0.366203994     -0.606999993       33.5465355      -1.59382904    
  -1.33877206      0.266297996     -0.606999993       33.5465355      -1.59382904    
  -1.36500001       0.00000000     -0.606999993       33.5465355      -1.59382904    
  -1.87709999       0.00000000     -0.606999993       33.5465355      -1.59382904    
  -1.84103203      0.366203994     -0.606999993       69.9036789      -1.58489799    
  -2.54972792      0.507171988     -0.517000020       69.9036789      -1.58489799    
  -2.40179110      0.994853973     -0.517000020       69.9036789      -1.58489799    
  -1.73421395      0.718334973     -0.606999993       69.9036789      -1.58489799    
  -1.73421395      0.718334973     -0.606999993       30.4977398      -1.59579527    
  -1.26109600      0.522363007     -0.606999993       30.4977398      -1.59579527    
  -1.33877206      0.266297996     -0.606999993       30.4977398      -1.59579527    
  -1.84103203      0.366203994     -0.606999993       30.4977398      -1.59579527    
  -1.73421395      0.718334973     -0.606999993       63.9027977      -1.58527040    
  -2.40179110      0.994853973     -0.517000020       63.9027977      -1.58527040    
  -2.16155505       1.44430494     -0.517000020       63.9027977      -1.58527040    
  -1.56075203       1.04286098     -0.606999993       63.9027977      -1.58527040    
  -1.56075203       1.04286098     -0.606999993       27.1356735      -1.59745932    
  -1.13495600      0.758352995     -0.606999993       27.1356735      -1.59745932    
  -1.26109600      0.522363007     -0.606999993       27.1356735      -1.59745932    
  -1.73421395      0.718334973     -0.606999993       27.1356735      -1.59745932    
  -1.56075203       1.04286098     -0.606999993       56.0574379      -1.58538651    
  -2.16155505       1.44430494     -0.517000020       56.0574379      -1.58538651    
  -1.83825099       1.83825099     -0.517000020       56.0574379      -1.58538651    
  -1.32730997       1.32730997     -0.606999993       56.0574379      -1.58538651    
  -1.32730997       1.32730997     -0.606999993       24.0848160      -1.59774995    
 -0.965201020      0.965201020     -0.606999993       24.0848160      -1.59774995    
  -1.13495600      0.758352995     -0.606999993       24.0848160      -1.59774995    
  -1.56075203       1.04286098     -0.606999993       24.0848160      -1.59774995    
  -1.32730997       1.32730997     -0.606999993       46.7837563      -1.58509767    
  -1.83825099       1.83825099     -0.517000020       46.7837563      -1.58509767    
  -1.44430494       2.16155505     -0.517000020       46.7837563      -1.58509767    
  -1.04286098       1.56075203     -0.606999993       46.7837563      -1.58509767    
  -1.04286098       1.56075203     -0.606999993       21.5613060      -1.59575403    
 -0.758352995       1.13495600     -0.606999993       21.5613060      -1.59575403    
 -0.965201020      0.965201020     -0.606999993       21.5613060      -1.59575403    
  -1.32730997       1.32730997     -0.606999993       21.5613060      -1.59575403    
  -1.04286098       1.56075203     -0.606999993       36.3196907      -1.58441675    
  -1.44430494       2.16155505     -0.517000020       36.3196907      -1.58441675    
 -0.994853973       2.40179110     -0.517000020       36.3196907      -1.58441675    
 -0.718334973       1.73421395     -0.606999993       36.3196907      -1.58441675    
 -0.718334973       1.73421395     -0.606999993       19.3623142      -1.59142315    
 -0.522363007       1.26109600     -0.606999993       19.3623142      -1.59142315    
 -0.758352995       1.13495600     -0.606999993       19.3623142      -1.59142315    
  -1.04286098       1.56075203     -0.606999993       19.3623142      -1.59142315    
 -0.718334973       1.73421395     -0.606999993       24.6849842      -1.58312416    
 -0.994853973       2.40179110     -0.517000020       24.6849842      -1.58312416    
 -0.507171988       2.54972792     -0.517000020       24.6849842      -1.58312416    
 -0.366203994       1.84103203     -0.606999993       24.6849842      -1.58312416    
 -0.366203994       1.84103203     -0.606999993       16.8013248      -1.58515298    
 -0.266297996       1.33877206     -0.606999993       16.8013248      -1.58515298    
 -0.522363007       1.26109600     -0.606999993       16.8013248      -1.58515298    
 -0.718334973       1.73421395     -0.606999993       16.8013248      -1.58515298    
 -0.366203994       1.84103203     -0.606999993       11.8207359      -1.57983243    
 -0.507171988       2.54972792     -0.517000020       11.8207359      -1.57983243    
   0.00000000       2.59967995     -0.517000020       11.8207359      -1.57983243    
   0.00000000       1.87709999     -0.606999993       11.8207359      -1.57983243    
   0.00000000       1.87709999     -0.606999993       13.1227741      -1.57701457    
   0.00000000       1.36500001     -0.606999993       13.1227741      -1.57701457    
 -0.266297996       1.33877206     -0.606999993       13.1227741      -1.57701457    
 -0.366203994       1.84103203     -0.606999993       13.1227741      -1.57701457    
   0.00000000       1.87709999     -0.606999993       2.10493040       1.52727282    
   0.00000000       2.59967995     -0.517000020       2.10493040       1.52727282    
  0.507171988       2.54972792     -0.517000020       2.10493040       1.52727282    
  0.366203994       1.84103203     -0.606999993       2.10493040       1.52727282    
  0.366203994       1.84103203     -0.606999993       7.78172207      -1.55943763    
  0.266297996       1.33877206     -0.606999993       7.78172207      -1.55943763    
   0.00000000       1.36500001     -0.606999993       7.78172207      -1.55943763    
   0.00000000       1.87709999     -0.606999993       7.78172207      -1.55943763    
  0.366203994       1.84103203     -0.606999993       16.6749229       1.55353892    
  0.507171988       2.54972792     -0.517000020       16.6749229       1.55353892    
  0.994853973       2.40179110     -0.517000020       16.6749229       1.55353892    
  0.718334973       1.73421395     -0.606999993       16.6749229       1.55353892    
  0.718334973       1.73421395     -0.606999993      0.727693677      -1.21554863    
  0.522363007       1.26109600     -0.606999993      0.727693677      -1.21554863    
  0.266297996       1.33877206     -0.606999993      0.727693677      -1.21554863    
  0.366203994       1.84103203     -0.606999993      0.727693677      -1.21554863    
  0.718334973       1.73421395     -0.606999993       31.2218990       1.55576241    
  0.994853973       2.40179110     -0.517000020       31.2218990       1.55576241    
   1.44430494       2.16155505     -0.517000020       31.2218990       1.55576241    
   1.04286098       1.56075203     -0.606999993       31.2218990       1.55576241    
   1.04286098       1.56075203     -0.606999993       7.70824957       1.52049100    
  0.758352995       1.13495600     -0.606999993       7.70824957       1.52049100    
  0.522363007       1.26109600     -0.606999993       7.70824957       1.52049100    
  0.718334973       1.73421395     -0.606999993       7.70824957       1.52049100    
   1.04286098       1.56075203     -0.606999993       44.9016075       1.55680823    
   1.44430494       2.16155505     -0.517000020       44.9016075       1.55680823    
   1.83825099       1.83825099     -0.517000020       44.9016075       1.55680823    
   1.32730997       1.32730997     -0.606999993       44.9016075       1.55680823    
   1.32730997       1.32730997     -0.606999993       16.4441795       1.53994524    
  0.965201020      0.965201020     -0.606999993       16.4441795       1.53994524    
  0.758352995       1.13495600     -0.606999993       16.4441795       1.53994524    
   1.04286098       1.56075203     -0.606999993       16.4441795       1.53994524    
   1.32730997       1.32730997     -0.606999993       56.7556152       1.55748510    
   1.83825099       1.83825099     -0.517000020       56.7556152       1.55748510    
   2.16155505       1.44430494     -0.517000020       56.7556152       1.55748510    
   1.56075203       1.04286098     -0.606999993       56.7556152       1.55748510    
   1.56075203       1.04286098     -0.606999993       24.3521156       1.54614282    
   1.13495600      0.758352995     -0.606999993       24.3521156       1.54614282    
  0.965201020      0.965201020     -0.606999993       24.3521156       1.54614282    
   1.32730997       1.32730997     -0.606999993       24.3521156       1.54614282    
   1.56075203       1.04286098     -0.606999993       65.8627548       1.55796993    
   2.16155505       1.44430494     -0.517000020       65.8627548       1.55796993    
   2.40179110      0.994853973     -0.517000020       65.8627548       1.55796993    
   1.73421395      0.718334973     -0.606999993       65.8627548       1.55796993    
   1.73421395      0.718334973     -0.606999993       30.2309933       1.54886854    
   1.26109600      0.522363007     -0.606999993       30.2309933       1.54886854    
   1.13495600      0.758352995     -0.606999993       30.2309933       1.54886854    
   1.56075203       1.04286098     -0.606999993       30.2309933       1.54886854    
   1.73421395      0.718334973     -0.606999993       71.5975723       1.55829036    
   2.40179110      0.994853973     -0.517000020       71.5975723       1.55829036    
   2.54972792      0.507171988     -0.517000020       71.5975723       1.55829036    
   1.84103203      0.366203994     -0.606999993       71.5975723       1.55829036    
   1.84103203      0.366203994     -0.606999993       33.1884079       1.54975796    
   1.33877206      0.266297996     -0.606999993       33.1884079       1.54975796    
   1.26109600      0.522363007     -0.606999993       33.1884079       1.54975796    
   1.73421395      0.718334973     -0.606999993       33.1884079       1.54975796    
   1.84103203      0.366203994     -0.606999993       73.8889847       1.55847621    
   2.54972792      0.507171988     -0.517000020       73.8889847       1.55847621    
   2.59967995       0.00000000     -0.517000020       73.8889847       1.55847621    
   1.87709999       0.00000000     -0.606999993       73.8889847       1.55847621    
   1.87709999       0.00000000     -0.606999993       33.4838638       1.54948545    
   1.36500001       0.00000000     -0.606999993       33.4838638       1.54948545    
   1.33877206      0.266297996     -0.606999993       33.4838638       1.54948545    
   1.84103203      0.366203994     -0.606999993       33.4838638       1.54948545    
   1.87709999       0.00000000     -0.606999993       73.0772171       1.55847228    
   2.59967995       0.00000000     -0.517000020       73.0772171       1.55847228    
   2.54972792     -0.507171988     -0.517000020       73.0772171       1.55847228    
   1.84103203     -0.366203994     -0.606999993       73.0772171       1.55847228    
   1.84103203     -0.366203994     -0.606999993       31.9729881       1.54845870    
   1.33877206     -0.266297996     -0.606999993       31.9729881       1.54845870    
   1.36500001       0.00000000     -0.606999993       31.9729881       1.54845870    
   1.87709999       0.00000000     -0.606999993       31.9729881       1.54845870    
   1.84103203     -0.366203994     -0.606999993       69.6182022       1.55829954    
   2.54972792     -0.507171988     -0.517000020       69.6182022       1.55829954    
   2.40179110     -0.994853973     -0.517000020       69.6182022       1.55829954    
   1.73421395     -0.718334973     -0.606999993       69.6182022       1.55829954    
   1.73421395     -0.718334973     -0.606999993       29.5521793       1.54714811    
   1.26109600     -0.522363007     -0.606999993       29.5521793       1.54714811    
   1.33877206     -0.266297996     -0.606999993       29.5521793       1.54714811    
   1.84103203     -0.366203994     -0.606999993       29.5521793       1.54714811    
   1.73421395     -0.718334973     -0.606999993       63.9606972       1.55809546    
   2.40179110     -0.994853973     -0.517000020       63.9606972       1.55809546    
   2.16155505      -1.44430494     -0.517000020       63.9606972       1.55809546    
   1.56075203      -1.04286098     -0.606999993       63.9606972       1.55809546    
   1.56075203      -1.04286098     -0.606999993       26.9934998       1.54630911    
   1.13495600     -0.758352995     -0.606999993       26.9934998       1.54630911    
   1.26109600     -0.522363007     -0.606999993       26.9934998       1.54630911    