 VARIABLES="X" "Y" "Z" "abs(p) (Pa)" "angle(p) (rad)"
ZONE N=   2709,E =    2358, F=FEPOINT, ET=QUADRILATERAL
   0.00000000      -5.48999977     -0.157000005       4512.68066      -1.26144505    
   0.00000000      -4.76741982     -0.246999994       4512.68066      -1.26144505    
  0.930077016      -4.67581606     -0.246999994       4512.68066      -1.26144505    
   1.07104599      -5.38451099     -0.157000005       4512.68066      -1.26144505    
  -1.07104599      -5.38451099     -0.157000005       4515.91309      -1.26183164    
 -0.930077016      -4.67581606     -0.246999994       4515.91309      -1.26183164    
   0.00000000      -4.76741982     -0.246999994       4515.91309      -1.26183164    
   0.00000000      -5.48999977     -0.157000005       4515.91309      -1.26183164    
  -2.10093188      -5.07209921     -0.157000005       4374.30371      -1.26610088    
  -1.82441294      -4.40452194     -0.246999994       4374.30371      -1.26610088    
 -0.930077016      -4.67581606     -0.246999994       4374.30371      -1.26610088    
  -1.07104599      -5.38451099     -0.157000005       4374.30371      -1.26610088    
  -3.05008101      -4.56476784     -0.157000005       4004.99414      -1.26223981    
  -2.64863706      -3.96396494     -0.246999994       4004.99414      -1.26223981    
  -1.82441294      -4.40452194     -0.246999994       4004.99414      -1.26223981    
  -2.10093188      -5.07209921     -0.157000005       4004.99414      -1.26223981    
  -3.88201594      -3.88201594     -0.157000005       3511.78442      -1.26232302    
  -3.37107491      -3.37107491     -0.246999994       3511.78442      -1.26232302    
  -2.64863706      -3.96396494     -0.246999994       3511.78442      -1.26232302    
  -3.05008101      -4.56476784     -0.157000005       3511.78442      -1.26232302    
  -4.56476784      -3.05008101     -0.157000005       2911.78979      -1.26814294    
  -3.96396494      -2.64863706     -0.246999994       2911.78979      -1.26814294    
  -3.37107491      -3.37107491     -0.246999994       2911.78979      -1.26814294    
  -3.88201594      -3.88201594     -0.157000005       2911.78979      -1.26814294    
  -5.07209921      -2.10093188     -0.157000005       2146.43823      -1.26367736    
  -4.40452194      -1.82441294     -0.246999994       2146.43823      -1.26367736    
  -3.96396494      -2.64863706     -0.246999994       2146.43823      -1.26367736    
  -4.56476784      -3.05008101     -0.157000005       2146.43823      -1.26367736    
  -5.38451099      -1.07104599     -0.157000005       1315.82593      -1.26162255    
  -4.67581606     -0.930077016     -0.246999994       1315.82593      -1.26162255    
  -4.40452194      -1.82441294     -0.246999994       1315.82593      -1.26162255    
  -5.07209921      -2.10093188     -0.157000005       1315.82593      -1.26162255    
  -5.48999977       0.00000000     -0.157000005       442.178802      -1.26157510    
  -4.76741982       0.00000000     -0.246999994       442.178802      -1.26157510    
  -4.67581606     -0.930077016     -0.246999994       442.178802      -1.26157510    
  -5.38451099      -1.07104599     -0.157000005       442.178802      -1.26157510    
  -5.38451099       1.07104599     -0.157000005       456.155365       1.86956167    
  -4.67581606      0.930077016     -0.246999994       456.155365       1.86956167    
  -4.76741982       0.00000000     -0.246999994       456.155365       1.86956167    
  -5.48999977       0.00000000     -0.157000005       456.155365       1.86956167    
  -5.07209921       2.10093188     -0.157000005       1338.00732       1.87282884    
  -4.40452194       1.82441294     -0.246999994       1338.00732       1.87282884    
  -4.67581606      0.930077016     -0.246999994       1338.00732       1.87282884    
  -5.38451099       1.07104599     -0.157000005       1338.00732       1.87282884    
  -4.56476784       3.05008101     -0.157000005       2166.44849       1.87429166    
  -3.96396494       2.64863706     -0.246999994       2166.44849       1.87429166    
  -4.40452194       1.82441294     -0.246999994       2166.44849       1.87429166    
  -5.07209921       2.10093188     -0.157000005       2166.44849       1.87429166    
  -3.88201594       3.88201594     -0.157000005       2891.59985       1.87899566    
  -3.37107491       3.37107491     -0.246999994       2891.59985       1.87899566    
  -3.96396494       2.64863706     -0.246999994       2891.59985       1.87899566    
  -4.56476784       3.05008101     -0.157000005       2891.59985       1.87899566    
  -3.05008101       4.56476784     -0.157000005       3543.65698       1.87551630    
  -2.64863706       3.96396494     -0.246999994       3543.65698       1.87551630    
  -3.37107491       3.37107491     -0.246999994       3543.65698       1.87551630    
  -3.88201594       3.88201594     -0.157000005       3543.65698       1.87551630    
  -2.10093188       5.07209921     -0.157000005       4014.32617       1.87947536    
  -1.82441294       4.40452194     -0.246999994       4014.32617       1.87947536    
  -2.64863706       3.96396494     -0.246999994       4014.32617       1.87947536    
  -3.05008101       4.56476784     -0.157000005       4014.32617       1.87947536    
  -1.07104599       5.38451099     -0.157000005       4381.94336       1.87596834    
 -0.930077016       4.67581606     -0.246999994       4381.94336       1.87596834    
  -1.82441294       4.40452194     -0.246999994       4381.94336       1.87596834    
  -2.10093188       5.07209921     -0.157000005       4381.94336       1.87596834    
   0.00000000       5.48999977     -0.157000005       4527.56396       1.87983203    
   0.00000000       4.76741982     -0.246999994       4527.56396       1.87983203    
 -0.930077016       4.67581606     -0.246999994       4527.56396       1.87983203    
  -1.07104599       5.38451099     -0.157000005       4527.56396       1.87983203    
   1.07104599       5.38451099     -0.157000005       4555.18066       1.87633455    
  0.930077016       4.67581606     -0.246999994       4555.18066       1.87633455    
   0.00000000       4.76741982     -0.246999994       4555.18066       1.87633455    
   0.00000000       5.48999977     -0.157000005       4555.18066       1.87633455    
   2.10093188       5.07209921     -0.157000005       4350.30713       1.88043654    
   1.82441294       4.40452194     -0.246999994       4350.30713       1.88043654    
  0.930077016       4.67581606     -0.246999994       4350.30713       1.88043654    
   1.07104599       5.38451099     -0.157000005       4350.30713       1.88043654    
   3.05008101       4.56476784     -0.157000005       4009.20264       1.88060296    
   2.64863706       3.96396494     -0.246999994       4009.20264       1.88060296    
   1.82441294       4.40452194     -0.246999994       4009.20264       1.88060296    
   2.10093188       5.07209921     -0.157000005       4009.20264       1.88060296    
   3.88201594       3.88201594     -0.157000005       3545.56177       1.87570179    
   3.37107491       3.37107491     -0.246999994       3545.56177       1.87570179    
   2.64863706       3.96396494     -0.246999994       3545.56177       1.87570179    
   3.05008101       4.56476784     -0.157000005       3545.56177       1.87570179    
   4.56476784       3.05008101     -0.157000005       2910.45264       1.87593210    
   3.96396494       2.64863706     -0.246999994       2910.45264       1.87593210    
   3.37107491       3.37107491     -0.246999994       2910.45264       1.87593210    
   3.88201594       3.88201594     -0.157000005       2910.45264       1.87593210    
   5.07209921       2.10093188     -0.157000005       2168.48779       1.87470925    
   4.40452194       1.82441294     -0.246999994       2168.48779       1.87470925    
   3.96396494       2.64863706     -0.246999994       2168.48779       1.87470925    
   4.56476784       3.05008101     -0.157000005       2168.48779       1.87470925    
   5.38451099       1.07104599     -0.157000005       1323.31372       1.88090205    
   4.67581606      0.930077016     -0.246999994       1323.31372       1.88090205    
   4.40452194       1.82441294     -0.246999994       1323.31372       1.88090205    
   5.07209921       2.10093188     -0.157000005       1323.31372       1.88090205    
   5.48999977       0.00000000     -0.157000005       445.040405       1.88858378    
   4.76741982       0.00000000     -0.246999994       445.040405       1.88858378    
   4.67581606      0.930077016     -0.246999994       445.040405       1.88858378    
   5.38451099       1.07104599     -0.157000005       445.040405       1.88858378    
   5.38451099      -1.07104599     -0.157000005       446.023102      -1.27084303    
   4.67581606     -0.930077016     -0.246999994       446.023102      -1.27084303    
   4.76741982       0.00000000     -0.246999994       446.023102      -1.27084303    
   5.48999977       0.00000000     -0.157000005       446.023102      -1.27084303    
   5.07209921      -2.10093188     -0.157000005       1319.32227      -1.26454270    
   4.40452194      -1.82441294     -0.246999994       1319.32227      -1.26454270    
   4.67581606     -0.930077016     -0.246999994       1319.32227      -1.26454270    
   5.38451099      -1.07104599     -0.157000005       1319.32227      -1.26454270    
   4.56476784      -3.05008101     -0.157000005       2141.97852      -1.26320839    
   3.96396494      -2.64863706     -0.246999994       2141.97852      -1.26320839    
   4.40452194      -1.82441294     -0.246999994       2141.97852      -1.26320839    
   5.07209921      -2.10093188     -0.157000005       2141.97852      -1.26320839    
   3.88201594      -3.88201594     -0.157000005       2884.26147      -1.26311946    
   3.37107491      -3.37107491     -0.246999994       2884.26147      -1.26311946    
   3.96396494      -2.64863706     -0.246999994       2884.26147      -1.26311946    
   4.56476784      -3.05008101     -0.157000005       2884.26147      -1.26311946    
   3.05008101      -4.56476784     -0.157000005       3537.94067      -1.26694918    
   2.64863706      -3.96396494     -0.246999994       3537.94067      -1.26694918    
   3.37107491      -3.37107491     -0.246999994       3537.94067      -1.26694918    
   3.88201594      -3.88201594     -0.157000005       3537.94067      -1.26694918    
   2.10093188      -5.07209921     -0.157000005       4004.64429      -1.26238799    
   1.82441294      -4.40452194     -0.246999994       4004.64429      -1.26238799    
   2.64863706      -3.96396494     -0.246999994       4004.64429      -1.26238799    
   3.05008101      -4.56476784     -0.157000005       4004.64429      -1.26238799    
   1.07104599      -5.38451099     -0.157000005       4339.72559      -1.26156878    
  0.930077016      -4.67581606     -0.246999994       4339.72559      -1.26156878    
   1.82441294      -4.40452194     -0.246999994       4339.72559      -1.26156878    
   2.10093188      -5.07209921     -0.157000005       4339.72559      -1.26156878    
   0.00000000      -1.87709999     -0.606999993       3190.99976      -1.47235692    
   0.00000000      -1.36500001     -0.606999993       3190.99976      -1.47235692    
  0.266297996      -1.33877206     -0.606999993       3190.99976      -1.47235692    
  0.366203994      -1.84103203     -0.606999993       3190.99976      -1.47235692    
   0.00000000      -1.87709999     -0.606999993       3860.63745      -1.45800841    
   0.00000000      -2.59967995     -0.517000020       3860.63745      -1.45800841    
 -0.507171988      -2.54972792     -0.517000020       3860.63745      -1.45800841    
 -0.366203994      -1.84103203     -0.606999993       3860.63745      -1.45800841    
 -0.366203994      -1.84103203     -0.606999993       3192.81177      -1.47232580    
 -0.266297996      -1.33877206     -0.606999993       3192.81177      -1.47232580    
   0.00000000      -1.36500001     -0.606999993       3192.81177      -1.47232580    
   0.00000000      -1.87709999     -0.606999993       3192.81177      -1.47232580    
 -0.366203994      -1.84103203     -0.606999993       3703.14453      -1.45753098    
 -0.507171988      -2.54972792     -0.517000020       3703.14453      -1.45753098    
 -0.994853973      -2.40179110     -0.517000020       3703.14453      -1.45753098    
 -0.718334973      -1.73421395     -0.606999993       3703.14453      -1.45753098    
 -0.718334973      -1.73421395     -0.606999993       3067.71606      -1.47191048    
 -0.522363007      -1.26109600     -0.606999993       3067.71606      -1.47191048    
 -0.266297996      -1.33877206     -0.606999993       3067.71606      -1.47191048    
 -0.366203994      -1.84103203     -0.606999993       3067.71606      -1.47191048    
 -0.718334973      -1.73421395     -0.606999993       3405.95825      -1.45685744    
 -0.994853973      -2.40179110     -0.517000020       3405.95825      -1.45685744    
  -1.44430494      -2.16155505     -0.517000020       3405.95825      -1.45685744    
  -1.04286098      -1.56075203     -0.606999993       3405.95825      -1.45685744    
  -1.04286098      -1.56075203     -0.606999993       2825.49536      -1.47133517    
 -0.758352995      -1.13495600     -0.606999993       2825.49536      -1.47133517    
 -0.522363007      -1.26109600     -0.606999993       2825.49536      -1.47133517    
 -0.718334973      -1.73421395     -0.606999993       2825.49536      -1.47133517    
  -1.04286098      -1.56075203     -0.606999993       2987.59985      -1.45638478    
  -1.44430494      -2.16155505     -0.517000020       2987.59985      -1.45638478    
  -1.83825099      -1.83825099     -0.517000020       2987.59985      -1.45638478    
  -1.32730997      -1.32730997     -0.606999993       2987.59985      -1.45638478    
  -1.32730997      -1.32730997     -0.606999993       2478.46509      -1.47087836    
 -0.965201020     -0.965201020     -0.606999993       2478.46509      -1.47087836    
 -0.758352995      -1.13495600     -0.606999993       2478.46509      -1.47087836    
  -1.04286098      -1.56075203     -0.606999993       2478.46509      -1.47087836    
  -1.32730997      -1.32730997     -0.606999993       2458.68701      -1.45643711    
  -1.83825099      -1.83825099     -0.517000020       2458.68701      -1.45643711    
  -2.16155505      -1.44430494     -0.517000020       2458.68701      -1.45643711    
  -1.56075203      -1.04286098     -0.606999993       2458.68701      -1.45643711    
  -1.56075203      -1.04286098     -0.606999993       2038.00610      -1.47078168    
  -1.13495600     -0.758352995     -0.606999993       2038.00610      -1.47078168    
 -0.965201020     -0.965201020     -0.606999993       2038.00610      -1.47078168    
  -1.32730997      -1.32730997     -0.606999993       2038.00610      -1.47078168    
  -1.56075203      -1.04286098     -0.606999993       1830.58167      -1.45713866    
  -2.16155505      -1.44430494     -0.517000020       1830.58167      -1.45713866    
  -2.40179110     -0.994853973     -0.517000020       1830.58167      -1.45713866    
  -1.73421395     -0.718334973     -0.606999993       1830.58167      -1.45713866    
  -1.73421395     -0.718334973     -0.606999993       1517.07092      -1.47107518    
  -1.26109600     -0.522363007     -0.606999993       1517.07092      -1.47107518    
  -1.13495600     -0.758352995     -0.606999993       1517.07092      -1.47107518    
  -1.56075203      -1.04286098     -0.606999993       1517.07092      -1.47107518    
  -1.73421395     -0.718334973     -0.606999993       1125.66626      -1.45809484    
  -2.40179110     -0.994853973     -0.517000020       1125.66626      -1.45809484    
  -2.54972792     -0.507171988     -0.517000020       1125.66626      -1.45809484    
  -1.84103203     -0.366203994     -0.606999993       1125.66626      -1.45809484    
  -1.84103203     -0.366203994     -0.606999993       934.369507      -1.47136307    
  -1.33877206     -0.266297996     -0.606999993       934.369507      -1.47136307    
  -1.26109600     -0.522363007     -0.606999993       934.369507      -1.47136307    
  -1.73421395     -0.718334973     -0.606999993       934.369507      -1.47136307    
  -1.84103203     -0.366203994     -0.606999993       376.871338      -1.45826709    
  -2.54972792     -0.507171988     -0.517000020       376.871338      -1.45826709    
  -2.59967995       0.00000000     -0.517000020       376.871338      -1.45826709    
  -1.87709999       0.00000000     -0.606999993       376.871338      -1.45826709    
  -1.87709999       0.00000000     -0.606999993       314.154358      -1.46982157    
  -1.36500001       0.00000000     -0.606999993       314.154358      -1.46982157    
  -1.33877206     -0.266297996     -0.606999993       314.154358      -1.46982157    
  -1.84103203     -0.366203994     -0.606999993       314.154358      -1.46982157    
  -1.87709999       0.00000000     -0.606999993       384.640015       1.68080389    
  -2.59967995       0.00000000     -0.517000020       384.640015       1.68080389    
  -2.54972792      0.507171988     -0.517000020       384.640015       1.68080389    
  -1.84103203      0.366203994     -0.606999993       384.640015       1.68080389    
  -1.84103203      0.366203994     -0.606999993       318.303162       1.66521120    
  -1.33877206      0.266297996     -0.606999993       318.303162       1.66521120    
  -1.36500001       0.00000000     -0.606999993       318.303162       1.66521120    
  -1.87709999       0.00000000     -0.606999993       318.303162       1.66521120    
  -1.84103203      0.366203994     -0.606999993       1133.27307       1.68216825    
  -2.54972792      0.507171988     -0.517000020       1133.27307       1.68216825    
  -2.40179110      0.994853973     -0.517000020       1133.27307       1.68216825    
  -1.73421395      0.718334973     -0.606999993       1133.27307       1.68216825    
  -1.73421395      0.718334973     -0.606999993       938.701599       1.66765928    
  -1.26109600      0.522363007     -0.606999993       938.701599       1.66765928    
  -1.33877206      0.266297996     -0.606999993       938.701599       1.66765928    
  -1.84103203      0.366203994     -0.606999993       938.701599       1.66765928    
  -1.73421395      0.718334973     -0.606999993       1839.64807       1.68335652    
  -2.40179110      0.994853973     -0.517000020       1839.64807       1.68335652    
  -2.16155505       1.44430494     -0.517000020       1839.64807       1.68335652    
  -1.56075203       1.04286098     -0.606999993       1839.64807       1.68335652    
  -1.56075203       1.04286098     -0.606999993       1522.44189       1.66869354    
  -1.13495600      0.758352995     -0.606999993       1522.44189       1.66869354    
  -1.26109600      0.522363007     -0.606999993       1522.44189       1.66869354    
  -1.73421395      0.718334973     -0.606999993       1522.44189       1.66869354    
  -1.56075203       1.04286098     -0.606999993       2470.30737       1.68436146    
  -2.16155505       1.44430494     -0.517000020       2470.30737       1.68436146    
  -1.83825099       1.83825099     -0.517000020       2470.30737       1.68436146    
  -1.32730997       1.32730997     -0.606999993       2470.30737       1.68436146    
  -1.32730997       1.32730997     -0.606999993       2045.36682       1.66942358    
 -0.965201020      0.965201020     -0.606999993       2045.36682       1.66942358    
  -1.13495600      0.758352995     -0.606999993       2045.36682       1.66942358    
  -1.56075203       1.04286098     -0.606999993       2045.36682       1.66942358    
  -1.32730997       1.32730997     -0.606999993       3000.93286       1.68475711    
  -1.83825099       1.83825099     -0.517000020       3000.93286       1.68475711    
  -1.44430494       2.16155505     -0.517000020       3000.93286       1.68475711    
  -1.04286098       1.56075203     -0.606999993       3000.93286       1.68475711    
  -1.04286098       1.56075203     -0.606999993       2488.13721       1.66972125    
 -0.758352995       1.13495600     -0.606999993       2488.13721       1.66972125    
 -0.965201020      0.965201020     -0.606999993       2488.13721       1.66972125    
  -1.32730997       1.32730997     -0.606999993       2488.13721       1.66972125    
  -1.04286098       1.56075203     -0.606999993       3419.74072       1.68454540    
  -1.44430494       2.16155505     -0.517000020       3419.74072       1.68454540    
 -0.994853973       2.40179110     -0.517000020       3419.74072       1.68454540    
 -0.718334973       1.73421395     -0.606999993       3419.74072       1.68454540    
 -0.718334973       1.73421395     -0.606999993       2837.37646       1.66960013    
 -0.522363007       1.26109600     -0.606999993       2837.37646       1.66960013    
 -0.758352995       1.13495600     -0.606999993       2837.37646       1.66960013    
  -1.04286098       1.56075203     -0.606999993       2837.37646       1.66960013    
 -0.718334973       1.73421395     -0.606999993       3716.91455       1.68402576    
 -0.994853973       2.40179110     -0.517000020       3716.91455       1.68402576    
 -0.507171988       2.54972792     -0.517000020       3716.91455       1.68402576    
 -0.366203994       1.84103203     -0.606999993       3716.91455       1.68402576    
 -0.366203994       1.84103203     -0.606999993       3081.71680       1.66925275    
 -0.266297996       1.33877206     -0.606999993       3081.71680       1.66925275    
 -0.522363007       1.26109600     -0.606999993       3081.71680       1.66925275    
 -0.718334973       1.73421395     -0.606999993       3081.71680       1.66925275    
 -0.366203994       1.84103203     -0.606999993       3874.84692       1.68362439    
 -0.507171988       2.54972792     -0.517000020       3874.84692       1.68362439    
   0.00000000       2.59967995     -0.517000020       3874.84692       1.68362439    
   0.00000000       1.87709999     -0.606999993       3874.84692       1.68362439    
   0.00000000       1.87709999     -0.606999993       3208.98486       1.66898429    
   0.00000000       1.36500001     -0.606999993       3208.98486       1.66898429    
 -0.266297996       1.33877206     -0.606999993       3208.98486       1.66898429    
 -0.366203994       1.84103203     -0.606999993       3208.98486       1.66898429    
   0.00000000       1.87709999     -0.606999993       3875.10962       1.68364215    
   0.00000000       2.59967995     -0.517000020       3875.10962       1.68364215    
  0.507171988       2.54972792     -0.517000020       3875.10962       1.68364215    
  0.366203994       1.84103203     -0.606999993       3875.10962       1.68364215    
  0.366203994       1.84103203     -0.606999993       3209.55151       1.66901100    
  0.266297996       1.33877206     -0.606999993       3209.55151       1.66901100    
   0.00000000       1.36500001     -0.606999993       3209.55151       1.66901100    
   0.00000000       1.87709999     -0.606999993       3209.55151       1.66901100    
  0.366203994       1.84103203     -0.606999993       3717.69043       1.68407750    
  0.507171988       2.54972792     -0.517000020       3717.69043       1.68407750    
  0.994853973       2.40179110     -0.517000020       3717.69043       1.68407750    
  0.718334973       1.73421395     -0.606999993       3717.69043       1.68407750    
  0.718334973       1.73421395     -0.606999993       3083.51440       1.66933477    
  0.522363007       1.26109600     -0.606999993       3083.51440       1.66933477    
  0.266297996       1.33877206     -0.606999993       3083.51440       1.66933477    
  0.366203994       1.84103203     -0.606999993       3083.51440       1.66933477    
  0.718334973       1.73421395     -0.606999993       3421.17334       1.68462431    
  0.994853973       2.40179110     -0.517000020       3421.17334       1.68462431    
   1.44430494       2.16155505     -0.517000020       3421.17334       1.68462431    
   1.04286098       1.56075203     -0.606999993       3421.17334       1.68462431    
   1.04286098       1.56075203     -0.606999993       2840.59888       1.66972351    
  0.758352995       1.13495600     -0.606999993       2840.59888       1.66972351    
  0.522363007       1.26109600     -0.606999993       2840.59888       1.66972351    
  0.718334973       1.73421395     -0.606999993       2840.59888       1.66972351    
   1.04286098       1.56075203     -0.606999993       3003.09424       1.68486702    
   1.44430494       2.16155505     -0.517000020       3003.09424       1.68486702    
   1.83825099       1.83825099     -0.517000020       3003.09424       1.68486702    
   1.32730997       1.32730997     -0.606999993       3003.09424       1.68486702    
   1.32730997       1.32730997     -0.606999993       2492.85229       1.66991878    
  0.965201020      0.965201020     -0.606999993       2492.85229       1.66991878    
  0.758352995       1.13495600     -0.606999993       2492.85229       1.66991878    
   1.04286098       1.56075203     -0.606999993       2492.85229       1.66991878    
   1.32730997       1.32730997     -0.606999993       2473.22119       1.68451607    
   1.83825099       1.83825099     -0.517000020       2473.22119       1.68451607    
   2.16155505       1.44430494     -0.517000020       2473.22119       1.68451607    
   1.56075203       1.04286098     -0.606999993       2473.22119       1.68451607    
   1.56075203       1.04286098     -0.606999993       2051.64795       1.66971862    
   1.13495600      0.758352995     -0.606999993       2051.64795       1.66971862    
  0.965201020      0.965201020     -0.606999993       2051.64795       1.66971862    
   1.32730997       1.32730997     -0.606999993       2051.64795       1.66971862    
   1.56075203       1.04286098     -0.606999993       1843.22925       1.68361139    
   2.16155505       1.44430494     -0.517000020       1843.22925       1.68361139    
   2.40179110      0.994853973     -0.517000020       1843.22925       1.68361139    
   1.73421395      0.718334973     -0.606999993       1843.22925       1.68361139    
   1.73421395      0.718334973     -0.606999993       1530.24976       1.66917372    
   1.26109600      0.522363007     -0.606999993       1530.24976       1.66917372    
   1.13495600      0.758352995     -0.606999993       1530.24976       1.66917372    
   1.56075203       1.04286098     -0.606999993       1530.24976       1.66917372    
   1.73421395      0.718334973     -0.606999993       1137.34070       1.68266511    
   2.40179110      0.994853973     -0.517000020       1137.34070       1.68266511    
   2.54972792      0.507171988     -0.517000020       1137.34070       1.68266511    
   1.84103203      0.366203994     -0.606999993       1137.34070       1.68266511    
   1.84103203      0.366203994     -0.606999993       947.858154       1.66854990    
   1.33877206      0.266297996     -0.606999993       947.858154       1.66854990    
   1.26109600      0.522363007     -0.606999993       947.858154       1.66854990    
   1.73421395      0.718334973     -0.606999993       947.858154       1.66854990    
   1.84103203      0.366203994     -0.606999993       389.195343       1.68234491    
   2.54972792      0.507171988     -0.517000020       389.195343       1.68234491    
   2.59967995       0.00000000     -0.517000020       389.195343       1.68234491    
   1.87709999       0.00000000     -0.606999993       389.195343       1.68234491    
   1.87709999       0.00000000     -0.606999993       328.628998       1.66803861    
   1.36500001       0.00000000     -0.606999993       328.628998       1.66803861    
   1.33877206      0.266297996     -0.606999993       328.628998       1.66803861    
   1.84103203      0.366203994     -0.606999993       328.628998       1.66803861    
   1.87709999       0.00000000     -0.606999993       371.846222      -1.45978773    
   2.59967995       0.00000000     -0.517000020       371.846222      -1.45978773    
   2.54972792     -0.507171988     -0.517000020       371.846222      -1.45978773    
   1.84103203     -0.366203994     -0.606999993       371.846222      -1.45978773    
   1.84103203     -0.366203994     -0.606999993       302.837097      -1.47269773    
   1.33877206     -0.266297996     -0.606999993       302.837097      -1.47269773    
   1.36500001       0.00000000     -0.606999993       302.837097      -1.47269773    
   1.87709999       0.00000000     -0.606999993       302.837097      -1.47269773    
   1.84103203     -0.366203994     -0.606999993       1120.24023      -1.45853579    
   2.54972792     -0.507171988     -0.517000020       1120.24023      -1.45853579    
   2.40179110     -0.994853973     -0.517000020       1120.24023      -1.45853579    
   1.73421395     -0.718334973     -0.606999993       1120.24023      -1.45853579    
   1.73421395     -0.718334973     -0.606999993       922.368042      -1.47229040    
   1.26109600     -0.522363007     -0.606999993       922.368042      -1.47229040    
   1.33877206     -0.266297996     -0.606999993       922.368042      -1.47229040    
   1.84103203     -0.366203994     -0.606999993       922.368042      -1.47229040    
   1.73421395     -0.718334973     -0.606999993       1824.91052      -1.45734990    
   2.40179110     -0.994853973     -0.517000020       1824.91052      -1.45734990    
   2.16155505      -1.44430494     -0.517000020       1824.91052      -1.45734990    
   1.56075203      -1.04286098     -0.606999993       1824.91052      -1.45734990    
   1.56075203      -1.04286098     -0.606999993       1504.80212      -1.47159934    
   1.13495600     -0.758352995     -0.606999993       1504.80212      -1.47159934    
   1.26109600     -0.522363007     -0.606999993       1504.80212      -1.47159934    