 VARIABLES="X" "Y" "Z" "abs(p) (Pa)" "angle(p) (rad)"
ZONE N=   2709,E =    2358, F=FEPOINT, ET=QUADRILATERAL
   0.00000000      -5.48999977     -0.157000005       5.08545208      -1.51428926    
   0.00000000      -4.76741982     -0.246999994       5.08545208      -1.51428926    
  0.930077016      -4.67581606     -0.246999994       5.08545208      -1.51428926    
   1.07104599      -5.38451099     -0.157000005       5.08545208      -1.51428926    
  -1.07104599      -5.38451099     -0.157000005       5.10123777       1.63932621    
 -0.930077016      -4.67581606     -0.246999994       5.10123777       1.63932621    
   0.00000000      -4.76741982     -0.246999994       5.10123777       1.63932621    
   0.00000000      -5.48999977     -0.157000005       5.10123777       1.63932621    
  -2.10093188      -5.07209921     -0.157000005       14.9443808       1.63744676    
  -1.82441294      -4.40452194     -0.246999994       14.9443808       1.63744676    
 -0.930077016      -4.67581606     -0.246999994       14.9443808       1.63744676    
  -1.07104599      -5.38451099     -0.157000005       14.9443808       1.63744676    
  -3.05008101      -4.56476784     -0.157000005       22.4517975       1.62827575    
  -2.64863706      -3.96396494     -0.246999994       22.4517975       1.62827575    
  -1.82441294      -4.40452194     -0.246999994       22.4517975       1.62827575    
  -2.10093188      -5.07209921     -0.157000005       22.4517975       1.62827575    
  -3.88201594      -3.88201594     -0.157000005       30.5950241       1.62147403    
  -3.37107491      -3.37107491     -0.246999994       30.5950241       1.62147403    
  -2.64863706      -3.96396494     -0.246999994       30.5950241       1.62147403    
  -3.05008101      -4.56476784     -0.157000005       30.5950241       1.62147403    
  -4.56476784      -3.05008101     -0.157000005       38.3834953       1.62509370    
  -3.96396494      -2.64863706     -0.246999994       38.3834953       1.62509370    
  -3.37107491      -3.37107491     -0.246999994       38.3834953       1.62509370    
  -3.88201594      -3.88201594     -0.157000005       38.3834953       1.62509370    
  -5.07209921      -2.10093188     -0.157000005       43.9372597       1.61975002    
  -4.40452194      -1.82441294     -0.246999994       43.9372597       1.61975002    
  -3.96396494      -2.64863706     -0.246999994       43.9372597       1.61975002    
  -4.56476784      -3.05008101     -0.157000005       43.9372597       1.61975002    
  -5.38451099      -1.07104599     -0.157000005       47.5710945       1.62256920    
  -4.67581606     -0.930077016     -0.246999994       47.5710945       1.62256920    
  -4.40452194      -1.82441294     -0.246999994       47.5710945       1.62256920    
  -5.07209921      -2.10093188     -0.157000005       47.5710945       1.62256920    
  -5.48999977       0.00000000     -0.157000005       48.1401787       1.63004243    
  -4.76741982       0.00000000     -0.246999994       48.1401787       1.63004243    
  -4.67581606     -0.930077016     -0.246999994       48.1401787       1.63004243    
  -5.38451099      -1.07104599     -0.157000005       48.1401787       1.63004243    
  -5.38451099       1.07104599     -0.157000005       48.2290306       1.62926519    
  -4.67581606      0.930077016     -0.246999994       48.2290306       1.62926519    
  -4.76741982       0.00000000     -0.246999994       48.2290306       1.62926519    
  -5.48999977       0.00000000     -0.157000005       48.2290306       1.62926519    
  -5.07209921       2.10093188     -0.157000005       48.1189156       1.62502539    
  -4.40452194       1.82441294     -0.246999994       48.1189156       1.62502539    
  -4.67581606      0.930077016     -0.246999994       48.1189156       1.62502539    
  -5.38451099       1.07104599     -0.157000005       48.1189156       1.62502539    
  -4.56476784       3.05008101     -0.157000005       44.6306381       1.62220061    
  -3.96396494       2.64863706     -0.246999994       44.6306381       1.62220061    
  -4.40452194       1.82441294     -0.246999994       44.6306381       1.62220061    
  -5.07209921       2.10093188     -0.157000005       44.6306381       1.62220061    
  -3.88201594       3.88201594     -0.157000005       38.5433121       1.61706126    
  -3.37107491       3.37107491     -0.246999994       38.5433121       1.61706126    
  -3.96396494       2.64863706     -0.246999994       38.5433121       1.61706126    
  -4.56476784       3.05008101     -0.157000005       38.5433121       1.61706126    
  -3.05008101       4.56476784     -0.157000005       31.0261135       1.62667882    
  -2.64863706       3.96396494     -0.246999994       31.0261135       1.62667882    
  -3.37107491       3.37107491     -0.246999994       31.0261135       1.62667882    
  -3.88201594       3.88201594     -0.157000005       31.0261135       1.62667882    
  -2.10093188       5.07209921     -0.157000005       22.5456238       1.62573791    
  -1.82441294       4.40452194     -0.246999994       22.5456238       1.62573791    
  -2.64863706       3.96396494     -0.246999994       22.5456238       1.62573791    
  -3.05008101       4.56476784     -0.157000005       22.5456238       1.62573791    
  -1.07104599       5.38451099     -0.157000005       14.8454065       1.62941813    
 -0.930077016       4.67581606     -0.246999994       14.8454065       1.62941813    
  -1.82441294       4.40452194     -0.246999994       14.8454065       1.62941813    
  -2.10093188       5.07209921     -0.157000005       14.8454065       1.62941813    
   0.00000000       5.48999977     -0.157000005       5.10399580       1.62796569    
   0.00000000       4.76741982     -0.246999994       5.10399580       1.62796569    
 -0.930077016       4.67581606     -0.246999994       5.10399580       1.62796569    
  -1.07104599       5.38451099     -0.157000005       5.10399580       1.62796569    
   1.07104599       5.38451099     -0.157000005       5.24506950      -1.49682462    
  0.930077016       4.67581606     -0.246999994       5.24506950      -1.49682462    
   0.00000000       4.76741982     -0.246999994       5.24506950      -1.49682462    
   0.00000000       5.48999977     -0.157000005       5.24506950      -1.49682462    
   2.10093188       5.07209921     -0.157000005       14.8104086      -1.50894701    
   1.82441294       4.40452194     -0.246999994       14.8104086      -1.50894701    
  0.930077016       4.67581606     -0.246999994       14.8104086      -1.50894701    
   1.07104599       5.38451099     -0.157000005       14.8104086      -1.50894701    
   3.05008101       4.56476784     -0.157000005       22.5846786      -1.51418364    
   2.64863706       3.96396494     -0.246999994       22.5846786      -1.51418364    
   1.82441294       4.40452194     -0.246999994       22.5846786      -1.51418364    
   2.10093188       5.07209921     -0.157000005       22.5846786      -1.51418364    
   3.88201594       3.88201594     -0.157000005       31.1013241      -1.51515436    
   3.37107491       3.37107491     -0.246999994       31.1013241      -1.51515436    
   2.64863706       3.96396494     -0.246999994       31.1013241      -1.51515436    
   3.05008101       4.56476784     -0.157000005       31.1013241      -1.51515436    
   4.56476784       3.05008101     -0.157000005       38.8819313      -1.51681733    
   3.96396494       2.64863706     -0.246999994       38.8819313      -1.51681733    
   3.37107491       3.37107491     -0.246999994       38.8819313      -1.51681733    
   3.88201594       3.88201594     -0.157000005       38.8819313      -1.51681733    
   5.07209921       2.10093188     -0.157000005       44.7808342      -1.52013350    
   4.40452194       1.82441294     -0.246999994       44.7808342      -1.52013350    
   3.96396494       2.64863706     -0.246999994       44.7808342      -1.52013350    
   4.56476784       3.05008101     -0.157000005       44.7808342      -1.52013350    
   5.38451099       1.07104599     -0.157000005       47.8356361      -1.51790881    
   4.67581606      0.930077016     -0.246999994       47.8356361      -1.51790881    
   4.40452194       1.82441294     -0.246999994       47.8356361      -1.51790881    
   5.07209921       2.10093188     -0.157000005       47.8356361      -1.51790881    
   5.48999977       0.00000000     -0.157000005       48.0132370      -1.51474535    
   4.76741982       0.00000000     -0.246999994       48.0132370      -1.51474535    
   4.67581606      0.930077016     -0.246999994       48.0132370      -1.51474535    
   5.38451099       1.07104599     -0.157000005       48.0132370      -1.51474535    
   5.38451099      -1.07104599     -0.157000005       47.8769112      -1.51552224    
   4.67581606     -0.930077016     -0.246999994       47.8769112      -1.51552224    
   4.76741982       0.00000000     -0.246999994       47.8769112      -1.51552224    
   5.48999977       0.00000000     -0.157000005       47.8769112      -1.51552224    
   5.07209921      -2.10093188     -0.157000005       47.5779266      -1.51895499    
   4.40452194      -1.82441294     -0.246999994       47.5779266      -1.51895499    
   4.67581606     -0.930077016     -0.246999994       47.5779266      -1.51895499    
   5.38451099      -1.07104599     -0.157000005       47.5779266      -1.51895499    
   4.56476784      -3.05008101     -0.157000005       43.9284286      -1.52164507    
   3.96396494      -2.64863706     -0.246999994       43.9284286      -1.52164507    
   4.40452194      -1.82441294     -0.246999994       43.9284286      -1.52164507    
   5.07209921      -2.10093188     -0.157000005       43.9284286      -1.52164507    
   3.88201594      -3.88201594     -0.157000005       38.0584831      -1.52273440    
   3.37107491      -3.37107491     -0.246999994       38.0584831      -1.52273440    
   3.96396494      -2.64863706     -0.246999994       38.0584831      -1.52273440    
   4.56476784      -3.05008101     -0.157000005       38.0584831      -1.52273440    
   3.05008101      -4.56476784     -0.157000005       30.7329655      -1.51628590    
   2.64863706      -3.96396494     -0.246999994       30.7329655      -1.51628590    
   3.37107491      -3.37107491     -0.246999994       30.7329655      -1.51628590    
   3.88201594      -3.88201594     -0.157000005       30.7329655      -1.51628590    
   2.10093188      -5.07209921     -0.157000005       22.4582176      -1.51680624    
   1.82441294      -4.40452194     -0.246999994       22.4582176      -1.51680624    
   2.64863706      -3.96396494     -0.246999994       22.4582176      -1.51680624    
   3.05008101      -4.56476784     -0.157000005       22.4582176      -1.51680624    
   1.07104599      -5.38451099     -0.157000005       14.7839279      -1.51270366    
  0.930077016      -4.67581606     -0.246999994       14.7839279      -1.51270366    
   1.82441294      -4.40452194     -0.246999994       14.7839279      -1.51270366    
   2.10093188      -5.07209921     -0.157000005       14.7839279      -1.51270366    
   0.00000000      -1.87709999     -0.606999993       74.0766373      -1.55872285    
   0.00000000      -1.36500001     -0.606999993       74.0766373      -1.55872285    
  0.266297996      -1.33877206     -0.606999993       74.0766373      -1.55872285    
  0.366203994      -1.84103203     -0.606999993       74.0766373      -1.55872285    
   0.00000000      -1.87709999     -0.606999993       80.5157089      -1.57108450    
   0.00000000      -2.59967995     -0.517000020       80.5157089      -1.57108450    
 -0.507171988      -2.54972792     -0.517000020       80.5157089      -1.57108450    
 -0.366203994      -1.84103203     -0.606999993       80.5157089      -1.57108450    
 -0.366203994      -1.84103203     -0.606999993       130.122864       1.57849324    
 -0.266297996      -1.33877206     -0.606999993       130.122864       1.57849324    
   0.00000000      -1.36500001     -0.606999993       130.122864       1.57849324    
   0.00000000      -1.87709999     -0.606999993       130.122864       1.57849324    
 -0.366203994      -1.84103203     -0.606999993       248.356857      -1.57002187    
 -0.507171988      -2.54972792     -0.517000020       248.356857      -1.57002187    
 -0.994853973      -2.40179110     -0.517000020       248.356857      -1.57002187    
 -0.718334973      -1.73421395     -0.606999993       248.356857      -1.57002187    
 -0.718334973      -1.73421395     -0.606999993       327.817291       1.57833433    
 -0.522363007      -1.26109600     -0.606999993       327.817291       1.57833433    
 -0.266297996      -1.33877206     -0.606999993       327.817291       1.57833433    
 -0.366203994      -1.84103203     -0.606999993       327.817291       1.57833433    
 -0.718334973      -1.73421395     -0.606999993       381.717255      -1.56866670    
 -0.994853973      -2.40179110     -0.517000020       381.717255      -1.56866670    
  -1.44430494      -2.16155505     -0.517000020       381.717255      -1.56866670    
  -1.04286098      -1.56075203     -0.606999993       381.717255      -1.56866670    
  -1.04286098      -1.56075203     -0.606999993       511.950165       1.57694542    
 -0.758352995      -1.13495600     -0.606999993       511.950165       1.57694542    
 -0.522363007      -1.26109600     -0.606999993       511.950165       1.57694542    
 -0.718334973      -1.73421395     -0.606999993       511.950165       1.57694542    
  -1.04286098      -1.56075203     -0.606999993       478.888458      -1.56729269    
  -1.44430494      -2.16155505     -0.517000020       478.888458      -1.56729269    
  -1.83825099      -1.83825099     -0.517000020       478.888458      -1.56729269    
  -1.32730997      -1.32730997     -0.606999993       478.888458      -1.56729269    
  -1.32730997      -1.32730997     -0.606999993       678.653259       1.57581234    
 -0.965201020     -0.965201020     -0.606999993       678.653259       1.57581234    
 -0.758352995      -1.13495600     -0.606999993       678.653259       1.57581234    
  -1.04286098      -1.56075203     -0.606999993       678.653259       1.57581234    
  -1.32730997      -1.32730997     -0.606999993       559.716125      -1.56655216    
  -1.83825099      -1.83825099     -0.517000020       559.716125      -1.56655216    
  -2.16155505      -1.44430494     -0.517000020       559.716125      -1.56655216    
  -1.56075203      -1.04286098     -0.606999993       559.716125      -1.56655216    
  -1.56075203      -1.04286098     -0.606999993       822.722595       1.57549536    
  -1.13495600     -0.758352995     -0.606999993       822.722595       1.57549536    
 -0.965201020     -0.965201020     -0.606999993       822.722595       1.57549536    
  -1.32730997      -1.32730997     -0.606999993       822.722595       1.57549536    
  -1.56075203      -1.04286098     -0.606999993       636.754456      -1.56680405    
  -2.16155505      -1.44430494     -0.517000020       636.754456      -1.56680405    
  -2.40179110     -0.994853973     -0.517000020       636.754456      -1.56680405    
  -1.73421395     -0.718334973     -0.606999993       636.754456      -1.56680405    
  -1.73421395     -0.718334973     -0.606999993       939.693726       1.57585394    
  -1.26109600     -0.522363007     -0.606999993       939.693726       1.57585394    
  -1.13495600     -0.758352995     -0.606999993       939.693726       1.57585394    
  -1.56075203      -1.04286098     -0.606999993       939.693726       1.57585394    
  -1.73421395     -0.718334973     -0.606999993       706.705444      -1.56762373    
  -2.40179110     -0.994853973     -0.517000020       706.705444      -1.56762373    
  -2.54972792     -0.507171988     -0.517000020       706.705444      -1.56762373    
  -1.84103203     -0.366203994     -0.606999993       706.705444      -1.56762373    
  -1.84103203     -0.366203994     -0.606999993       1023.00183       1.57641149    
  -1.33877206     -0.266297996     -0.606999993       1023.00183       1.57641149    
  -1.26109600     -0.522363007     -0.606999993       1023.00183       1.57641149    
  -1.73421395     -0.718334973     -0.606999993       1023.00183       1.57641149    
  -1.84103203     -0.366203994     -0.606999993       750.627319      -1.56825554    
  -2.54972792     -0.507171988     -0.517000020       750.627319      -1.56825554    
  -2.59967995       0.00000000     -0.517000020       750.627319      -1.56825554    
  -1.87709999       0.00000000     -0.606999993       750.627319      -1.56825554    
  -1.87709999       0.00000000     -0.606999993       1066.94214       1.57677650    
  -1.36500001       0.00000000     -0.606999993       1066.94214       1.57677650    
  -1.33877206     -0.266297996     -0.606999993       1066.94214       1.57677650    
  -1.84103203     -0.366203994     -0.606999993       1066.94214       1.57677650    
  -1.87709999       0.00000000     -0.606999993       751.601074      -1.56833971    
  -2.59967995       0.00000000     -0.517000020       751.601074      -1.56833971    
  -2.54972792      0.507171988     -0.517000020       751.601074      -1.56833971    
  -1.84103203      0.366203994     -0.606999993       751.601074      -1.56833971    
  -1.84103203      0.366203994     -0.606999993       1067.19885       1.57680881    
  -1.33877206      0.266297996     -0.606999993       1067.19885       1.57680881    
  -1.36500001       0.00000000     -0.606999993       1067.19885       1.57680881    
  -1.87709999       0.00000000     -0.606999993       1067.19885       1.57680881    
  -1.84103203      0.366203994     -0.606999993       708.153748      -1.56794286    
  -2.54972792      0.507171988     -0.517000020       708.153748      -1.56794286    
  -2.40179110      0.994853973     -0.517000020       708.153748      -1.56794286    
  -1.73421395      0.718334973     -0.606999993       708.153748      -1.56794286    
  -1.73421395      0.718334973     -0.606999993       1022.55475       1.57654309    
  -1.26109600      0.522363007     -0.606999993       1022.55475       1.57654309    
  -1.33877206      0.266297996     -0.606999993       1022.55475       1.57654309    
  -1.84103203      0.366203994     -0.606999993       1022.55475       1.57654309    
  -1.73421395      0.718334973     -0.606999993       635.957703      -1.56737661    
  -2.40179110      0.994853973     -0.517000020       635.957703      -1.56737661    
  -2.16155505       1.44430494     -0.517000020       635.957703      -1.56737661    
  -1.56075203       1.04286098     -0.606999993       635.957703      -1.56737661    
  -1.56075203       1.04286098     -0.606999993       935.627930       1.57613945    
  -1.13495600      0.758352995     -0.606999993       935.627930       1.57613945    
  -1.26109600      0.522363007     -0.606999993       935.627930       1.57613945    
  -1.73421395      0.718334973     -0.606999993       935.627930       1.57613945    
  -1.56075203       1.04286098     -0.606999993       554.859009      -1.56716537    
  -2.16155505       1.44430494     -0.517000020       554.859009      -1.56716537    
  -1.83825099       1.83825099     -0.517000020       554.859009      -1.56716537    
  -1.32730997       1.32730997     -0.606999993       554.859009      -1.56716537    
  -1.32730997       1.32730997     -0.606999993       811.534363       1.57593644    
 -0.965201020      0.965201020     -0.606999993       811.534363       1.57593644    
  -1.13495600      0.758352995     -0.606999993       811.534363       1.57593644    
  -1.56075203       1.04286098     -0.606999993       811.534363       1.57593644    
  -1.32730997       1.32730997     -0.606999993       470.957855      -1.56773365    
  -1.83825099       1.83825099     -0.517000020       470.957855      -1.56773365    
  -1.44430494       2.16155505     -0.517000020       470.957855      -1.56773365    
  -1.04286098       1.56075203     -0.606999993       470.957855      -1.56773365    
  -1.04286098       1.56075203     -0.606999993       657.663452       1.57636964    
 -0.758352995       1.13495600     -0.606999993       657.663452       1.57636964    
 -0.965201020      0.965201020     -0.606999993       657.663452       1.57636964    
  -1.32730997       1.32730997     -0.606999993       657.663452       1.57636964    
  -1.04286098       1.56075203     -0.606999993       375.307404      -1.56894672    
  -1.44430494       2.16155505     -0.517000020       375.307404      -1.56894672    
 -0.994853973       2.40179110     -0.517000020       375.307404      -1.56894672    
 -0.718334973       1.73421395     -0.606999993       375.307404      -1.56894672    
 -0.718334973       1.73421395     -0.606999993       480.072174       1.57765293    
 -0.522363007       1.26109600     -0.606999993       480.072174       1.57765293    
 -0.758352995       1.13495600     -0.606999993       480.072174       1.57765293    
  -1.04286098       1.56075203     -0.606999993       480.072174       1.57765293    
 -0.718334973       1.73421395     -0.606999993       249.307175      -1.57018411    
 -0.994853973       2.40179110     -0.517000020       249.307175      -1.57018411    
 -0.507171988       2.54972792     -0.517000020       249.307175      -1.57018411    
 -0.366203994       1.84103203     -0.606999993       249.307175      -1.57018411    
 -0.366203994       1.84103203     -0.606999993       285.968018       1.57949615    
 -0.266297996       1.33877206     -0.606999993       285.968018       1.57949615    
 -0.522363007       1.26109600     -0.606999993       285.968018       1.57949615    
 -0.718334973       1.73421395     -0.606999993       285.968018       1.57949615    
 -0.366203994       1.84103203     -0.606999993       92.2668152      -1.57079637    
 -0.507171988       2.54972792     -0.517000020       92.2668152      -1.57079637    
   0.00000000       2.59967995     -0.517000020       92.2668152      -1.57079637    
   0.00000000       1.87709999     -0.606999993       92.2668152      -1.57079637    
   0.00000000       1.87709999     -0.606999993       81.0661621       1.58227909    
   0.00000000       1.36500001     -0.606999993       81.0661621       1.58227909    
 -0.266297996       1.33877206     -0.606999993       81.0661621       1.58227909    
 -0.366203994       1.84103203     -0.606999993       81.0661621       1.58227909    
   0.00000000       1.87709999     -0.606999993       80.1450653       1.57047737    
   0.00000000       2.59967995     -0.517000020       80.1450653       1.57047737    
  0.507171988       2.54972792     -0.517000020       80.1450653       1.57047737    
  0.366203994       1.84103203     -0.606999993       80.1450653       1.57047737    
  0.366203994       1.84103203     -0.606999993       126.351067      -1.56297231    
  0.266297996       1.33877206     -0.606999993       126.351067      -1.56297231    
   0.00000000       1.36500001     -0.606999993       126.351067      -1.56297231    
   0.00000000       1.87709999     -0.606999993       126.351067      -1.56297231    
  0.366203994       1.84103203     -0.606999993       238.001770       1.57152832    
  0.507171988       2.54972792     -0.517000020       238.001770       1.57152832    
  0.994853973       2.40179110     -0.517000020       238.001770       1.57152832    
  0.718334973       1.73421395     -0.606999993       238.001770       1.57152832    
  0.718334973       1.73421395     -0.606999993       329.112488      -1.56319392    
  0.522363007       1.26109600     -0.606999993       329.112488      -1.56319392    
  0.266297996       1.33877206     -0.606999993       329.112488      -1.56319392    
  0.366203994       1.84103203     -0.606999993       329.112488      -1.56319392    
  0.718334973       1.73421395     -0.606999993       365.245453       1.57290816    
  0.994853973       2.40179110     -0.517000020       365.245453       1.57290816    
   1.44430494       2.16155505     -0.517000020       365.245453       1.57290816    
   1.04286098       1.56075203     -0.606999993       365.245453       1.57290816    
   1.04286098       1.56075203     -0.606999993       519.441406      -1.56452596    
  0.758352995       1.13495600     -0.606999993       519.441406      -1.56452596    
  0.522363007       1.26109600     -0.606999993       519.441406      -1.56452596    
  0.718334973       1.73421395     -0.606999993       519.441406      -1.56452596    
   1.04286098       1.56075203     -0.606999993       462.166199       1.57413483    
   1.44430494       2.16155505     -0.517000020       462.166199       1.57413483    
   1.83825099       1.83825099     -0.517000020       462.166199       1.57413483    
   1.32730997       1.32730997     -0.606999993       462.166199       1.57413483    
   1.32730997       1.32730997     -0.606999993       692.132141      -1.56557965    
  0.965201020      0.965201020     -0.606999993       692.132141      -1.56557965    
  0.758352995       1.13495600     -0.606999993       692.132141      -1.56557965    
   1.04286098       1.56075203     -0.606999993       692.132141      -1.56557965    
   1.32730997       1.32730997     -0.606999993       547.352783       1.57461429    
   1.83825099       1.83825099     -0.517000020       547.352783       1.57461429    
   2.16155505       1.44430494     -0.517000020       547.352783       1.57461429    
   1.56075203       1.04286098     -0.606999993       547.352783       1.57461429    
   1.56075203       1.04286098     -0.606999993       840.292114      -1.56587660    
   1.13495600      0.758352995     -0.606999993       840.292114      -1.56587660    
  0.965201020      0.965201020     -0.606999993       840.292114      -1.56587660    
   1.32730997       1.32730997     -0.606999993       840.292114      -1.56587660    
   1.56075203       1.04286098     -0.606999993       630.008728       1.57428801    
   2.16155505       1.44430494     -0.517000020       630.008728       1.57428801    
   2.40179110      0.994853973     -0.517000020       630.008728       1.57428801    
   1.73421395      0.718334973     -0.606999993       630.008728       1.57428801    
   1.73421395      0.718334973     -0.606999993       957.770752      -1.56558251    
   1.26109600      0.522363007     -0.606999993       957.770752      -1.56558251    
   1.13495600      0.758352995     -0.606999993       957.770752      -1.56558251    
   1.56075203       1.04286098     -0.606999993       957.770752      -1.56558251    
   1.73421395      0.718334973     -0.606999993       704.029053       1.57364416    
   2.40179110      0.994853973     -0.517000020       704.029053       1.57364416    
   2.54972792      0.507171988     -0.517000020       704.029053       1.57364416    
   1.84103203      0.366203994     -0.606999993       704.029053       1.57364416    
   1.84103203      0.366203994     -0.606999993       1037.55664      -1.56511605    
   1.33877206      0.266297996     -0.606999993       1037.55664      -1.56511605    
   1.26109600      0.522363007     -0.606999993       1037.55664      -1.56511605    
   1.73421395      0.718334973     -0.606999993       1037.55664      -1.56511605    
   1.84103203      0.366203994     -0.606999993       749.219116       1.57321906    
   2.54972792      0.507171988     -0.517000020       749.219116       1.57321906    
   2.59967995       0.00000000     -0.517000020       749.219116       1.57321906    
   1.87709999       0.00000000     -0.606999993       749.219116       1.57321906    
   1.87709999       0.00000000     -0.606999993       1074.88953      -1.56480837    
   1.36500001       0.00000000     -0.606999993       1074.88953      -1.56480837    
   1.33877206      0.266297996     -0.606999993       1074.88953      -1.56480837    
   1.84103203      0.366203994     -0.606999993       1074.88953      -1.56480837    
   1.87709999       0.00000000     -0.606999993       749.472473       1.57330346    
   2.59967995       0.00000000     -0.517000020       749.472473       1.57330346    
   2.54972792     -0.507171988     -0.517000020       749.472473       1.57330346    
   1.84103203     -0.366203994     -0.606999993       749.472473       1.57330346    
   1.84103203     -0.366203994     -0.606999993       1067.57898      -1.56480730    
   1.33877206     -0.266297996     -0.606999993       1067.57898      -1.56480730    
   1.36500001       0.00000000     -0.606999993       1067.57898      -1.56480730    
   1.87709999       0.00000000     -0.606999993       1067.57898      -1.56480730    
   1.84103203     -0.366203994     -0.606999993       706.135132       1.57392919    
   2.54972792     -0.507171988     -0.517000020       706.135132       1.57392919    
   2.40179110     -0.994853973     -0.517000020       706.135132       1.57392919    
   1.73421395     -0.718334973     -0.606999993       706.135132       1.57392919    
   1.73421395     -0.718334973     -0.606999993       1017.05151      -1.56513309    
   1.26109600     -0.522363007     -0.606999993       1017.05151      -1.56513309    
   1.33877206     -0.266297996     -0.606999993       1017.05151      -1.56513309    
   1.84103203     -0.366203994     -0.606999993       1017.05151      -1.56513309    
   1.73421395     -0.718334973     -0.606999993       636.777466       1.57471013    
   2.40179110     -0.994853973     -0.517000020       636.777466       1.57471013    
   2.16155505      -1.44430494     -0.517000020       636.777466       1.57471013    
   1.56075203      -1.04286098     -0.606999993       636.777466       1.57471013    
   1.56075203      -1.04286098     -0.606999993       927.200378      -1.56562924    
   1.13495600     -0.758352995     -0.606999993       927.200378      -1.56562924    
   1.26109600     -0.522363007     -0.606999993       927.200378      -1.56562924    