 VARIABLES="X" "Y" "Z" "abs(p) (Pa)" "angle(p) (rad)"
ZONE N=   2709,E =    2358, F=FEPOINT, ET=QUADRILATERAL
   0.00000000      -5.48999977     -0.157000005       969.192139       1.58490241    
   0.00000000      -4.76741982     -0.246999994       969.192139       1.58490241    
  0.930077016      -4.67581606     -0.246999994       969.192139       1.58490241    
   1.07104599      -5.38451099     -0.157000005       969.192139       1.58490241    
  -1.07104599      -5.38451099     -0.157000005       969.621826       1.58294249    
 -0.930077016      -4.67581606     -0.246999994       969.621826       1.58294249    
   0.00000000      -4.76741982     -0.246999994       969.621826       1.58294249    
   0.00000000      -5.48999977     -0.157000005       969.621826       1.58294249    
  -2.10093188      -5.07209921     -0.157000005       982.810791       1.58037150    
  -1.82441294      -4.40452194     -0.246999994       982.810791       1.58037150    
 -0.930077016      -4.67581606     -0.246999994       982.810791       1.58037150    
  -1.07104599      -5.38451099     -0.157000005       982.810791       1.58037150    
  -3.05008101      -4.56476784     -0.157000005       967.875610       1.58146787    
  -2.64863706      -3.96396494     -0.246999994       967.875610       1.58146787    
  -1.82441294      -4.40452194     -0.246999994       967.875610       1.58146787    
  -2.10093188      -5.07209921     -0.157000005       967.875610       1.58146787    
  -3.88201594      -3.88201594     -0.157000005       967.782166       1.58516514    
  -3.37107491      -3.37107491     -0.246999994       967.782166       1.58516514    
  -2.64863706      -3.96396494     -0.246999994       967.782166       1.58516514    
  -3.05008101      -4.56476784     -0.157000005       967.782166       1.58516514    
  -4.56476784      -3.05008101     -0.157000005       984.515686       1.58775258    
  -3.96396494      -2.64863706     -0.246999994       984.515686       1.58775258    
  -3.37107491      -3.37107491     -0.246999994       984.515686       1.58775258    
  -3.88201594      -3.88201594     -0.157000005       984.515686       1.58775258    
  -5.07209921      -2.10093188     -0.157000005       969.930359       1.58855450    
  -4.40452194      -1.82441294     -0.246999994       969.930359       1.58855450    
  -3.96396494      -2.64863706     -0.246999994       969.930359       1.58855450    
  -4.56476784      -3.05008101     -0.157000005       969.930359       1.58855450    
  -5.38451099      -1.07104599     -0.157000005       967.661560       1.58491480    
  -4.67581606     -0.930077016     -0.246999994       967.661560       1.58491480    
  -4.40452194      -1.82441294     -0.246999994       967.661560       1.58491480    
  -5.07209921      -2.10093188     -0.157000005       967.661560       1.58491480    
  -5.48999977       0.00000000     -0.157000005       984.317017       1.58004320    
  -4.76741982       0.00000000     -0.246999994       984.317017       1.58004320    
  -4.67581606     -0.930077016     -0.246999994       984.317017       1.58004320    
  -5.38451099      -1.07104599     -0.157000005       984.317017       1.58004320    
  -5.38451099       1.07104599     -0.157000005       988.140320       1.57820904    
  -4.67581606      0.930077016     -0.246999994       988.140320       1.57820904    
  -4.76741982       0.00000000     -0.246999994       988.140320       1.57820904    
  -5.48999977       0.00000000     -0.157000005       988.140320       1.57820904    
  -5.07209921       2.10093188     -0.157000005       989.396240       1.57916749    
  -4.40452194       1.82441294     -0.246999994       989.396240       1.57916749    
  -4.67581606      0.930077016     -0.246999994       989.396240       1.57916749    
  -5.38451099       1.07104599     -0.157000005       989.396240       1.57916749    
  -4.56476784       3.05008101     -0.157000005       988.119995       1.58098173    
  -3.96396494       2.64863706     -0.246999994       988.119995       1.58098173    
  -4.40452194       1.82441294     -0.246999994       988.119995       1.58098173    
  -5.07209921       2.10093188     -0.157000005       988.119995       1.58098173    
  -3.88201594       3.88201594     -0.157000005       972.322876       1.58236980    
  -3.37107491       3.37107491     -0.246999994       972.322876       1.58236980    
  -3.96396494       2.64863706     -0.246999994       972.322876       1.58236980    
  -4.56476784       3.05008101     -0.157000005       972.322876       1.58236980    
  -3.05008101       4.56476784     -0.157000005       984.060913       1.58176792    
  -2.64863706       3.96396494     -0.246999994       984.060913       1.58176792    
  -3.37107491       3.37107491     -0.246999994       984.060913       1.58176792    
  -3.88201594       3.88201594     -0.157000005       984.060913       1.58176792    
  -2.10093188       5.07209921     -0.157000005       970.865601       1.58212435    
  -1.82441294       4.40452194     -0.246999994       970.865601       1.58212435    
  -2.64863706       3.96396494     -0.246999994       970.865601       1.58212435    
  -3.05008101       4.56476784     -0.157000005       970.865601       1.58212435    
  -1.07104599       5.38451099     -0.157000005       984.648071       1.58183587    
 -0.930077016       4.67581606     -0.246999994       984.648071       1.58183587    
  -1.82441294       4.40452194     -0.246999994       984.648071       1.58183587    
  -2.10093188       5.07209921     -0.157000005       984.648071       1.58183587    
   0.00000000       5.48999977     -0.157000005       972.602417       1.58218563    
   0.00000000       4.76741982     -0.246999994       972.602417       1.58218563    
 -0.930077016       4.67581606     -0.246999994       972.602417       1.58218563    
  -1.07104599       5.38451099     -0.157000005       972.602417       1.58218563    
   1.07104599       5.38451099     -0.157000005       985.242798       1.58100903    
  0.930077016       4.67581606     -0.246999994       985.242798       1.58100903    
   0.00000000       4.76741982     -0.246999994       985.242798       1.58100903    
   0.00000000       5.48999977     -0.157000005       985.242798       1.58100903    
   2.10093188       5.07209921     -0.157000005       969.912292       1.58122516    
   1.82441294       4.40452194     -0.246999994       969.912292       1.58122516    
  0.930077016       4.67581606     -0.246999994       969.912292       1.58122516    
   1.07104599       5.38451099     -0.157000005       969.912292       1.58122516    
   3.05008101       4.56476784     -0.157000005       967.318604       1.58287287    
   2.64863706       3.96396494     -0.246999994       967.318604       1.58287287    
   1.82441294       4.40452194     -0.246999994       967.318604       1.58287287    
   2.10093188       5.07209921     -0.157000005       967.318604       1.58287287    
   3.88201594       3.88201594     -0.157000005       983.255127       1.58504558    
   3.37107491       3.37107491     -0.246999994       983.255127       1.58504558    
   2.64863706       3.96396494     -0.246999994       983.255127       1.58504558    
   3.05008101       4.56476784     -0.157000005       983.255127       1.58504558    
   4.56476784       3.05008101     -0.157000005       979.955200       1.58713758    
   3.96396494       2.64863706     -0.246999994       979.955200       1.58713758    
   3.37107491       3.37107491     -0.246999994       979.955200       1.58713758    
   3.88201594       3.88201594     -0.157000005       979.955200       1.58713758    
   5.07209921       2.10093188     -0.157000005       985.044739       1.58600461    
   4.40452194       1.82441294     -0.246999994       985.044739       1.58600461    
   3.96396494       2.64863706     -0.246999994       985.044739       1.58600461    
   4.56476784       3.05008101     -0.157000005       985.044739       1.58600461    
   5.38451099       1.07104599     -0.157000005       967.247009       1.58413577    
   4.67581606      0.930077016     -0.246999994       967.247009       1.58413577    
   4.40452194       1.82441294     -0.246999994       967.247009       1.58413577    
   5.07209921       2.10093188     -0.157000005       967.247009       1.58413577    
   5.48999977       0.00000000     -0.157000005       965.407349       1.58237422    
   4.76741982       0.00000000     -0.246999994       965.407349       1.58237422    
   4.67581606      0.930077016     -0.246999994       965.407349       1.58237422    
   5.38451099       1.07104599     -0.157000005       965.407349       1.58237422    
   5.38451099      -1.07104599     -0.157000005       966.885071       1.58294117    
   4.67581606     -0.930077016     -0.246999994       966.885071       1.58294117    
   4.76741982       0.00000000     -0.246999994       966.885071       1.58294117    
   5.48999977       0.00000000     -0.157000005       966.885071       1.58294117    
   5.07209921      -2.10093188     -0.157000005       968.234802       1.58449101    
   4.40452194      -1.82441294     -0.246999994       968.234802       1.58449101    
   4.67581606     -0.930077016     -0.246999994       968.234802       1.58449101    
   5.38451099      -1.07104599     -0.157000005       968.234802       1.58449101    
   4.56476784      -3.05008101     -0.157000005       968.465454       1.58457375    
   3.96396494      -2.64863706     -0.246999994       968.465454       1.58457375    
   4.40452194      -1.82441294     -0.246999994       968.465454       1.58457375    
   5.07209921      -2.10093188     -0.157000005       968.465454       1.58457375    
   3.88201594      -3.88201594     -0.157000005       968.483032       1.58284235    
   3.37107491      -3.37107491     -0.246999994       968.483032       1.58284235    
   3.96396494      -2.64863706     -0.246999994       968.483032       1.58284235    
   4.56476784      -3.05008101     -0.157000005       968.483032       1.58284235    
   3.05008101      -4.56476784     -0.157000005       982.170227       1.58102119    
   2.64863706      -3.96396494     -0.246999994       982.170227       1.58102119    
   3.37107491      -3.37107491     -0.246999994       982.170227       1.58102119    
   3.88201594      -3.88201594     -0.157000005       982.170227       1.58102119    
   2.10093188      -5.07209921     -0.157000005       968.648071       1.58230007    
   1.82441294      -4.40452194     -0.246999994       968.648071       1.58230007    
   2.64863706      -3.96396494     -0.246999994       968.648071       1.58230007    
   3.05008101      -4.56476784     -0.157000005       968.648071       1.58230007    
   1.07104599      -5.38451099     -0.157000005       968.363220       1.58438051    
  0.930077016      -4.67581606     -0.246999994       968.363220       1.58438051    
   1.82441294      -4.40452194     -0.246999994       968.363220       1.58438051    
   2.10093188      -5.07209921     -0.157000005       968.363220       1.58438051    
   0.00000000      -1.87709999     -0.606999993       2502.37183       1.57202256    
   0.00000000      -1.36500001     -0.606999993       2502.37183       1.57202256    
  0.266297996      -1.33877206     -0.606999993       2502.37183       1.57202256    
  0.366203994      -1.84103203     -0.606999993       2502.37183       1.57202256    
   0.00000000      -1.87709999     -0.606999993       1790.31799       1.57194793    
   0.00000000      -2.59967995     -0.517000020       1790.31799       1.57194793    
 -0.507171988      -2.54972792     -0.517000020       1790.31799       1.57194793    
 -0.366203994      -1.84103203     -0.606999993       1790.31799       1.57194793    
 -0.366203994      -1.84103203     -0.606999993       2504.63525       1.57188118    
 -0.266297996      -1.33877206     -0.606999993       2504.63525       1.57188118    
   0.00000000      -1.36500001     -0.606999993       2504.63525       1.57188118    
   0.00000000      -1.87709999     -0.606999993       2504.63525       1.57188118    
 -0.366203994      -1.84103203     -0.606999993       1786.63623       1.57184887    
 -0.507171988      -2.54972792     -0.517000020       1786.63623       1.57184887    
 -0.994853973      -2.40179110     -0.517000020       1786.63623       1.57184887    
 -0.718334973      -1.73421395     -0.606999993       1786.63623       1.57184887    
 -0.718334973      -1.73421395     -0.606999993       2503.21216       1.57171130    
 -0.522363007      -1.26109600     -0.606999993       2503.21216       1.57171130    
 -0.266297996      -1.33877206     -0.606999993       2503.21216       1.57171130    
 -0.366203994      -1.84103203     -0.606999993       2503.21216       1.57171130    
 -0.718334973      -1.73421395     -0.606999993       1782.79810       1.57176828    
 -0.994853973      -2.40179110     -0.517000020       1782.79810       1.57176828    
  -1.44430494      -2.16155505     -0.517000020       1782.79810       1.57176828    
  -1.04286098      -1.56075203     -0.606999993       1782.79810       1.57176828    
  -1.04286098      -1.56075203     -0.606999993       2500.43774       1.57155311    
 -0.758352995      -1.13495600     -0.606999993       2500.43774       1.57155311    
 -0.522363007      -1.26109600     -0.606999993       2500.43774       1.57155311    
 -0.718334973      -1.73421395     -0.606999993       2500.43774       1.57155311    
  -1.04286098      -1.56075203     -0.606999993       1782.36584       1.57170725    
  -1.44430494      -2.16155505     -0.517000020       1782.36584       1.57170725    
  -1.83825099      -1.83825099     -0.517000020       1782.36584       1.57170725    
  -1.32730997      -1.32730997     -0.606999993       1782.36584       1.57170725    
  -1.32730997      -1.32730997     -0.606999993       2498.35327       1.57142246    
 -0.965201020     -0.965201020     -0.606999993       2498.35327       1.57142246    
 -0.758352995      -1.13495600     -0.606999993       2498.35327       1.57142246    
  -1.04286098      -1.56075203     -0.606999993       2498.35327       1.57142246    
  -1.32730997      -1.32730997     -0.606999993       1784.78467       1.57166886    
  -1.83825099      -1.83825099     -0.517000020       1784.78467       1.57166886    
  -2.16155505      -1.44430494     -0.517000020       1784.78467       1.57166886    
  -1.56075203      -1.04286098     -0.606999993       1784.78467       1.57166886    
  -1.56075203      -1.04286098     -0.606999993       2497.32007       1.57133734    
  -1.13495600     -0.758352995     -0.606999993       2497.32007       1.57133734    
 -0.965201020     -0.965201020     -0.606999993       2497.32007       1.57133734    
  -1.32730997      -1.32730997     -0.606999993       2497.32007       1.57133734    
  -1.56075203      -1.04286098     -0.606999993       1786.25415       1.57165015    
  -2.16155505      -1.44430494     -0.517000020       1786.25415       1.57165015    
  -2.40179110     -0.994853973     -0.517000020       1786.25415       1.57165015    
  -1.73421395     -0.718334973     -0.606999993       1786.25415       1.57165015    
  -1.73421395     -0.718334973     -0.606999993       2495.73218       1.57131541    
  -1.26109600     -0.522363007     -0.606999993       2495.73218       1.57131541    
  -1.13495600     -0.758352995     -0.606999993       2495.73218       1.57131541    
  -1.56075203      -1.04286098     -0.606999993       2495.73218       1.57131541    
  -1.73421395     -0.718334973     -0.606999993       1783.93726       1.57164848    
  -2.40179110     -0.994853973     -0.517000020       1783.93726       1.57164848    
  -2.54972792     -0.507171988     -0.517000020       1783.93726       1.57164848    
  -1.84103203     -0.366203994     -0.606999993       1783.93726       1.57164848    
  -1.84103203     -0.366203994     -0.606999993       2492.32153       1.57134914    
  -1.33877206     -0.266297996     -0.606999993       2492.32153       1.57134914    
  -1.26109600     -0.522363007     -0.606999993       2492.32153       1.57134914    
  -1.73421395     -0.718334973     -0.606999993       2492.32153       1.57134914    
  -1.84103203     -0.366203994     -0.606999993       1780.20459       1.57167912    
  -2.54972792     -0.507171988     -0.517000020       1780.20459       1.57167912    
  -2.59967995       0.00000000     -0.517000020       1780.20459       1.57167912    
  -1.87709999       0.00000000     -0.606999993       1780.20459       1.57167912    
  -1.87709999       0.00000000     -0.606999993       2488.66260       1.57144701    
  -1.36500001       0.00000000     -0.606999993       2488.66260       1.57144701    
  -1.33877206     -0.266297996     -0.606999993       2488.66260       1.57144701    
  -1.84103203     -0.366203994     -0.606999993       2488.66260       1.57144701    
  -1.87709999       0.00000000     -0.606999993       1779.37598       1.57173848    
  -2.59967995       0.00000000     -0.517000020       1779.37598       1.57173848    
  -2.54972792      0.507171988     -0.517000020       1779.37598       1.57173848    
  -1.84103203      0.366203994     -0.606999993       1779.37598       1.57173848    
  -1.84103203      0.366203994     -0.606999993       2486.90088       1.57157278    
  -1.33877206      0.266297996     -0.606999993       2486.90088       1.57157278    
  -1.36500001       0.00000000     -0.606999993       2486.90088       1.57157278    
  -1.87709999       0.00000000     -0.606999993       2486.90088       1.57157278    
  -1.84103203      0.366203994     -0.606999993       1782.27722       1.57181478    
  -2.54972792      0.507171988     -0.517000020       1782.27722       1.57181478    
  -2.40179110      0.994853973     -0.517000020       1782.27722       1.57181478    
  -1.73421395      0.718334973     -0.606999993       1782.27722       1.57181478    
  -1.73421395      0.718334973     -0.606999993       2488.06445       1.57173276    
  -1.26109600      0.522363007     -0.606999993       2488.06445       1.57173276    
  -1.33877206      0.266297996     -0.606999993       2488.06445       1.57173276    
  -1.84103203      0.366203994     -0.606999993       2488.06445       1.57173276    
  -1.73421395      0.718334973     -0.606999993       1785.18970       1.57190192    
  -2.40179110      0.994853973     -0.517000020       1785.18970       1.57190192    
  -2.16155505       1.44430494     -0.517000020       1785.18970       1.57190192    
  -1.56075203       1.04286098     -0.606999993       1785.18970       1.57190192    
  -1.56075203       1.04286098     -0.606999993       2490.09839       1.57188129    
  -1.13495600      0.758352995     -0.606999993       2490.09839       1.57188129    
  -1.26109600      0.522363007     -0.606999993       2490.09839       1.57188129    
  -1.73421395      0.718334973     -0.606999993       2490.09839       1.57188129    
  -1.56075203       1.04286098     -0.606999993       1784.64453       1.57198429    
  -2.16155505       1.44430494     -0.517000020       1784.64453       1.57198429    
  -1.83825099       1.83825099     -0.517000020       1784.64453       1.57198429    
  -1.32730997       1.32730997     -0.606999993       1784.64453       1.57198429    
  -1.32730997       1.32730997     -0.606999993       2491.63623       1.57200885    
 -0.965201020      0.965201020     -0.606999993       2491.63623       1.57200885    
  -1.13495600      0.758352995     -0.606999993       2491.63623       1.57200885    
  -1.56075203       1.04286098     -0.606999993       2491.63623       1.57200885    
  -1.32730997       1.32730997     -0.606999993       1782.34460       1.57204664    
  -1.83825099       1.83825099     -0.517000020       1782.34460       1.57204664    
  -1.44430494       2.16155505     -0.517000020       1782.34460       1.57204664    
  -1.04286098       1.56075203     -0.606999993       1782.34460       1.57204664    
  -1.04286098       1.56075203     -0.606999993       2493.11792       1.57209790    
 -0.758352995       1.13495600     -0.606999993       2493.11792       1.57209790    
 -0.965201020      0.965201020     -0.606999993       2493.11792       1.57209790    
  -1.32730997       1.32730997     -0.606999993       2493.11792       1.57209790    
  -1.04286098       1.56075203     -0.606999993       1782.69348       1.57207036    
  -1.44430494       2.16155505     -0.517000020       1782.69348       1.57207036    
 -0.994853973       2.40179110     -0.517000020       1782.69348       1.57207036    
 -0.718334973       1.73421395     -0.606999993       1782.69348       1.57207036    
 -0.718334973       1.73421395     -0.606999993       2496.38525       1.57213235    
 -0.522363007       1.26109600     -0.606999993       2496.38525       1.57213235    
 -0.758352995       1.13495600     -0.606999993       2496.38525       1.57213235    
  -1.04286098       1.56075203     -0.606999993       2496.38525       1.57213235    
 -0.718334973       1.73421395     -0.606999993       1786.96130       1.57205045    
 -0.994853973       2.40179110     -0.517000020       1786.96130       1.57205045    
 -0.507171988       2.54972792     -0.517000020       1786.96130       1.57205045    
 -0.366203994       1.84103203     -0.606999993       1786.96130       1.57205045    
 -0.366203994       1.84103203     -0.606999993       2501.42773       1.57208872    
 -0.266297996       1.33877206     -0.606999993       2501.42773       1.57208872    
 -0.522363007       1.26109600     -0.606999993       2501.42773       1.57208872    
 -0.718334973       1.73421395     -0.606999993       2501.42773       1.57208872    
 -0.366203994       1.84103203     -0.606999993       1791.78320       1.57199574    
 -0.507171988       2.54972792     -0.517000020       1791.78320       1.57199574    
   0.00000000       2.59967995     -0.517000020       1791.78320       1.57199574    
   0.00000000       1.87709999     -0.606999993       1791.78320       1.57199574    
   0.00000000       1.87709999     -0.606999993       2506.25513       1.57200325    
   0.00000000       1.36500001     -0.606999993       2506.25513       1.57200325    
 -0.266297996       1.33877206     -0.606999993       2506.25513       1.57200325    
 -0.366203994       1.84103203     -0.606999993       2506.25513       1.57200325    
   0.00000000       1.87709999     -0.606999993       1792.64673       1.57192171    
   0.00000000       2.59967995     -0.517000020       1792.64673       1.57192171    
  0.507171988       2.54972792     -0.517000020       1792.64673       1.57192171    
  0.366203994       1.84103203     -0.606999993       1792.64673       1.57192171    
  0.366203994       1.84103203     -0.606999993       2508.30444       1.57187033    
  0.266297996       1.33877206     -0.606999993       2508.30444       1.57187033    
   0.00000000       1.36500001     -0.606999993       2508.30444       1.57187033    
   0.00000000       1.87709999     -0.606999993       2508.30444       1.57187033    
  0.366203994       1.84103203     -0.606999993       1789.33789       1.57185054    
  0.507171988       2.54972792     -0.517000020       1789.33789       1.57185054    
  0.994853973       2.40179110     -0.517000020       1789.33789       1.57185054    
  0.718334973       1.73421395     -0.606999993       1789.33789       1.57185054    
  0.718334973       1.73421395     -0.606999993       2507.13721       1.57172430    
  0.522363007       1.26109600     -0.606999993       2507.13721       1.57172430    
  0.266297996       1.33877206     -0.606999993       2507.13721       1.57172430    
  0.366203994       1.84103203     -0.606999993       2507.13721       1.57172430    
  0.718334973       1.73421395     -0.606999993       1786.27844       1.57179058    
  0.994853973       2.40179110     -0.517000020       1786.27844       1.57179058    
   1.44430494       2.16155505     -0.517000020       1786.27844       1.57179058    
   1.04286098       1.56075203     -0.606999993       1786.27844       1.57179058    
   1.04286098       1.56075203     -0.606999993       2504.93970       1.57157946    
  0.758352995       1.13495600     -0.606999993       2504.93970       1.57157946    
  0.522363007       1.26109600     -0.606999993       2504.93970       1.57157946    
  0.718334973       1.73421395     -0.606999993       2504.93970       1.57157946    
   1.04286098       1.56075203     -0.606999993       1786.59546       1.57175362    
   1.44430494       2.16155505     -0.517000020       1786.59546       1.57175362    
   1.83825099       1.83825099     -0.517000020       1786.59546       1.57175362    
   1.32730997       1.32730997     -0.606999993       1786.59546       1.57175362    
   1.32730997       1.32730997     -0.606999993       2503.19434       1.57146621    
  0.965201020      0.965201020     -0.606999993       2503.19434       1.57146621    
  0.758352995       1.13495600     -0.606999993       2503.19434       1.57146621    
   1.04286098       1.56075203     -0.606999993       2503.19434       1.57146621    
   1.32730997       1.32730997     -0.606999993       1788.82605       1.57173002    
   1.83825099       1.83825099     -0.517000020       1788.82605       1.57173002    
   2.16155505       1.44430494     -0.517000020       1788.82605       1.57173002    
   1.56075203       1.04286098     -0.606999993       1788.82605       1.57173002    
   1.56075203       1.04286098     -0.606999993       2501.47168       1.57139587    
   1.13495600      0.758352995     -0.606999993       2501.47168       1.57139587    
  0.965201020      0.965201020     -0.606999993       2501.47168       1.57139587    
   1.32730997       1.32730997     -0.606999993       2501.47168       1.57139587    
   1.56075203       1.04286098     -0.606999993       1788.46814       1.57173324    
   2.16155505       1.44430494     -0.517000020       1788.46814       1.57173324    
   2.40179110      0.994853973     -0.517000020       1788.46814       1.57173324    
   1.73421395      0.718334973     -0.606999993       1788.46814       1.57173324    
   1.73421395      0.718334973     -0.606999993       2497.75806       1.57139218    
   1.26109600      0.522363007     -0.606999993       2497.75806       1.57139218    
   1.13495600      0.758352995     -0.606999993       2497.75806       1.57139218    
   1.56075203       1.04286098     -0.606999993       2497.75806       1.57139218    
   1.73421395      0.718334973     -0.606999993       1783.94751       1.57177615    
   2.40179110      0.994853973     -0.517000020       1783.94751       1.57177615    
   2.54972792      0.507171988     -0.517000020       1783.94751       1.57177615    
   1.84103203      0.366203994     -0.606999993       1783.94751       1.57177615    
   1.84103203      0.366203994     -0.606999993       2492.07568       1.57144213    
   1.33877206      0.266297996     -0.606999993       2492.07568       1.57144213    
   1.26109600      0.522363007     -0.606999993       2492.07568       1.57144213    
   1.73421395      0.718334973     -0.606999993       2492.07568       1.57144213    
   1.84103203      0.366203994     -0.606999993       1779.15784       1.57184362    
   2.54972792      0.507171988     -0.517000020       1779.15784       1.57184362    
   2.59967995       0.00000000     -0.517000020       1779.15784       1.57184362    
   1.87709999       0.00000000     -0.606999993       1779.15784       1.57184362    
   1.87709999       0.00000000     -0.606999993       2486.94336       1.57155156    
   1.36500001       0.00000000     -0.606999993       2486.94336       1.57155156    
   1.33877206      0.266297996     -0.606999993       2486.94336       1.57155156    
   1.84103203      0.366203994     -0.606999993       2486.94336       1.57155156    
   1.87709999       0.00000000     -0.606999993       1778.11804       1.57192850    
   2.59967995       0.00000000     -0.517000020       1778.11804       1.57192850    
   2.54972792     -0.507171988     -0.517000020       1778.11804       1.57192850    
   1.84103203     -0.366203994     -0.606999993       1778.11804       1.57192850    
   1.84103203     -0.366203994     -0.606999993       2484.69507       1.57168567    
   1.33877206     -0.266297996     -0.606999993       2484.69507       1.57168567    
   1.36500001       0.00000000     -0.606999993       2484.69507       1.57168567    
   1.87709999       0.00000000     -0.606999993       2484.69507       1.57168567    
   1.84103203     -0.366203994     -0.606999993       1780.25452       1.57202482    
   2.54972792     -0.507171988     -0.517000020       1780.25452       1.57202482    
   2.40179110     -0.994853973     -0.517000020       1780.25452       1.57202482    
   1.73421395     -0.718334973     -0.606999993       1780.25452       1.57202482    
   1.73421395     -0.718334973     -0.606999993       2484.97974       1.57185924    
   1.26109600     -0.522363007     -0.606999993       2484.97974       1.57185924    
   1.33877206     -0.266297996     -0.606999993       2484.97974       1.57185924    
   1.84103203     -0.366203994     -0.606999993       2484.97974       1.57185924    
   1.73421395     -0.718334973     -0.606999993       1781.42505       1.57210302    
   2.40179110     -0.994853973     -0.517000020       1781.42505       1.57210302    
   2.16155505      -1.44430494     -0.517000020       1781.42505       1.57210302    
   1.56075203      -1.04286098     -0.606999993       1781.42505       1.57210302    
   1.56075203      -1.04286098     -0.606999993       2485.68896       1.57201087    
   1.13495600     -0.758352995     -0.606999993       2485.68896       1.57201087    
   1.26109600     -0.522363007     -0.606999993       2485.68896       1.57201087    