 VARIABLES="X" "Y" "Z" "abs(p) (Pa)" "angle(p) (rad)"
ZONE N=   2709,E =    2358, F=FEPOINT, ET=QUADRILATERAL
   0.00000000      -5.48999977     -0.157000005       298.912537     -0.677948534    
   0.00000000      -4.76741982     -0.246999994       298.912537     -0.677948534    
  0.930077016      -4.67581606     -0.246999994       298.912537     -0.677948534    
   1.07104599      -5.38451099     -0.157000005       298.912537     -0.677948534    
  -1.07104599      -5.38451099     -0.157000005       297.216766     -0.680989146    
 -0.930077016      -4.67581606     -0.246999994       297.216766     -0.680989146    
   0.00000000      -4.76741982     -0.246999994       297.216766     -0.680989146    
   0.00000000      -5.48999977     -0.157000005       297.216766     -0.680989146    
  -2.10093188      -5.07209921     -0.157000005       290.394775     -0.725444674    
  -1.82441294      -4.40452194     -0.246999994       290.394775     -0.725444674    
 -0.930077016      -4.67581606     -0.246999994       290.394775     -0.725444674    
  -1.07104599      -5.38451099     -0.157000005       290.394775     -0.725444674    
  -3.05008101      -4.56476784     -0.157000005       263.441528     -0.648607731    
  -2.64863706      -3.96396494     -0.246999994       263.441528     -0.648607731    
  -1.82441294      -4.40452194     -0.246999994       263.441528     -0.648607731    
  -2.10093188      -5.07209921     -0.157000005       263.441528     -0.648607731    
  -3.88201594      -3.88201594     -0.157000005       240.548386     -0.669376791    
  -3.37107491      -3.37107491     -0.246999994       240.548386     -0.669376791    
  -2.64863706      -3.96396494     -0.246999994       240.548386     -0.669376791    
  -3.05008101      -4.56476784     -0.157000005       240.548386     -0.669376791    
  -4.56476784      -3.05008101     -0.157000005       209.924149     -0.763736784    
  -3.96396494      -2.64863706     -0.246999994       209.924149     -0.763736784    
  -3.37107491      -3.37107491     -0.246999994       209.924149     -0.763736784    
  -3.88201594      -3.88201594     -0.157000005       209.924149     -0.763736784    
  -5.07209921      -2.10093188     -0.157000005       150.397583     -0.695497036    
  -4.40452194      -1.82441294     -0.246999994       150.397583     -0.695497036    
  -3.96396494      -2.64863706     -0.246999994       150.397583     -0.695497036    
  -4.56476784      -3.05008101     -0.157000005       150.397583     -0.695497036    
  -5.38451099      -1.07104599     -0.157000005       86.0805893     -0.610986471    
  -4.67581606     -0.930077016     -0.246999994       86.0805893     -0.610986471    
  -4.40452194      -1.82441294     -0.246999994       86.0805893     -0.610986471    
  -5.07209921      -2.10093188     -0.157000005       86.0805893     -0.610986471    
  -5.48999977       0.00000000     -0.157000005       27.0976048     -0.536998987    
  -4.76741982       0.00000000     -0.246999994       27.0976048     -0.536998987    
  -4.67581606     -0.930077016     -0.246999994       27.0976048     -0.536998987    
  -5.38451099      -1.07104599     -0.157000005       27.0976048     -0.536998987    
  -5.38451099       1.07104599     -0.157000005       27.2229900       2.43422151    
  -4.67581606      0.930077016     -0.246999994       27.2229900       2.43422151    
  -4.76741982       0.00000000     -0.246999994       27.2229900       2.43422151    
  -5.48999977       0.00000000     -0.157000005       27.2229900       2.43422151    
  -5.07209921       2.10093188     -0.157000005       83.0801086       2.44255614    
  -4.40452194       1.82441294     -0.246999994       83.0801086       2.44255614    
  -4.67581606      0.930077016     -0.246999994       83.0801086       2.44255614    
  -5.38451099       1.07104599     -0.157000005       83.0801086       2.44255614    
  -4.56476784       3.05008101     -0.157000005       144.993973       2.39819312    
  -3.96396494       2.64863706     -0.246999994       144.993973       2.39819312    
  -4.40452194       1.82441294     -0.246999994       144.993973       2.39819312    
  -5.07209921       2.10093188     -0.157000005       144.993973       2.39819312    
  -3.88201594       3.88201594     -0.157000005       200.510529       2.43295670    
  -3.37107491       3.37107491     -0.246999994       200.510529       2.43295670    
  -3.96396494       2.64863706     -0.246999994       200.510529       2.43295670    
  -4.56476784       3.05008101     -0.157000005       200.510529       2.43295670    
  -3.05008101       4.56476784     -0.157000005       249.292618       2.39549804    
  -2.64863706       3.96396494     -0.246999994       249.292618       2.39549804    
  -3.37107491       3.37107491     -0.246999994       249.292618       2.39549804    
  -3.88201594       3.88201594     -0.157000005       249.292618       2.39549804    
  -2.10093188       5.07209921     -0.157000005       271.173767       2.47610998    
  -1.82441294       4.40452194     -0.246999994       271.173767       2.47610998    
  -2.64863706       3.96396494     -0.246999994       271.173767       2.47610998    
  -3.05008101       4.56476784     -0.157000005       271.173767       2.47610998    
  -1.07104599       5.38451099     -0.157000005       296.845703       2.41231275    
 -0.930077016       4.67581606     -0.246999994       296.845703       2.41231275    
  -1.82441294       4.40452194     -0.246999994       296.845703       2.41231275    
  -2.10093188       5.07209921     -0.157000005       296.845703       2.41231275    
   0.00000000       5.48999977     -0.157000005       301.444641       2.44950986    
   0.00000000       4.76741982     -0.246999994       301.444641       2.44950986    
 -0.930077016       4.67581606     -0.246999994       301.444641       2.44950986    
  -1.07104599       5.38451099     -0.157000005       301.444641       2.44950986    
   1.07104599       5.38451099     -0.157000005       305.941833       2.39887547    
  0.930077016       4.67581606     -0.246999994       305.941833       2.39887547    
   0.00000000       4.76741982     -0.246999994       305.941833       2.39887547    
   0.00000000       5.48999977     -0.157000005       305.941833       2.39887547    
   2.10093188       5.07209921     -0.157000005       288.363312       2.47263527    
   1.82441294       4.40452194     -0.246999994       288.363312       2.47263527    
  0.930077016       4.67581606     -0.246999994       288.363312       2.47263527    
   1.07104599       5.38451099     -0.157000005       288.363312       2.47263527    
   3.05008101       4.56476784     -0.157000005       268.788788       2.49529958    
   2.64863706       3.96396494     -0.246999994       268.788788       2.49529958    
   1.82441294       4.40452194     -0.246999994       268.788788       2.49529958    
   2.10093188       5.07209921     -0.157000005       268.788788       2.49529958    
   3.88201594       3.88201594     -0.157000005       249.870163       2.41180611    
   3.37107491       3.37107491     -0.246999994       249.870163       2.41180611    
   2.64863706       3.96396494     -0.246999994       249.870163       2.41180611    
   3.05008101       4.56476784     -0.157000005       249.870163       2.41180611    
   4.56476784       3.05008101     -0.157000005       206.211792       2.41414499    
   3.96396494       2.64863706     -0.246999994       206.211792       2.41414499    
   3.37107491       3.37107491     -0.246999994       206.211792       2.41414499    
   3.88201594       3.88201594     -0.157000005       206.211792       2.41414499    
   5.07209921       2.10093188     -0.157000005       147.127792       2.41760612    
   4.40452194       1.82441294     -0.246999994       147.127792       2.41760612    
   3.96396494       2.64863706     -0.246999994       147.127792       2.41760612    
   4.56476784       3.05008101     -0.157000005       147.127792       2.41760612    
   5.38451099       1.07104599     -0.157000005       80.1988602       2.55009913    
   4.67581606      0.930077016     -0.246999994       80.1988602       2.55009913    
   4.40452194       1.82441294     -0.246999994       80.1988602       2.55009913    
   5.07209921       2.10093188     -0.157000005       80.1988602       2.55009913    
   5.48999977       0.00000000     -0.157000005       21.6859856       2.66229391    
   4.76741982       0.00000000     -0.246999994       21.6859856       2.66229391    
   4.67581606      0.930077016     -0.246999994       21.6859856       2.66229391    
   5.38451099       1.07104599     -0.157000005       21.6859856       2.66229391    
   5.38451099      -1.07104599     -0.157000005       32.2020836     -0.587781668    
   4.67581606     -0.930077016     -0.246999994       32.2020836     -0.587781668    
   4.76741982       0.00000000     -0.246999994       32.2020836     -0.587781668    
   5.48999977       0.00000000     -0.157000005       32.2020836     -0.587781668    
   5.07209921      -2.10093188     -0.157000005       88.1947327     -0.632813752    
   4.40452194      -1.82441294     -0.246999994       88.1947327     -0.632813752    
   4.67581606     -0.930077016     -0.246999994       88.1947327     -0.632813752    
   5.38451099      -1.07104599     -0.157000005       88.1947327     -0.632813752    
   4.56476784      -3.05008101     -0.157000005       147.414200     -0.688303769    
   3.96396494      -2.64863706     -0.246999994       147.414200     -0.688303769    
   4.40452194      -1.82441294     -0.246999994       147.414200     -0.688303769    
   5.07209921      -2.10093188     -0.157000005       147.414200     -0.688303769    
   3.88201594      -3.88201594     -0.157000005       200.995193     -0.704431891    
   3.37107491      -3.37107491     -0.246999994       200.995193     -0.704431891    
   3.96396494      -2.64863706     -0.246999994       200.995193     -0.704431891    
   4.56476784      -3.05008101     -0.157000005       200.995193     -0.704431891    
   3.05008101      -4.56476784     -0.157000005       243.478882     -0.730932534    
   2.64863706      -3.96396494     -0.246999994       243.478882     -0.730932534    
   3.37107491      -3.37107491     -0.246999994       243.478882     -0.730932534    
   3.88201594      -3.88201594     -0.157000005       243.478882     -0.730932534    
   2.10093188      -5.07209921     -0.157000005       265.450287     -0.650260091    
   1.82441294      -4.40452194     -0.246999994       265.450287     -0.650260091    
   2.64863706      -3.96396494     -0.246999994       265.450287     -0.650260091    
   3.05008101      -4.56476784     -0.157000005       265.450287     -0.650260091    
   1.07104599      -5.38451099     -0.157000005       288.373779     -0.665075660    
  0.930077016      -4.67581606     -0.246999994       288.373779     -0.665075660    
   1.82441294      -4.40452194     -0.246999994       288.373779     -0.665075660    
   2.10093188      -5.07209921     -0.157000005       288.373779     -0.665075660    
   0.00000000      -1.87709999     -0.606999993       14196.2822      -1.56757772    
   0.00000000      -1.36500001     -0.606999993       14196.2822      -1.56757772    
  0.266297996      -1.33877206     -0.606999993       14196.2822      -1.56757772    
  0.366203994      -1.84103203     -0.606999993       14196.2822      -1.56757772    
   0.00000000      -1.87709999     -0.606999993       6709.72949      -1.56508577    
   0.00000000      -2.59967995     -0.517000020       6709.72949      -1.56508577    
 -0.507171988      -2.54972792     -0.517000020       6709.72949      -1.56508577    
 -0.366203994      -1.84103203     -0.606999993       6709.72949      -1.56508577    
 -0.366203994      -1.84103203     -0.606999993       14236.3408      -1.56756961    
 -0.266297996      -1.33877206     -0.606999993       14236.3408      -1.56756961    
   0.00000000      -1.36500001     -0.606999993       14236.3408      -1.56756961    
   0.00000000      -1.87709999     -0.606999993       14236.3408      -1.56756961    
 -0.366203994      -1.84103203     -0.606999993       6566.37402      -1.56516814    
 -0.507171988      -2.54972792     -0.517000020       6566.37402      -1.56516814    
 -0.994853973      -2.40179110     -0.517000020       6566.37402      -1.56516814    
 -0.718334973      -1.73421395     -0.606999993       6566.37402      -1.56516814    
 -0.718334973      -1.73421395     -0.606999993       13815.7598      -1.56757331    
 -0.522363007      -1.26109600     -0.606999993       13815.7598      -1.56757331    
 -0.266297996      -1.33877206     -0.606999993       13815.7598      -1.56757331    
 -0.366203994      -1.84103203     -0.606999993       13815.7598      -1.56757331    
 -0.718334973      -1.73421395     -0.606999993       6214.06738      -1.56527042    
 -0.994853973      -2.40179110     -0.517000020       6214.06738      -1.56527042    
  -1.44430494      -2.16155505     -0.517000020       6214.06738      -1.56527042    
  -1.04286098      -1.56075203     -0.606999993       6214.06738      -1.56527042    
  -1.04286098      -1.56075203     -0.606999993       12900.1748      -1.56757426    
 -0.758352995      -1.13495600     -0.606999993       12900.1748      -1.56757426    
 -0.522363007      -1.26109600     -0.606999993       12900.1748      -1.56757426    
 -0.718334973      -1.73421395     -0.606999993       12900.1748      -1.56757426    
  -1.04286098      -1.56075203     -0.606999993       5582.85791      -1.56530559    
  -1.44430494      -2.16155505     -0.517000020       5582.85791      -1.56530559    
  -1.83825099      -1.83825099     -0.517000020       5582.85791      -1.56530559    
  -1.32730997      -1.32730997     -0.606999993       5582.85791      -1.56530559    
  -1.32730997      -1.32730997     -0.606999993       11454.4219      -1.56755173    
 -0.965201020     -0.965201020     -0.606999993       11454.4219      -1.56755173    
 -0.758352995      -1.13495600     -0.606999993       11454.4219      -1.56755173    
  -1.04286098      -1.56075203     -0.606999993       11454.4219      -1.56755173    
  -1.32730997      -1.32730997     -0.606999993       4631.09766      -1.56522787    
  -1.83825099      -1.83825099     -0.517000020       4631.09766      -1.56522787    
  -2.16155505      -1.44430494     -0.517000020       4631.09766      -1.56522787    
  -1.56075203      -1.04286098     -0.606999993       4631.09766      -1.56522787    
  -1.56075203      -1.04286098     -0.606999993       9492.84082      -1.56749713    
  -1.13495600     -0.758352995     -0.606999993       9492.84082      -1.56749713    
 -0.965201020     -0.965201020     -0.606999993       9492.84082      -1.56749713    
  -1.32730997      -1.32730997     -0.606999993       9492.84082      -1.56749713    
  -1.56075203      -1.04286098     -0.606999993       3403.90723      -1.56500781    
  -2.16155505      -1.44430494     -0.517000020       3403.90723      -1.56500781    
  -2.40179110     -0.994853973     -0.517000020       3403.90723      -1.56500781    
  -1.73421395     -0.718334973     -0.606999993       3403.90723      -1.56500781    
  -1.73421395     -0.718334973     -0.606999993       7108.00488      -1.56740201    
  -1.26109600     -0.522363007     -0.606999993       7108.00488      -1.56740201    
  -1.13495600     -0.758352995     -0.606999993       7108.00488      -1.56740201    
  -1.56075203      -1.04286098     -0.606999993       7108.00488      -1.56740201    
  -1.73421395     -0.718334973     -0.606999993       2062.03125      -1.56464517    
  -2.40179110     -0.994853973     -0.517000020       2062.03125      -1.56464517    
  -2.54972792     -0.507171988     -0.517000020       2062.03125      -1.56464517    
  -1.84103203     -0.366203994     -0.606999993       2062.03125      -1.56464517    
  -1.84103203     -0.366203994     -0.606999993       4446.06885      -1.56722701    
  -1.33877206     -0.266297996     -0.606999993       4446.06885      -1.56722701    
  -1.26109600     -0.522363007     -0.606999993       4446.06885      -1.56722701    
  -1.73421395     -0.718334973     -0.606999993       4446.06885      -1.56722701    
  -1.84103203     -0.366203994     -0.606999993       744.696594      -1.56376362    
  -2.54972792     -0.507171988     -0.517000020       744.696594      -1.56376362    
  -2.59967995       0.00000000     -0.517000020       744.696594      -1.56376362    
  -1.87709999       0.00000000     -0.606999993       744.696594      -1.56376362    
  -1.87709999       0.00000000     -0.606999993       1650.79639      -1.56662202    
  -1.36500001       0.00000000     -0.606999993       1650.79639      -1.56662202    
  -1.33877206     -0.266297996     -0.606999993       1650.79639      -1.56662202    
  -1.84103203     -0.366203994     -0.606999993       1650.79639      -1.56662202    
  -1.87709999       0.00000000     -0.606999993       521.350037       1.57522130    
  -2.59967995       0.00000000     -0.517000020       521.350037       1.57522130    
  -2.54972792      0.507171988     -0.517000020       521.350037       1.57522130    
  -1.84103203      0.366203994     -0.606999993       521.350037       1.57522130    
  -1.84103203      0.366203994     -0.606999993       1181.44836       1.57285357    
  -1.33877206      0.266297996     -0.606999993       1181.44836       1.57285357    
  -1.36500001       0.00000000     -0.606999993       1181.44836       1.57285357    
  -1.87709999       0.00000000     -0.606999993       1181.44836       1.57285357    
  -1.84103203      0.366203994     -0.606999993       1816.29688       1.57623649    
  -2.54972792      0.507171988     -0.517000020       1816.29688       1.57623649    
  -2.40179110      0.994853973     -0.517000020       1816.29688       1.57623649    
  -1.73421395      0.718334973     -0.606999993       1816.29688       1.57623649    
  -1.73421395      0.718334973     -0.606999993       3998.98486       1.57375312    
  -1.26109600      0.522363007     -0.606999993       3998.98486       1.57375312    
  -1.33877206      0.266297996     -0.606999993       3998.98486       1.57375312    
  -1.84103203      0.366203994     -0.606999993       3998.98486       1.57375312    
  -1.73421395      0.718334973     -0.606999993       3157.68555       1.57626736    
  -2.40179110      0.994853973     -0.517000020       3157.68555       1.57626736    
  -2.16155505       1.44430494     -0.517000020       3157.68555       1.57626736    
  -1.56075203       1.04286098     -0.606999993       3157.68555       1.57626736    
  -1.56075203       1.04286098     -0.606999993       6721.53271       1.57389748    
  -1.13495600      0.758352995     -0.606999993       6721.53271       1.57389748    
  -1.26109600      0.522363007     -0.606999993       6721.53271       1.57389748    
  -1.73421395      0.718334973     -0.606999993       6721.53271       1.57389748    
  -1.56075203       1.04286098     -0.606999993       4438.44434       1.57618833    
  -2.16155505       1.44430494     -0.517000020       4438.44434       1.57618833    
  -1.83825099       1.83825099     -0.517000020       4438.44434       1.57618833    
  -1.32730997       1.32730997     -0.606999993       4438.44434       1.57618833    
  -1.32730997       1.32730997     -0.606999993       9215.50195       1.57395244    
 -0.965201020      0.965201020     -0.606999993       9215.50195       1.57395244    
  -1.13495600      0.758352995     -0.606999993       9215.50195       1.57395244    
  -1.56075203       1.04286098     -0.606999993       9215.50195       1.57395244    
  -1.32730997       1.32730997     -0.606999993       5485.00781       1.57616818    
  -1.83825099       1.83825099     -0.517000020       5485.00781       1.57616818    
  -1.44430494       2.16155505     -0.517000020       5485.00781       1.57616818    
  -1.04286098       1.56075203     -0.606999993       5485.00781       1.57616818    
  -1.04286098       1.56075203     -0.606999993       11320.0312       1.57398558    
 -0.758352995       1.13495600     -0.606999993       11320.0312       1.57398558    
 -0.965201020      0.965201020     -0.606999993       11320.0312       1.57398558    
  -1.32730997       1.32730997     -0.606999993       11320.0312       1.57398558    
  -1.04286098       1.56075203     -0.606999993       6211.33301       1.57624483    
  -1.44430494       2.16155505     -0.517000020       6211.33301       1.57624483    
 -0.994853973       2.40179110     -0.517000020       6211.33301       1.57624483    
 -0.718334973       1.73421395     -0.606999993       6211.33301       1.57624483    
 -0.718334973       1.73421395     -0.606999993       12914.3047       1.57402468    
 -0.522363007       1.26109600     -0.606999993       12914.3047       1.57402468    
 -0.758352995       1.13495600     -0.606999993       12914.3047       1.57402468    
  -1.04286098       1.56075203     -0.606999993       12914.3047       1.57402468    
 -0.718334973       1.73421395     -0.606999993       6633.62695       1.57638180    
 -0.994853973       2.40179110     -0.517000020       6633.62695       1.57638180    
 -0.507171988       2.54972792     -0.517000020       6633.62695       1.57638180    
 -0.366203994       1.84103203     -0.606999993       6633.62695       1.57638180    
 -0.366203994       1.84103203     -0.606999993       13951.4199       1.57406867    
 -0.266297996       1.33877206     -0.606999993       13951.4199       1.57406867    
 -0.522363007       1.26109600     -0.606999993       13951.4199       1.57406867    
 -0.718334973       1.73421395     -0.606999993       13951.4199       1.57406867    
 -0.366203994       1.84103203     -0.606999993       6816.02197       1.57650495    
 -0.507171988       2.54972792     -0.517000020       6816.02197       1.57650495    
   0.00000000       2.59967995     -0.517000020       6816.02197       1.57650495    
   0.00000000       1.87709999     -0.606999993       6816.02197       1.57650495    
   0.00000000       1.87709999     -0.606999993       14445.6338       1.57410455    
   0.00000000       1.36500001     -0.606999993       14445.6338       1.57410455    
 -0.266297996       1.33877206     -0.606999993       14445.6338       1.57410455    
 -0.366203994       1.84103203     -0.606999993       14445.6338       1.57410455    
   0.00000000       1.87709999     -0.606999993       6805.65332       1.57654929    
   0.00000000       2.59967995     -0.517000020       6805.65332       1.57654929    
  0.507171988       2.54972792     -0.517000020       6805.65332       1.57654929    
  0.366203994       1.84103203     -0.606999993       6805.65332       1.57654929    
  0.366203994       1.84103203     -0.606999993       14418.9150       1.57412028    
  0.266297996       1.33877206     -0.606999993       14418.9150       1.57412028    
   0.00000000       1.36500001     -0.606999993       14418.9150       1.57412028    
   0.00000000       1.87709999     -0.606999993       14418.9150       1.57412028    
  0.366203994       1.84103203     -0.606999993       6604.53516       1.57650161    
  0.507171988       2.54972792     -0.517000020       6604.53516       1.57650161    
  0.994853973       2.40179110     -0.517000020       6604.53516       1.57650161    
  0.718334973       1.73421395     -0.606999993       6604.53516       1.57650161    
  0.718334973       1.73421395     -0.606999993       13875.0117       1.57411540    
  0.522363007       1.26109600     -0.606999993       13875.0117       1.57411540    
  0.266297996       1.33877206     -0.606999993       13875.0117       1.57411540    
  0.366203994       1.84103203     -0.606999993       13875.0117       1.57411540    
  0.718334973       1.73421395     -0.606999993       6169.46924       1.57644641    
  0.994853973       2.40179110     -0.517000020       6169.46924       1.57644641    
   1.44430494       2.16155505     -0.517000020       6169.46924       1.57644641    
   1.04286098       1.56075203     -0.606999993       6169.46924       1.57644641    
   1.04286098       1.56075203     -0.606999993       12799.6475       1.57410252    
  0.758352995       1.13495600     -0.606999993       12799.6475       1.57410252    
  0.522363007       1.26109600     -0.606999993       12799.6475       1.57410252    
  0.718334973       1.73421395     -0.606999993       12799.6475       1.57410252    
   1.04286098       1.56075203     -0.606999993       5439.87256       1.57646251    
   1.44430494       2.16155505     -0.517000020       5439.87256       1.57646251    
   1.83825099       1.83825099     -0.517000020       5439.87256       1.57646251    
   1.32730997       1.32730997     -0.606999993       5439.87256       1.57646251    
   1.32730997       1.32730997     -0.606999993       11190.3135       1.57410204    
  0.965201020      0.965201020     -0.606999993       11190.3135       1.57410204    
  0.758352995       1.13495600     -0.606999993       11190.3135       1.57410204    
   1.04286098       1.56075203     -0.606999993       11190.3135       1.57410204    
   1.32730997       1.32730997     -0.606999993       4399.41895       1.57659137    
   1.83825099       1.83825099     -0.517000020       4399.41895       1.57659137    
   2.16155505       1.44430494     -0.517000020       4399.41895       1.57659137    
   1.56075203       1.04286098     -0.606999993       4399.41895       1.57659137    
   1.56075203       1.04286098     -0.606999993       9094.30273       1.57411337    
   1.13495600      0.758352995     -0.606999993       9094.30273       1.57411337    
  0.965201020      0.965201020     -0.606999993       9094.30273       1.57411337    
   1.32730997       1.32730997     -0.606999993       9094.30273       1.57411337    
   1.56075203       1.04286098     -0.606999993       3133.45728       1.57685161    
   2.16155505       1.44430494     -0.517000020       3133.45728       1.57685161    
   2.40179110      0.994853973     -0.517000020       3133.45728       1.57685161    
   1.73421395      0.718334973     -0.606999993       3133.45728       1.57685161    
   1.73421395      0.718334973     -0.606999993       6628.19482       1.57413685    
   1.26109600      0.522363007     -0.606999993       6628.19482       1.57413685    
   1.13495600      0.758352995     -0.606999993       6628.19482       1.57413685    
   1.56075203       1.04286098     -0.606999993       6628.19482       1.57413685    
   1.73421395      0.718334973     -0.606999993       1814.36499       1.57721114    
   2.40179110      0.994853973     -0.517000020       1814.36499       1.57721114    
   2.54972792      0.507171988     -0.517000020       1814.36499       1.57721114    
   1.84103203      0.366203994     -0.606999993       1814.36499       1.57721114    
   1.84103203      0.366203994     -0.606999993       3953.52905       1.57415938    
   1.33877206      0.266297996     -0.606999993       3953.52905       1.57415938    
   1.26109600      0.522363007     -0.606999993       3953.52905       1.57415938    
   1.73421395      0.718334973     -0.606999993       3953.52905       1.57415938    
   1.84103203      0.366203994     -0.606999993       546.791016       1.57821774    
   2.54972792      0.507171988     -0.517000020       546.791016       1.57821774    
   2.59967995       0.00000000     -0.517000020       546.791016       1.57821774    
   1.87709999       0.00000000     -0.606999993       546.791016       1.57821774    
   1.87709999       0.00000000     -0.606999993       1198.16956       1.57418799    
   1.36500001       0.00000000     -0.606999993       1198.16956       1.57418799    
   1.33877206      0.266297996     -0.606999993       1198.16956       1.57418799    
   1.84103203      0.366203994     -0.606999993       1198.16956       1.57418799    
   1.87709999       0.00000000     -0.606999993       690.649109      -1.56567287    
   2.59967995       0.00000000     -0.517000020       690.649109      -1.56567287    
   2.54972792     -0.507171988     -0.517000020       690.649109      -1.56567287    
   1.84103203     -0.366203994     -0.606999993       690.649109      -1.56567287    
   1.84103203     -0.366203994     -0.606999993       1570.38452      -1.56750786    
   1.33877206     -0.266297996     -0.606999993       1570.38452      -1.56750786    
   1.36500001       0.00000000     -0.606999993       1570.38452      -1.56750786    
   1.87709999       0.00000000     -0.606999993       1570.38452      -1.56750786    
   1.84103203     -0.366203994     -0.606999993       1982.37292      -1.56522346    
   2.54972792     -0.507171988     -0.517000020       1982.37292      -1.56522346    
   2.40179110     -0.994853973     -0.517000020       1982.37292      -1.56522346    
   1.73421395     -0.718334973     -0.606999993       1982.37292      -1.56522346    
   1.73421395     -0.718334973     -0.606999993       4307.56641      -1.56752467    
   1.26109600     -0.522363007     -0.606999993       4307.56641      -1.56752467    
   1.33877206     -0.266297996     -0.606999993       4307.56641      -1.56752467    
   1.84103203     -0.366203994     -0.606999993       4307.56641      -1.56752467    
   1.73421395     -0.718334973     -0.606999993       3305.68188      -1.56529248    
   2.40179110     -0.994853973     -0.517000020       3305.68188      -1.56529248    
   2.16155505      -1.44430494     -0.517000020       3305.68188      -1.56529248    
   1.56075203      -1.04286098     -0.606999993       3305.68188      -1.56529248    
   1.56075203      -1.04286098     -0.606999993       6926.54492      -1.56756318    
   1.13495600     -0.758352995     -0.606999993       6926.54492      -1.56756318    
   1.26109600     -0.522363007     -0.606999993       6926.54492      -1.56756318    