 VARIABLES="X" "Y" "Z" "abs(p) (Pa)" "angle(p) (rad)"
ZONE N=   2709,E =    2358, F=FEPOINT, ET=QUADRILATERAL
   0.00000000      -5.48999977     -0.157000005       53.2092896       1.62046707    
   0.00000000      -4.76741982     -0.246999994       53.2092896       1.62046707    
  0.930077016      -4.67581606     -0.246999994       53.2092896       1.62046707    
   1.07104599      -5.38451099     -0.157000005       53.2092896       1.62046707    
  -1.07104599      -5.38451099     -0.157000005       53.1761093       1.61884320    
 -0.930077016      -4.67581606     -0.246999994       53.1761093       1.61884320    
   0.00000000      -4.76741982     -0.246999994       53.1761093       1.61884320    
   0.00000000      -5.48999977     -0.157000005       53.1761093       1.61884320    
  -2.10093188      -5.07209921     -0.157000005       50.8901939       1.63053727    
  -1.82441294      -4.40452194     -0.246999994       50.8901939       1.63053727    
 -0.930077016      -4.67581606     -0.246999994       50.8901939       1.63053727    
  -1.07104599      -5.38451099     -0.157000005       50.8901939       1.63053727    
  -3.05008101      -4.56476784     -0.157000005       45.0674248       1.63493550    
  -2.64863706      -3.96396494     -0.246999994       45.0674248       1.63493550    
  -1.82441294      -4.40452194     -0.246999994       45.0674248       1.63493550    
  -2.10093188      -5.07209921     -0.157000005       45.0674248       1.63493550    
  -3.88201594      -3.88201594     -0.157000005       40.3184891       1.63228476    
  -3.37107491      -3.37107491     -0.246999994       40.3184891       1.63228476    
  -2.64863706      -3.96396494     -0.246999994       40.3184891       1.63228476    
  -3.05008101      -4.56476784     -0.157000005       40.3184891       1.63228476    
  -4.56476784      -3.05008101     -0.157000005       34.5731239       1.63369346    
  -3.96396494      -2.64863706     -0.246999994       34.5731239       1.63369346    
  -3.37107491      -3.37107491     -0.246999994       34.5731239       1.63369346    
  -3.88201594      -3.88201594     -0.157000005       34.5731239       1.63369346    
  -5.07209921      -2.10093188     -0.157000005       25.2045002       1.61201727    
  -4.40452194      -1.82441294     -0.246999994       25.2045002       1.61201727    
  -3.96396494      -2.64863706     -0.246999994       25.2045002       1.61201727    
  -4.56476784      -3.05008101     -0.157000005       25.2045002       1.61201727    
  -5.38451099      -1.07104599     -0.157000005       15.1417856       1.61374307    
  -4.67581606     -0.930077016     -0.246999994       15.1417856       1.61374307    
  -4.40452194      -1.82441294     -0.246999994       15.1417856       1.61374307    
  -5.07209921      -2.10093188     -0.157000005       15.1417856       1.61374307    
  -5.48999977       0.00000000     -0.157000005       4.95986032       1.62216365    
  -4.76741982       0.00000000     -0.246999994       4.95986032       1.62216365    
  -4.67581606     -0.930077016     -0.246999994       4.95986032       1.62216365    
  -5.38451099      -1.07104599     -0.157000005       4.95986032       1.62216365    
  -5.38451099       1.07104599     -0.157000005       4.98481274      -1.50409770    
  -4.67581606      0.930077016     -0.246999994       4.98481274      -1.50409770    
  -4.76741982       0.00000000     -0.246999994       4.98481274      -1.50409770    
  -5.48999977       0.00000000     -0.157000005       4.98481274      -1.50409770    
  -5.07209921       2.10093188     -0.157000005       15.3184767      -1.51939666    
  -4.40452194       1.82441294     -0.246999994       15.3184767      -1.51939666    
  -4.67581606      0.930077016     -0.246999994       15.3184767      -1.51939666    
  -5.38451099       1.07104599     -0.157000005       15.3184767      -1.51939666    
  -4.56476784       3.05008101     -0.157000005       25.5013657      -1.52050948    
  -3.96396494       2.64863706     -0.246999994       25.5013657      -1.52050948    
  -4.40452194       1.82441294     -0.246999994       25.5013657      -1.52050948    
  -5.07209921       2.10093188     -0.157000005       25.5013657      -1.52050948    
  -3.88201594       3.88201594     -0.157000005       34.6842079      -1.51966989    
  -3.37107491       3.37107491     -0.246999994       34.6842079      -1.51966989    
  -3.96396494       2.64863706     -0.246999994       34.6842079      -1.51966989    
  -4.56476784       3.05008101     -0.157000005       34.6842079      -1.51966989    
  -3.05008101       4.56476784     -0.157000005       41.8443527      -1.50242424    
  -2.64863706       3.96396494     -0.246999994       41.8443527      -1.50242424    
  -3.37107491       3.37107491     -0.246999994       41.8443527      -1.50242424    
  -3.88201594       3.88201594     -0.157000005       41.8443527      -1.50242424    
  -2.10093188       5.07209921     -0.157000005       45.8810425      -1.50575411    
  -1.82441294       4.40452194     -0.246999994       45.8810425      -1.50575411    
  -2.64863706       3.96396494     -0.246999994       45.8810425      -1.50575411    
  -3.05008101       4.56476784     -0.157000005       45.8810425      -1.50575411    
  -1.07104599       5.38451099     -0.157000005       51.0389786      -1.50897980    
 -0.930077016       4.67581606     -0.246999994       51.0389786      -1.50897980    
  -1.82441294       4.40452194     -0.246999994       51.0389786      -1.50897980    
  -2.10093188       5.07209921     -0.157000005       51.0389786      -1.50897980    
   0.00000000       5.48999977     -0.157000005       53.6267319      -1.52614868    
   0.00000000       4.76741982     -0.246999994       53.6267319      -1.52614868    
 -0.930077016       4.67581606     -0.246999994       53.6267319      -1.52614868    
  -1.07104599       5.38451099     -0.157000005       53.6267319      -1.52614868    
   1.07104599       5.38451099     -0.157000005       54.0882263      -1.52094102    
  0.930077016       4.67581606     -0.246999994       54.0882263      -1.52094102    
   0.00000000       4.76741982     -0.246999994       54.0882263      -1.52094102    
   0.00000000       5.48999977     -0.157000005       54.0882263      -1.52094102    
   2.10093188       5.07209921     -0.157000005       50.6215706      -1.51322842    
   1.82441294       4.40452194     -0.246999994       50.6215706      -1.51322842    
  0.930077016       4.67581606     -0.246999994       50.6215706      -1.51322842    
   1.07104599       5.38451099     -0.157000005       50.6215706      -1.51322842    
   3.05008101       4.56476784     -0.157000005       45.8458290      -1.50584054    
   2.64863706       3.96396494     -0.246999994       45.8458290      -1.50584054    
   1.82441294       4.40452194     -0.246999994       45.8458290      -1.50584054    
   2.10093188       5.07209921     -0.157000005       45.8458290      -1.50584054    
   3.88201594       3.88201594     -0.157000005       41.7974091      -1.50589049    
   3.37107491       3.37107491     -0.246999994       41.7974091      -1.50589049    
   2.64863706       3.96396494     -0.246999994       41.7974091      -1.50589049    
   3.05008101       4.56476784     -0.157000005       41.7974091      -1.50589049    
   4.56476784       3.05008101     -0.157000005       34.8853912      -1.51382625    
   3.96396494       2.64863706     -0.246999994       34.8853912      -1.51382625    
   3.37107491       3.37107491     -0.246999994       34.8853912      -1.51382625    
   3.88201594       3.88201594     -0.157000005       34.8853912      -1.51382625    
   5.07209921       2.10093188     -0.157000005       25.4012413      -1.52667308    
   4.40452194       1.82441294     -0.246999994       25.4012413      -1.52667308    
   3.96396494       2.64863706     -0.246999994       25.4012413      -1.52667308    
   4.56476784       3.05008101     -0.157000005       25.4012413      -1.52667308    
   5.38451099       1.07104599     -0.157000005       15.0545101      -1.52306509    
   4.67581606      0.930077016     -0.246999994       15.0545101      -1.52306509    
   4.40452194       1.82441294     -0.246999994       15.0545101      -1.52306509    
   5.07209921       2.10093188     -0.157000005       15.0545101      -1.52306509    
   5.48999977       0.00000000     -0.157000005       4.85199785      -1.53164887    
   4.76741982       0.00000000     -0.246999994       4.85199785      -1.53164887    
   4.67581606      0.930077016     -0.246999994       4.85199785      -1.53164887    
   5.38451099       1.07104599     -0.157000005       4.85199785      -1.53164887    
   5.38451099      -1.07104599     -0.157000005       5.03677654       1.62606692    
   4.67581606     -0.930077016     -0.246999994       5.03677654       1.62606692    
   4.76741982       0.00000000     -0.246999994       5.03677654       1.62606692    
   5.48999977       0.00000000     -0.157000005       5.03677654       1.62606692    
   5.07209921      -2.10093188     -0.157000005       15.2813072       1.61721969    
   4.40452194      -1.82441294     -0.246999994       15.2813072       1.61721969    
   4.67581606     -0.930077016     -0.246999994       15.2813072       1.61721969    
   5.38451099      -1.07104599     -0.157000005       15.2813072       1.61721969    
   4.56476784      -3.05008101     -0.157000005       25.2853107       1.61901331    
   3.96396494      -2.64863706     -0.246999994       25.2853107       1.61901331    
   4.40452194      -1.82441294     -0.246999994       25.2853107       1.61901331    
   5.07209921      -2.10093188     -0.157000005       25.2853107       1.61901331    
   3.88201594      -3.88201594     -0.157000005       34.2622871       1.62520885    
   3.37107491      -3.37107491     -0.246999994       34.2622871       1.62520885    
   3.96396494      -2.64863706     -0.246999994       34.2622871       1.62520885    
   4.56476784      -3.05008101     -0.157000005       34.2622871       1.62520885    
   3.05008101      -4.56476784     -0.157000005       40.7581253       1.64083111    
   2.64863706      -3.96396494     -0.246999994       40.7581253       1.64083111    
   3.37107491      -3.37107491     -0.246999994       40.7581253       1.64083111    
   3.88201594      -3.88201594     -0.157000005       40.7581253       1.64083111    
   2.10093188      -5.07209921     -0.157000005       45.1103783       1.63471496    
   1.82441294      -4.40452194     -0.246999994       45.1103783       1.63471496    
   2.64863706      -3.96396494     -0.246999994       45.1103783       1.63471496    
   3.05008101      -4.56476784     -0.157000005       45.1103783       1.63471496    
   1.07104599      -5.38451099     -0.157000005       50.5374947       1.62596929    
  0.930077016      -4.67581606     -0.246999994       50.5374947       1.62596929    
   1.82441294      -4.40452194     -0.246999994       50.5374947       1.62596929    
   2.10093188      -5.07209921     -0.157000005       50.5374947       1.62596929    
   0.00000000      -1.87709999     -0.606999993       1136.61096       1.57469881    
   0.00000000      -1.36500001     -0.606999993       1136.61096       1.57469881    
  0.266297996      -1.33877206     -0.606999993       1136.61096       1.57469881    
  0.366203994      -1.84103203     -0.606999993       1136.61096       1.57469881    
   0.00000000      -1.87709999     -0.606999993       584.665100      -1.56686831    
   0.00000000      -2.59967995     -0.517000020       584.665100      -1.56686831    
 -0.507171988      -2.54972792     -0.517000020       584.665100      -1.56686831    
 -0.366203994      -1.84103203     -0.606999993       584.665100      -1.56686831    
 -0.366203994      -1.84103203     -0.606999993       1135.04138       1.57473421    
 -0.266297996      -1.33877206     -0.606999993       1135.04138       1.57473421    
   0.00000000      -1.36500001     -0.606999993       1135.04138       1.57473421    
   0.00000000      -1.87709999     -0.606999993       1135.04138       1.57473421    
 -0.366203994      -1.84103203     -0.606999993       575.993530      -1.56532705    
 -0.507171988      -2.54972792     -0.517000020       575.993530      -1.56532705    
 -0.994853973      -2.40179110     -0.517000020       575.993530      -1.56532705    
 -0.718334973      -1.73421395     -0.606999993       575.993530      -1.56532705    
 -0.718334973      -1.73421395     -0.606999993       1090.19104       1.57492435    
 -0.522363007      -1.26109600     -0.606999993       1090.19104       1.57492435    
 -0.266297996      -1.33877206     -0.606999993       1090.19104       1.57492435    
 -0.366203994      -1.84103203     -0.606999993       1090.19104       1.57492435    
 -0.718334973      -1.73421395     -0.606999993       551.388733      -1.56401932    
 -0.994853973      -2.40179110     -0.517000020       551.388733      -1.56401932    
  -1.44430494      -2.16155505     -0.517000020       551.388733      -1.56401932    
  -1.04286098      -1.56075203     -0.606999993       551.388733      -1.56401932    
  -1.04286098      -1.56075203     -0.606999993       1001.23767       1.57541668    
 -0.758352995      -1.13495600     -0.606999993       1001.23767       1.57541668    
 -0.522363007      -1.26109600     -0.606999993       1001.23767       1.57541668    
 -0.718334973      -1.73421395     -0.606999993       1001.23767       1.57541668    
  -1.04286098      -1.56075203     -0.606999993       500.697021      -1.56447828    
  -1.44430494      -2.16155505     -0.517000020       500.697021      -1.56447828    
  -1.83825099      -1.83825099     -0.517000020       500.697021      -1.56447828    
  -1.32730997      -1.32730997     -0.606999993       500.697021      -1.56447828    
  -1.32730997      -1.32730997     -0.606999993       868.932129       1.57610035    
 -0.965201020     -0.965201020     -0.606999993       868.932129       1.57610035    
 -0.758352995      -1.13495600     -0.606999993       868.932129       1.57610035    
  -1.04286098      -1.56075203     -0.606999993       868.932129       1.57610035    
  -1.32730997      -1.32730997     -0.606999993       418.614441      -1.56647575    
  -1.83825099      -1.83825099     -0.517000020       418.614441      -1.56647575    
  -2.16155505      -1.44430494     -0.517000020       418.614441      -1.56647575    
  -1.56075203      -1.04286098     -0.606999993       418.614441      -1.56647575    
  -1.56075203      -1.04286098     -0.606999993       699.377197       1.57636929    
  -1.13495600     -0.758352995     -0.606999993       699.377197       1.57636929    
 -0.965201020     -0.965201020     -0.606999993       699.377197       1.57636929    
  -1.32730997      -1.32730997     -0.606999993       699.377197       1.57636929    
  -1.56075203      -1.04286098     -0.606999993       313.030701      -1.56857359    
  -2.16155505      -1.44430494     -0.517000020       313.030701      -1.56857359    
  -2.40179110     -0.994853973     -0.517000020       313.030701      -1.56857359    
  -1.73421395     -0.718334973     -0.606999993       313.030701      -1.56857359    
  -1.73421395     -0.718334973     -0.606999993       502.919861       1.57551730    
  -1.26109600     -0.522363007     -0.606999993       502.919861       1.57551730    
  -1.13495600     -0.758352995     -0.606999993       502.919861       1.57551730    
  -1.56075203      -1.04286098     -0.606999993       502.919861       1.57551730    
  -1.73421395     -0.718334973     -0.606999993       193.342133      -1.56965744    
  -2.40179110     -0.994853973     -0.517000020       193.342133      -1.56965744    
  -2.54972792     -0.507171988     -0.517000020       193.342133      -1.56965744    
  -1.84103203     -0.366203994     -0.606999993       193.342133      -1.56965744    
  -1.84103203     -0.366203994     -0.606999993       293.689362       1.57341313    
  -1.33877206     -0.266297996     -0.606999993       293.689362       1.57341313    
  -1.26109600     -0.522363007     -0.606999993       293.689362       1.57341313    
  -1.73421395     -0.718334973     -0.606999993       293.689362       1.57341313    
  -1.84103203     -0.366203994     -0.606999993       71.1810532      -1.57082713    
  -2.54972792     -0.507171988     -0.517000020       71.1810532      -1.57082713    
  -2.59967995       0.00000000     -0.517000020       71.1810532      -1.57082713    
  -1.87709999       0.00000000     -0.606999993       71.1810532      -1.57082713    
  -1.87709999       0.00000000     -0.606999993       81.7334442       1.56966364    
  -1.36500001       0.00000000     -0.606999993       81.7334442       1.56966364    
  -1.33877206     -0.266297996     -0.606999993       81.7334442       1.56966364    
  -1.84103203     -0.366203994     -0.606999993       81.7334442       1.56966364    
  -1.87709999       0.00000000     -0.606999993       51.4710121       1.57566023    
  -2.59967995       0.00000000     -0.517000020       51.4710121       1.57566023    
  -2.54972792      0.507171988     -0.517000020       51.4710121       1.57566023    
  -1.84103203      0.366203994     -0.606999993       51.4710121       1.57566023    
  -1.84103203      0.366203994     -0.606999993       127.505554      -1.56828141    
  -1.33877206      0.266297996     -0.606999993       127.505554      -1.56828141    
  -1.36500001       0.00000000     -0.606999993       127.505554      -1.56828141    
  -1.87709999       0.00000000     -0.606999993       127.505554      -1.56828141    
  -1.84103203      0.366203994     -0.606999993       171.741180       1.57324958    
  -2.54972792      0.507171988     -0.517000020       171.741180       1.57324958    
  -2.40179110      0.994853973     -0.517000020       171.741180       1.57324958    
  -1.73421395      0.718334973     -0.606999993       171.741180       1.57324958    
  -1.73421395      0.718334973     -0.606999993       334.416901      -1.56836975    
  -1.26109600      0.522363007     -0.606999993       334.416901      -1.56836975    
  -1.33877206      0.266297996     -0.606999993       334.416901      -1.56836975    
  -1.84103203      0.366203994     -0.606999993       334.416901      -1.56836975    
  -1.73421395      0.718334973     -0.606999993       289.063202       1.57317007    
  -2.40179110      0.994853973     -0.517000020       289.063202       1.57317007    
  -2.16155505       1.44430494     -0.517000020       289.063202       1.57317007    
  -1.56075203       1.04286098     -0.606999993       289.063202       1.57317007    
  -1.56075203       1.04286098     -0.606999993       536.027039      -1.56699693    
  -1.13495600      0.758352995     -0.606999993       536.027039      -1.56699693    
  -1.26109600      0.522363007     -0.606999993       536.027039      -1.56699693    
  -1.73421395      0.718334973     -0.606999993       536.027039      -1.56699693    
  -1.56075203       1.04286098     -0.606999993       393.976349       1.57472432    
  -2.16155505       1.44430494     -0.517000020       393.976349       1.57472432    
  -1.83825099       1.83825099     -0.517000020       393.976349       1.57472432    
  -1.32730997       1.32730997     -0.606999993       393.976349       1.57472432    
  -1.32730997       1.32730997     -0.606999993       725.116089      -1.56601799    
 -0.965201020      0.965201020     -0.606999993       725.116089      -1.56601799    
  -1.13495600      0.758352995     -0.606999993       725.116089      -1.56601799    
  -1.56075203       1.04286098     -0.606999993       725.116089      -1.56601799    
  -1.32730997       1.32730997     -0.606999993       478.239136       1.57681561    
  -1.83825099       1.83825099     -0.517000020       478.239136       1.57681561    
  -1.44430494       2.16155505     -0.517000020       478.239136       1.57681561    
  -1.04286098       1.56075203     -0.606999993       478.239136       1.57681561    
  -1.04286098       1.56075203     -0.606999993       888.872803      -1.56591129    
 -0.758352995       1.13495600     -0.606999993       888.872803      -1.56591129    
 -0.965201020      0.965201020     -0.606999993       888.872803      -1.56591129    
  -1.32730997       1.32730997     -0.606999993       888.872803      -1.56591129    
  -1.04286098       1.56075203     -0.606999993       533.359009       1.57765031    
  -1.44430494       2.16155505     -0.517000020       533.359009       1.57765031    
 -0.994853973       2.40179110     -0.517000020       533.359009       1.57765031    
 -0.718334973       1.73421395     -0.606999993       533.359009       1.57765031    
 -0.718334973       1.73421395     -0.606999993       1016.93604      -1.56627500    
 -0.522363007       1.26109600     -0.606999993       1016.93604      -1.56627500    
 -0.758352995       1.13495600     -0.606999993       1016.93604      -1.56627500    
  -1.04286098       1.56075203     -0.606999993       1016.93604      -1.56627500    
 -0.718334973       1.73421395     -0.606999993       562.102844       1.57656980    
 -0.994853973       2.40179110     -0.517000020       562.102844       1.57656980    
 -0.507171988       2.54972792     -0.517000020       562.102844       1.57656980    
 -0.366203994       1.84103203     -0.606999993       562.102844       1.57656980    
 -0.366203994       1.84103203     -0.606999993       1102.24097      -1.56656516    
 -0.266297996       1.33877206     -0.606999993       1102.24097      -1.56656516    
 -0.522363007       1.26109600     -0.606999993       1102.24097      -1.56656516    
 -0.718334973       1.73421395     -0.606999993       1102.24097      -1.56656516    
 -0.366203994       1.84103203     -0.606999993       573.359192       1.57501757    
 -0.507171988       2.54972792     -0.517000020       573.359192       1.57501757    
   0.00000000       2.59967995     -0.517000020       573.359192       1.57501757    
   0.00000000       1.87709999     -0.606999993       573.359192       1.57501757    
   0.00000000       1.87709999     -0.606999993       1142.71655      -1.56663775    
   0.00000000       1.36500001     -0.606999993       1142.71655      -1.56663775    
 -0.266297996       1.33877206     -0.606999993       1142.71655      -1.56663775    
 -0.366203994       1.84103203     -0.606999993       1142.71655      -1.56663775    
   0.00000000       1.87709999     -0.606999993       575.112976       1.57499576    
   0.00000000       2.59967995     -0.517000020       575.112976       1.57499576    
  0.507171988       2.54972792     -0.517000020       575.112976       1.57499576    
  0.366203994       1.84103203     -0.606999993       575.112976       1.57499576    
  0.366203994       1.84103203     -0.606999993       1138.11182      -1.56661952    
  0.266297996       1.33877206     -0.606999993       1138.11182      -1.56661952    
   0.00000000       1.36500001     -0.606999993       1138.11182      -1.56661952    
   0.00000000       1.87709999     -0.606999993       1138.11182      -1.56661952    
  0.366203994       1.84103203     -0.606999993       567.030701       1.57651126    
  0.507171988       2.54972792     -0.517000020       567.030701       1.57651126    
  0.994853973       2.40179110     -0.517000020       567.030701       1.57651126    
  0.718334973       1.73421395     -0.606999993       567.030701       1.57651126    
  0.718334973       1.73421395     -0.606999993       1088.99622      -1.56651723    
  0.522363007       1.26109600     -0.606999993       1088.99622      -1.56651723    
  0.266297996       1.33877206     -0.606999993       1088.99622      -1.56651723    
  0.366203994       1.84103203     -0.606999993       1088.99622      -1.56651723    
  0.718334973       1.73421395     -0.606999993       540.510925       1.57758224    
  0.994853973       2.40179110     -0.517000020       540.510925       1.57758224    
   1.44430494       2.16155505     -0.517000020       540.510925       1.57758224    
   1.04286098       1.56075203     -0.606999993       540.510925       1.57758224    
   1.04286098       1.56075203     -0.606999993       996.655212      -1.56620693    
  0.758352995       1.13495600     -0.606999993       996.655212      -1.56620693    
  0.522363007       1.26109600     -0.606999993       996.655212      -1.56620693    
  0.718334973       1.73421395     -0.606999993       996.655212      -1.56620693    
   1.04286098       1.56075203     -0.606999993       486.303467       1.57678092    
   1.44430494       2.16155505     -0.517000020       486.303467       1.57678092    
   1.83825099       1.83825099     -0.517000020       486.303467       1.57678092    
   1.32730997       1.32730997     -0.606999993       486.303467       1.57678092    
   1.32730997       1.32730997     -0.606999993       863.771423      -1.56582236    
  0.965201020      0.965201020     -0.606999993       863.771423      -1.56582236    
  0.758352995       1.13495600     -0.606999993       863.771423      -1.56582236    
   1.04286098       1.56075203     -0.606999993       863.771423      -1.56582236    
   1.32730997       1.32730997     -0.606999993       401.840302       1.57472801    
   1.83825099       1.83825099     -0.517000020       401.840302       1.57472801    
   2.16155505       1.44430494     -0.517000020       401.840302       1.57472801    
   1.56075203       1.04286098     -0.606999993       401.840302       1.57472801    
   1.56075203       1.04286098     -0.606999993       697.363464      -1.56589222    
   1.13495600      0.758352995     -0.606999993       697.363464      -1.56589222    
  0.965201020      0.965201020     -0.606999993       697.363464      -1.56589222    
   1.32730997       1.32730997     -0.606999993       697.363464      -1.56589222    
   1.56075203       1.04286098     -0.606999993       296.214691       1.57313299    
   2.16155505       1.44430494     -0.517000020       296.214691       1.57313299    
   2.40179110      0.994853973     -0.517000020       296.214691       1.57313299    
   1.73421395      0.718334973     -0.606999993       296.214691       1.57313299    
   1.73421395      0.718334973     -0.606999993       506.991974      -1.56680119    
   1.26109600      0.522363007     -0.606999993       506.991974      -1.56680119    
   1.13495600      0.758352995     -0.606999993       506.991974      -1.56680119    
   1.56075203       1.04286098     -0.606999993       506.991974      -1.56680119    
   1.73421395      0.718334973     -0.606999993       178.390381       1.57299745    
   2.40179110      0.994853973     -0.517000020       178.390381       1.57299745    
   2.54972792      0.507171988     -0.517000020       178.390381       1.57299745    
   1.84103203      0.366203994     -0.606999993       178.390381       1.57299745    
   1.84103203      0.366203994     -0.606999993       304.743591      -1.56801188    
   1.33877206      0.266297996     -0.606999993       304.743591      -1.56801188    
   1.26109600      0.522363007     -0.606999993       304.743591      -1.56801188    
   1.73421395      0.718334973     -0.606999993       304.743591      -1.56801188    
   1.84103203      0.366203994     -0.606999993       58.2244568       1.57430685    
   2.54972792      0.507171988     -0.517000020       58.2244568       1.57430685    
   2.59967995       0.00000000     -0.517000020       58.2244568       1.57430685    
   1.87709999       0.00000000     -0.606999993       58.2244568       1.57430685    
   1.87709999       0.00000000     -0.606999993       97.2940369      -1.56685972    
   1.36500001       0.00000000     -0.606999993       97.2940369      -1.56685972    
   1.33877206      0.266297996     -0.606999993       97.2940369      -1.56685972    
   1.84103203      0.366203994     -0.606999993       97.2940369      -1.56685972    
   1.87709999       0.00000000     -0.606999993       63.7462120      -1.57035208    
   2.59967995       0.00000000     -0.517000020       63.7462120      -1.57035208    
   2.54972792     -0.507171988     -0.517000020       63.7462120      -1.57035208    
   1.84103203     -0.366203994     -0.606999993       63.7462120      -1.57035208    
   1.84103203     -0.366203994     -0.606999993       112.396202       1.56962109    
   1.33877206     -0.266297996     -0.606999993       112.396202       1.56962109    
   1.36500001       0.00000000     -0.606999993       112.396202       1.56962109    
   1.87709999       0.00000000     -0.606999993       112.396202       1.56962109    
   1.84103203     -0.366203994     -0.606999993       185.314240      -1.56963277    
   2.54972792     -0.507171988     -0.517000020       185.314240      -1.56963277    
   2.40179110     -0.994853973     -0.517000020       185.314240      -1.56963277    
   1.73421395     -0.718334973     -0.606999993       185.314240      -1.56963277    
   1.73421395     -0.718334973     -0.606999993       324.001587       1.57321084    
   1.26109600     -0.522363007     -0.606999993       324.001587       1.57321084    
   1.33877206     -0.266297996     -0.606999993       324.001587       1.57321084    
   1.84103203     -0.366203994     -0.606999993       324.001587       1.57321084    
   1.73421395     -0.718334973     -0.606999993       305.351898      -1.56861055    
   2.40179110     -0.994853973     -0.517000020       305.351898      -1.56861055    
   2.16155505      -1.44430494     -0.517000020       305.351898      -1.56861055    
   1.56075203      -1.04286098     -0.606999993       305.351898      -1.56861055    
   1.56075203      -1.04286098     -0.606999993       531.074707       1.57536232    
   1.13495600     -0.758352995     -0.606999993       531.074707       1.57536232    
   1.26109600     -0.522363007     -0.606999993       531.074707       1.57536232    