 VARIABLES="X" "Y" "Z" "abs(p) (Pa)" "angle(p) (rad)"
ZONE N=   2709,E =    2358, F=FEPOINT, ET=QUADRILATERAL
   0.00000000      -5.48999977     -0.157000005       265.291046     -0.768783152    
   0.00000000      -4.76741982     -0.246999994       265.291046     -0.768783152    
  0.930077016      -4.67581606     -0.246999994       265.291046     -0.768783152    
   1.07104599      -5.38451099     -0.157000005       265.291046     -0.768783152    
  -1.07104599      -5.38451099     -0.157000005       265.274658     -0.768911302    
 -0.930077016      -4.67581606     -0.246999994       265.274658     -0.768911302    
   0.00000000      -4.76741982     -0.246999994       265.274658     -0.768911302    
   0.00000000      -5.48999977     -0.157000005       265.274658     -0.768911302    
  -2.10093188      -5.07209921     -0.157000005       265.197266     -0.769889653    
  -1.82441294      -4.40452194     -0.246999994       265.197266     -0.769889653    
 -0.930077016      -4.67581606     -0.246999994       265.197266     -0.769889653    
  -1.07104599      -5.38451099     -0.157000005       265.197266     -0.769889653    
  -3.05008101      -4.56476784     -0.157000005       265.246735     -0.769092679    
  -2.64863706      -3.96396494     -0.246999994       265.246735     -0.769092679    
  -1.82441294      -4.40452194     -0.246999994       265.246735     -0.769092679    
  -2.10093188      -5.07209921     -0.157000005       265.246735     -0.769092679    
  -3.88201594      -3.88201594     -0.157000005       265.168427     -0.768972397    
  -3.37107491      -3.37107491     -0.246999994       265.168427     -0.768972397    
  -2.64863706      -3.96396494     -0.246999994       265.168427     -0.768972397    
  -3.05008101      -4.56476784     -0.157000005       265.168427     -0.768972397    
  -4.56476784      -3.05008101     -0.157000005       264.879944     -0.769472122    
  -3.96396494      -2.64863706     -0.246999994       264.879944     -0.769472122    
  -3.37107491      -3.37107491     -0.246999994       264.879944     -0.769472122    
  -3.88201594      -3.88201594     -0.157000005       264.879944     -0.769472122    
  -5.07209921      -2.10093188     -0.157000005       264.862518     -0.768126845    
  -4.40452194      -1.82441294     -0.246999994       264.862518     -0.768126845    
  -3.96396494      -2.64863706     -0.246999994       264.862518     -0.768126845    
  -4.56476784      -3.05008101     -0.157000005       264.862518     -0.768126845    
  -5.38451099      -1.07104599     -0.157000005       264.849152     -0.767962635    
  -4.67581606     -0.930077016     -0.246999994       264.849152     -0.767962635    
  -4.40452194      -1.82441294     -0.246999994       264.849152     -0.767962635    
  -5.07209921      -2.10093188     -0.157000005       264.849152     -0.767962635    
  -5.48999977       0.00000000     -0.157000005       264.725098     -0.768872619    
  -4.76741982       0.00000000     -0.246999994       264.725098     -0.768872619    
  -4.67581606     -0.930077016     -0.246999994       264.725098     -0.768872619    
  -5.38451099      -1.07104599     -0.157000005       264.725098     -0.768872619    
  -5.38451099       1.07104599     -0.157000005       264.684937     -0.769003868    
  -4.67581606      0.930077016     -0.246999994       264.684937     -0.769003868    
  -4.76741982       0.00000000     -0.246999994       264.684937     -0.769003868    
  -5.48999977       0.00000000     -0.157000005       264.684937     -0.769003868    
  -5.07209921       2.10093188     -0.157000005       264.628204     -0.768848300    
  -4.40452194       1.82441294     -0.246999994       264.628204     -0.768848300    
  -4.67581606      0.930077016     -0.246999994       264.628204     -0.768848300    
  -5.38451099       1.07104599     -0.157000005       264.628204     -0.768848300    
  -4.56476784       3.05008101     -0.157000005       264.591370     -0.768599868    
  -3.96396494       2.64863706     -0.246999994       264.591370     -0.768599868    
  -4.40452194       1.82441294     -0.246999994       264.591370     -0.768599868    
  -5.07209921       2.10093188     -0.157000005       264.591370     -0.768599868    
  -3.88201594       3.88201594     -0.157000005       264.745605     -0.768044233    
  -3.37107491       3.37107491     -0.246999994       264.745605     -0.768044233    
  -3.96396494       2.64863706     -0.246999994       264.745605     -0.768044233    
  -4.56476784       3.05008101     -0.157000005       264.745605     -0.768044233    
  -3.05008101       4.56476784     -0.157000005       264.710236     -0.768938541    
  -2.64863706       3.96396494     -0.246999994       264.710236     -0.768938541    
  -3.37107491       3.37107491     -0.246999994       264.710236     -0.768938541    
  -3.88201594       3.88201594     -0.157000005       264.710236     -0.768938541    
  -2.10093188       5.07209921     -0.157000005       264.779022     -0.768249989    
  -1.82441294       4.40452194     -0.246999994       264.779022     -0.768249989    
  -2.64863706       3.96396494     -0.246999994       264.779022     -0.768249989    
  -3.05008101       4.56476784     -0.157000005       264.779022     -0.768249989    
  -1.07104599       5.38451099     -0.157000005       264.682709     -0.768897295    
 -0.930077016       4.67581606     -0.246999994       264.682709     -0.768897295    
  -1.82441294       4.40452194     -0.246999994       264.682709     -0.768897295    
  -2.10093188       5.07209921     -0.157000005       264.682709     -0.768897295    
   0.00000000       5.48999977     -0.157000005       264.720551     -0.768059790    
   0.00000000       4.76741982     -0.246999994       264.720551     -0.768059790    
 -0.930077016       4.67581606     -0.246999994       264.720551     -0.768059790    
  -1.07104599       5.38451099     -0.157000005       264.720551     -0.768059790    
   1.07104599       5.38451099     -0.157000005       264.622589     -0.768679738    
  0.930077016       4.67581606     -0.246999994       264.622589     -0.768679738    
   0.00000000       4.76741982     -0.246999994       264.622589     -0.768679738    
   0.00000000       5.48999977     -0.157000005       264.622589     -0.768679738    
   2.10093188       5.07209921     -0.157000005       264.769745     -0.768141210    
   1.82441294       4.40452194     -0.246999994       264.769745     -0.768141210    
  0.930077016       4.67581606     -0.246999994       264.769745     -0.768141210    
   1.07104599       5.38451099     -0.157000005       264.769745     -0.768141210    
   3.05008101       4.56476784     -0.157000005       264.757294     -0.768105984    
   2.64863706       3.96396494     -0.246999994       264.757294     -0.768105984    
   1.82441294       4.40452194     -0.246999994       264.757294     -0.768105984    
   2.10093188       5.07209921     -0.157000005       264.757294     -0.768105984    
   3.88201594       3.88201594     -0.157000005       264.629181     -0.769004822    
   3.37107491       3.37107491     -0.246999994       264.629181     -0.769004822    
   2.64863706       3.96396494     -0.246999994       264.629181     -0.769004822    
   3.05008101       4.56476784     -0.157000005       264.629181     -0.769004822    
   4.56476784       3.05008101     -0.157000005       264.556549     -0.768588722    
   3.96396494       2.64863706     -0.246999994       264.556549     -0.768588722    
   3.37107491       3.37107491     -0.246999994       264.556549     -0.768588722    
   3.88201594       3.88201594     -0.157000005       264.556549     -0.768588722    
   5.07209921       2.10093188     -0.157000005       264.492432     -0.768508911    
   4.40452194       1.82441294     -0.246999994       264.492432     -0.768508911    
   3.96396494       2.64863706     -0.246999994       264.492432     -0.768508911    
   4.56476784       3.05008101     -0.157000005       264.492432     -0.768508911    
   5.38451099       1.07104599     -0.157000005       264.716492     -0.767705142    
   4.67581606      0.930077016     -0.246999994       264.716492     -0.767705142    
   4.40452194       1.82441294     -0.246999994       264.716492     -0.767705142    
   5.07209921       2.10093188     -0.157000005       264.716492     -0.767705142    
   5.48999977       0.00000000     -0.157000005       264.818298     -0.767635822    
   4.76741982       0.00000000     -0.246999994       264.818298     -0.767635822    
   4.67581606      0.930077016     -0.246999994       264.818298     -0.767635822    
   5.38451099       1.07104599     -0.157000005       264.818298     -0.767635822    
   5.38451099      -1.07104599     -0.157000005       264.857147     -0.767587364    
   4.67581606     -0.930077016     -0.246999994       264.857147     -0.767587364    
   4.76741982       0.00000000     -0.246999994       264.857147     -0.767587364    
   5.48999977       0.00000000     -0.157000005       264.857147     -0.767587364    
   5.07209921      -2.10093188     -0.157000005       264.872864     -0.767505467    
   4.40452194      -1.82441294     -0.246999994       264.872864     -0.767505467    
   4.67581606     -0.930077016     -0.246999994       264.872864     -0.767505467    
   5.38451099      -1.07104599     -0.157000005       264.872864     -0.767505467    
   4.56476784      -3.05008101     -0.157000005       264.923126     -0.767607093    
   3.96396494      -2.64863706     -0.246999994       264.923126     -0.767607093    
   4.40452194      -1.82441294     -0.246999994       264.923126     -0.767607093    
   5.07209921      -2.10093188     -0.157000005       264.923126     -0.767607093    
   3.88201594      -3.88201594     -0.157000005       265.064789     -0.768229723    
   3.37107491      -3.37107491     -0.246999994       265.064789     -0.768229723    
   3.96396494      -2.64863706     -0.246999994       265.064789     -0.768229723    
   4.56476784      -3.05008101     -0.157000005       265.064789     -0.768229723    
   3.05008101      -4.56476784     -0.157000005       265.090454     -0.769454718    
   2.64863706      -3.96396494     -0.246999994       265.090454     -0.769454718    
   3.37107491      -3.37107491     -0.246999994       265.090454     -0.769454718    
   3.88201594      -3.88201594     -0.157000005       265.090454     -0.769454718    
   2.10093188      -5.07209921     -0.157000005       265.260376     -0.768916845    
   1.82441294      -4.40452194     -0.246999994       265.260376     -0.768916845    
   2.64863706      -3.96396494     -0.246999994       265.260376     -0.768916845    
   3.05008101      -4.56476784     -0.157000005       265.260376     -0.768916845    
   1.07104599      -5.38451099     -0.157000005       265.329010     -0.768939555    
  0.930077016      -4.67581606     -0.246999994       265.329010     -0.768939555    
   1.82441294      -4.40452194     -0.246999994       265.329010     -0.768939555    
   2.10093188      -5.07209921     -0.157000005       265.329010     -0.768939555    
   0.00000000      -1.87709999     -0.606999993       547.719788      -1.25162780    
   0.00000000      -1.36500001     -0.606999993       547.719788      -1.25162780    
  0.266297996      -1.33877206     -0.606999993       547.719788      -1.25162780    
  0.366203994      -1.84103203     -0.606999993       547.719788      -1.25162780    
   0.00000000      -1.87709999     -0.606999993       461.942169      -1.19637918    
   0.00000000      -2.59967995     -0.517000020       461.942169      -1.19637918    
 -0.507171988      -2.54972792     -0.517000020       461.942169      -1.19637918    
 -0.366203994      -1.84103203     -0.606999993       461.942169      -1.19637918    
 -0.366203994      -1.84103203     -0.606999993       547.777466      -1.25166273    
 -0.266297996      -1.33877206     -0.606999993       547.777466      -1.25166273    
   0.00000000      -1.36500001     -0.606999993       547.777466      -1.25166273    
   0.00000000      -1.87709999     -0.606999993       547.777466      -1.25166273    
 -0.366203994      -1.84103203     -0.606999993       458.487030      -1.19345951    
 -0.507171988      -2.54972792     -0.517000020       458.487030      -1.19345951    
 -0.994853973      -2.40179110     -0.517000020       458.487030      -1.19345951    
 -0.718334973      -1.73421395     -0.606999993       458.487030      -1.19345951    
 -0.718334973      -1.73421395     -0.606999993       546.294434      -1.25078082    
 -0.522363007      -1.26109600     -0.606999993       546.294434      -1.25078082    
 -0.266297996      -1.33877206     -0.606999993       546.294434      -1.25078082    
 -0.366203994      -1.84103203     -0.606999993       546.294434      -1.25078082    
 -0.718334973      -1.73421395     -0.606999993       455.595703      -1.19098818    
 -0.994853973      -2.40179110     -0.517000020       455.595703      -1.19098818    
  -1.44430494      -2.16155505     -0.517000020       455.595703      -1.19098818    
  -1.04286098      -1.56075203     -0.606999993       455.595703      -1.19098818    
  -1.04286098      -1.56075203     -0.606999993       545.247742      -1.25016546    
 -0.758352995      -1.13495600     -0.606999993       545.247742      -1.25016546    
 -0.522363007      -1.26109600     -0.606999993       545.247742      -1.25016546    
 -0.718334973      -1.73421395     -0.606999993       545.247742      -1.25016546    
  -1.04286098      -1.56075203     -0.606999993       456.343231      -1.19166684    
  -1.44430494      -2.16155505     -0.517000020       456.343231      -1.19166684    
  -1.83825099      -1.83825099     -0.517000020       456.343231      -1.19166684    
  -1.32730997      -1.32730997     -0.606999993       456.343231      -1.19166684    
  -1.32730997      -1.32730997     -0.606999993       546.308655      -1.25082707    
 -0.965201020     -0.965201020     -0.606999993       546.308655      -1.25082707    
 -0.758352995      -1.13495600     -0.606999993       546.308655      -1.25082707    
  -1.04286098      -1.56075203     -0.606999993       546.308655      -1.25082707    
  -1.32730997      -1.32730997     -0.606999993       460.110626      -1.19493210    
  -1.83825099      -1.83825099     -0.517000020       460.110626      -1.19493210    
  -2.16155505      -1.44430494     -0.517000020       460.110626      -1.19493210    
  -1.56075203      -1.04286098     -0.606999993       460.110626      -1.19493210    
  -1.56075203      -1.04286098     -0.606999993       549.100891      -1.25252354    
  -1.13495600     -0.758352995     -0.606999993       549.100891      -1.25252354    
 -0.965201020     -0.965201020     -0.606999993       549.100891      -1.25252354    
  -1.32730997      -1.32730997     -0.606999993       549.100891      -1.25252354    
  -1.56075203      -1.04286098     -0.606999993       463.271729      -1.19763541    
  -2.16155505      -1.44430494     -0.517000020       463.271729      -1.19763541    
  -2.40179110     -0.994853973     -0.517000020       463.271729      -1.19763541    
  -1.73421395     -0.718334973     -0.606999993       463.271729      -1.19763541    
  -1.73421395     -0.718334973     -0.606999993       551.622559      -1.25403857    
  -1.26109600     -0.522363007     -0.606999993       551.622559      -1.25403857    
  -1.13495600     -0.758352995     -0.606999993       551.622559      -1.25403857    
  -1.56075203      -1.04286098     -0.606999993       551.622559      -1.25403857    
  -1.73421395     -0.718334973     -0.606999993       463.087585      -1.19751537    
  -2.40179110     -0.994853973     -0.517000020       463.087585      -1.19751537    
  -2.54972792     -0.507171988     -0.517000020       463.087585      -1.19751537    
  -1.84103203     -0.366203994     -0.606999993       463.087585      -1.19751537    
  -1.84103203     -0.366203994     -0.606999993       552.376343      -1.25450146    
  -1.33877206     -0.266297996     -0.606999993       552.376343      -1.25450146    
  -1.26109600     -0.522363007     -0.606999993       552.376343      -1.25450146    
  -1.73421395     -0.718334973     -0.606999993       552.376343      -1.25450146    
  -1.84103203     -0.366203994     -0.606999993       461.329346      -1.19606304    
  -2.54972792     -0.507171988     -0.517000020       461.329346      -1.19606304    
  -2.59967995       0.00000000     -0.517000020       461.329346      -1.19606304    
  -1.87709999       0.00000000     -0.606999993       461.329346      -1.19606304    
  -1.87709999       0.00000000     -0.606999993       552.009155      -1.25430274    
  -1.36500001       0.00000000     -0.606999993       552.009155      -1.25430274    
  -1.33877206     -0.266297996     -0.606999993       552.009155      -1.25430274    
  -1.84103203     -0.366203994     -0.606999993       552.009155      -1.25430274    
  -1.87709999       0.00000000     -0.606999993       461.526886      -1.19625306    
  -2.59967995       0.00000000     -0.517000020       461.526886      -1.19625306    
  -2.54972792      0.507171988     -0.517000020       461.526886      -1.19625306    
  -1.84103203      0.366203994     -0.606999993       461.526886      -1.19625306    
  -1.84103203      0.366203994     -0.606999993       552.139221      -1.25439405    
  -1.33877206      0.266297996     -0.606999993       552.139221      -1.25439405    
  -1.36500001       0.00000000     -0.606999993       552.139221      -1.25439405    
  -1.87709999       0.00000000     -0.606999993       552.139221      -1.25439405    
  -1.84103203      0.366203994     -0.606999993       464.221283      -1.19853115    
  -2.54972792      0.507171988     -0.517000020       464.221283      -1.19853115    
  -2.40179110      0.994853973     -0.517000020       464.221283      -1.19853115    
  -1.73421395      0.718334973     -0.606999993       464.221283      -1.19853115    
  -1.73421395      0.718334973     -0.606999993       553.068176      -1.25495255    
  -1.26109600      0.522363007     -0.606999993       553.068176      -1.25495255    
  -1.33877206      0.266297996     -0.606999993       553.068176      -1.25495255    
  -1.84103203      0.366203994     -0.606999993       553.068176      -1.25495255    
  -1.73421395      0.718334973     -0.606999993       466.146149      -1.20014453    
  -2.40179110      0.994853973     -0.517000020       466.146149      -1.20014453    
  -2.16155505       1.44430494     -0.517000020       466.146149      -1.20014453    
  -1.56075203       1.04286098     -0.606999993       466.146149      -1.20014453    
  -1.56075203       1.04286098     -0.606999993       553.357788      -1.25513446    
  -1.13495600      0.758352995     -0.606999993       553.357788      -1.25513446    
  -1.26109600      0.522363007     -0.606999993       553.357788      -1.25513446    
  -1.73421395      0.718334973     -0.606999993       553.357788      -1.25513446    
  -1.56075203       1.04286098     -0.606999993       464.336670      -1.19865727    
  -2.16155505       1.44430494     -0.517000020       464.336670      -1.19865727    
  -1.83825099       1.83825099     -0.517000020       464.336670      -1.19865727    
  -1.32730997       1.32730997     -0.606999993       464.336670      -1.19865727    
  -1.32730997       1.32730997     -0.606999993       551.838196      -1.25425470    
 -0.965201020      0.965201020     -0.606999993       551.838196      -1.25425470    
  -1.13495600      0.758352995     -0.606999993       551.838196      -1.25425470    
  -1.56075203       1.04286098     -0.606999993       551.838196      -1.25425470    
  -1.32730997       1.32730997     -0.606999993       460.573181      -1.19550824    
  -1.83825099       1.83825099     -0.517000020       460.573181      -1.19550824    
  -1.44430494       2.16155505     -0.517000020       460.573181      -1.19550824    
  -1.04286098       1.56075203     -0.606999993       460.573181      -1.19550824    
  -1.04286098       1.56075203     -0.606999993       549.412598      -1.25283217    
 -0.758352995       1.13495600     -0.606999993       549.412598      -1.25283217    
 -0.965201020      0.965201020     -0.606999993       549.412598      -1.25283217    
  -1.32730997       1.32730997     -0.606999993       549.412598      -1.25283217    
  -1.04286098       1.56075203     -0.606999993       458.989044      -1.19417059    
  -1.44430494       2.16155505     -0.517000020       458.989044      -1.19417059    
 -0.994853973       2.40179110     -0.517000020       458.989044      -1.19417059    
 -0.718334973       1.73421395     -0.606999993       458.989044      -1.19417059    
 -0.718334973       1.73421395     -0.606999993       548.104431      -1.25206339    
 -0.522363007       1.26109600     -0.606999993       548.104431      -1.25206339    
 -0.758352995       1.13495600     -0.606999993       548.104431      -1.25206339    
  -1.04286098       1.56075203     -0.606999993       548.104431      -1.25206339    
 -0.718334973       1.73421395     -0.606999993       461.030334      -1.19591320    
 -0.994853973       2.40179110     -0.517000020       461.030334      -1.19591320    
 -0.507171988       2.54972792     -0.517000020       461.030334      -1.19591320    
 -0.366203994       1.84103203     -0.606999993       461.030334      -1.19591320    
 -0.366203994       1.84103203     -0.606999993       548.692810      -1.25242388    
 -0.266297996       1.33877206     -0.606999993       548.692810      -1.25242388    
 -0.522363007       1.26109600     -0.606999993       548.692810      -1.25242388    
 -0.718334973       1.73421395     -0.606999993       548.692810      -1.25242388    
 -0.366203994       1.84103203     -0.606999993       464.006989      -1.19841814    
 -0.507171988       2.54972792     -0.517000020       464.006989      -1.19841814    
   0.00000000       2.59967995     -0.517000020       464.006989      -1.19841814    
   0.00000000       1.87709999     -0.606999993       464.006989      -1.19841814    
   0.00000000       1.87709999     -0.606999993       549.861633      -1.25312603    
   0.00000000       1.36500001     -0.606999993       549.861633      -1.25312603    
 -0.266297996       1.33877206     -0.606999993       549.861633      -1.25312603    
 -0.366203994       1.84103203     -0.606999993       549.861633      -1.25312603    
   0.00000000       1.87709999     -0.606999993       463.989258      -1.19840741    
   0.00000000       2.59967995     -0.517000020       463.989258      -1.19840741    
  0.507171988       2.54972792     -0.517000020       463.989258      -1.19840741    
  0.366203994       1.84103203     -0.606999993       463.989258      -1.19840741    
  0.366203994       1.84103203     -0.606999993       549.831055      -1.25311255    
  0.266297996       1.33877206     -0.606999993       549.831055      -1.25311255    
   0.00000000       1.36500001     -0.606999993       549.831055      -1.25311255    
   0.00000000       1.87709999     -0.606999993       549.831055      -1.25311255    
  0.366203994       1.84103203     -0.606999993       460.977081      -1.19588017    
  0.507171988       2.54972792     -0.517000020       460.977081      -1.19588017    
  0.994853973       2.40179110     -0.517000020       460.977081      -1.19588017    
  0.718334973       1.73421395     -0.606999993       460.977081      -1.19588017    
  0.718334973       1.73421395     -0.606999993       548.605042      -1.25238574    
  0.522363007       1.26109600     -0.606999993       548.605042      -1.25238574    
  0.266297996       1.33877206     -0.606999993       548.605042      -1.25238574    
  0.366203994       1.84103203     -0.606999993       548.605042      -1.25238574    
  0.718334973       1.73421395     -0.606999993       458.915619      -1.19412494    
  0.994853973       2.40179110     -0.517000020       458.915619      -1.19412494    
   1.44430494       2.16155505     -0.517000020       458.915619      -1.19412494    
   1.04286098       1.56075203     -0.606999993       458.915619      -1.19412494    
   1.04286098       1.56075203     -0.606999993       547.975708      -1.25201011    
  0.758352995       1.13495600     -0.606999993       547.975708      -1.25201011    
  0.522363007       1.26109600     -0.606999993       547.975708      -1.25201011    
  0.718334973       1.73421395     -0.606999993       547.975708      -1.25201011    
   1.04286098       1.56075203     -0.606999993       460.493347      -1.19545746    
   1.44430494       2.16155505     -0.517000020       460.493347      -1.19545746    
   1.83825099       1.83825099     -0.517000020       460.493347      -1.19545746    
   1.32730997       1.32730997     -0.606999993       460.493347      -1.19545746    
   1.32730997       1.32730997     -0.606999993       549.250488      -1.25276208    
  0.965201020      0.965201020     -0.606999993       549.250488      -1.25276208    
  0.758352995       1.13495600     -0.606999993       549.250488      -1.25276208    
   1.04286098       1.56075203     -0.606999993       549.250488      -1.25276208    
   1.32730997       1.32730997     -0.606999993       464.263092      -1.19860721    
   1.83825099       1.83825099     -0.517000020       464.263092      -1.19860721    
   2.16155505       1.44430494     -0.517000020       464.263092      -1.19860721    
   1.56075203       1.04286098     -0.606999993       464.263092      -1.19860721    
   1.56075203       1.04286098     -0.606999993       551.640991      -1.25416374    
   1.13495600      0.758352995     -0.606999993       551.640991      -1.25416374    
  0.965201020      0.965201020     -0.606999993       551.640991      -1.25416374    
   1.32730997       1.32730997     -0.606999993       551.640991      -1.25416374    
   1.56075203       1.04286098     -0.606999993       466.079590      -1.20009005    
   2.16155505       1.44430494     -0.517000020       466.079590      -1.20009005    
   2.40179110      0.994853973     -0.517000020       466.079590      -1.20009005    
   1.73421395      0.718334973     -0.606999993       466.079590      -1.20009005    
   1.73421395      0.718334973     -0.606999993       553.100464      -1.25501096    
   1.26109600      0.522363007     -0.606999993       553.100464      -1.25501096    
   1.13495600      0.758352995     -0.606999993       553.100464      -1.25501096    
   1.56075203       1.04286098     -0.606999993       553.100464      -1.25501096    
   1.73421395      0.718334973     -0.606999993       464.141296      -1.19845152    
   2.40179110      0.994853973     -0.517000020       464.141296      -1.19845152    
   2.54972792      0.507171988     -0.517000020       464.141296      -1.19845152    
   1.84103203      0.366203994     -0.606999993       464.141296      -1.19845152    
   1.84103203      0.366203994     -0.606999993       552.756714      -1.25479698    
   1.33877206      0.266297996     -0.606999993       552.756714      -1.25479698    
   1.26109600      0.522363007     -0.606999993       552.756714      -1.25479698    
   1.73421395      0.718334973     -0.606999993       552.756714      -1.25479698    
   1.84103203      0.366203994     -0.606999993       461.423492      -1.19613874    
   2.54972792      0.507171988     -0.517000020       461.423492      -1.19613874    
   2.59967995       0.00000000     -0.517000020       461.423492      -1.19613874    
   1.87709999       0.00000000     -0.606999993       461.423492      -1.19613874    
   1.87709999       0.00000000     -0.606999993       551.784424      -1.25420797    
   1.36500001       0.00000000     -0.606999993       551.784424      -1.25420797    
   1.33877206      0.266297996     -0.606999993       551.784424      -1.25420797    
   1.84103203      0.366203994     -0.606999993       551.784424      -1.25420797    
   1.87709999       0.00000000     -0.606999993       461.207336      -1.19592369    
   2.59967995       0.00000000     -0.517000020       461.207336      -1.19592369    
   2.54972792     -0.507171988     -0.517000020       461.207336      -1.19592369    
   1.84103203     -0.366203994     -0.606999993       461.207336      -1.19592369    
   1.84103203     -0.366203994     -0.606999993       551.619202      -1.25408924    
   1.33877206     -0.266297996     -0.606999993       551.619202      -1.25408924    
   1.36500001       0.00000000     -0.606999993       551.619202      -1.25408924    
   1.87709999       0.00000000     -0.606999993       551.619202      -1.25408924    
   1.84103203     -0.366203994     -0.606999993       462.953247      -1.19736028    
   2.54972792     -0.507171988     -0.517000020       462.953247      -1.19736028    
   2.40179110     -0.994853973     -0.517000020       462.953247      -1.19736028    
   1.73421395     -0.718334973     -0.606999993       462.953247      -1.19736028    
   1.73421395     -0.718334973     -0.606999993       551.962036      -1.25426662    
   1.26109600     -0.522363007     -0.606999993       551.962036      -1.25426662    
   1.33877206     -0.266297996     -0.606999993       551.962036      -1.25426662    
   1.84103203     -0.366203994     -0.606999993       551.962036      -1.25426662    
   1.73421395     -0.718334973     -0.606999993       463.121277      -1.19746590    
   2.40179110     -0.994853973     -0.517000020       463.121277      -1.19746590    
   2.16155505      -1.44430494     -0.517000020       463.121277      -1.19746590    
   1.56075203      -1.04286098     -0.606999993       463.121277      -1.19746590    
   1.56075203      -1.04286098     -0.606999993       551.209778      -1.25379634    
   1.13495600     -0.758352995     -0.606999993       551.209778      -1.25379634    
   1.26109600     -0.522363007     -0.606999993       551.209778      -1.25379634    