 VARIABLES="X" "Y" "Z" "abs(p) (Pa)" "angle(p) (rad)"
ZONE N=   2709,E =    2358, F=FEPOINT, ET=QUADRILATERAL
   0.00000000      -5.48999977     -0.157000005       45.7178345      -1.56142437    
   0.00000000      -4.76741982     -0.246999994       45.7178345      -1.56142437    
  0.930077016      -4.67581606     -0.246999994       45.7178345      -1.56142437    
   1.07104599      -5.38451099     -0.157000005       45.7178345      -1.56142437    
  -1.07104599      -5.38451099     -0.157000005       47.7714958       1.58162463    
 -0.930077016      -4.67581606     -0.246999994       47.7714958       1.58162463    
   0.00000000      -4.76741982     -0.246999994       47.7714958       1.58162463    
   0.00000000      -5.48999977     -0.157000005       47.7714958       1.58162463    
  -2.10093188      -5.07209921     -0.157000005       138.663010       1.57335925    
  -1.82441294      -4.40452194     -0.246999994       138.663010       1.57335925    
 -0.930077016      -4.67581606     -0.246999994       138.663010       1.57335925    
  -1.07104599      -5.38451099     -0.157000005       138.663010       1.57335925    
  -3.05008101      -4.56476784     -0.157000005       202.670074       1.56744421    
  -2.64863706      -3.96396494     -0.246999994       202.670074       1.56744421    
  -1.82441294      -4.40452194     -0.246999994       202.670074       1.56744421    
  -2.10093188      -5.07209921     -0.157000005       202.670074       1.56744421    
  -3.88201594      -3.88201594     -0.157000005       265.510620       1.56747222    
  -3.37107491      -3.37107491     -0.246999994       265.510620       1.56747222    
  -2.64863706      -3.96396494     -0.246999994       265.510620       1.56747222    
  -3.05008101      -4.56476784     -0.157000005       265.510620       1.56747222    
  -4.56476784      -3.05008101     -0.157000005       333.231812       1.57126486    
  -3.96396494      -2.64863706     -0.246999994       333.231812       1.57126486    
  -3.37107491      -3.37107491     -0.246999994       333.231812       1.57126486    
  -3.88201594      -3.88201594     -0.157000005       333.231812       1.57126486    
  -5.07209921      -2.10093188     -0.157000005       375.375824       1.57218671    
  -4.40452194      -1.82441294     -0.246999994       375.375824       1.57218671    
  -3.96396494      -2.64863706     -0.246999994       375.375824       1.57218671    
  -4.56476784      -3.05008101     -0.157000005       375.375824       1.57218671    
  -5.38451099      -1.07104599     -0.157000005       412.499817       1.56975436    
  -4.67581606     -0.930077016     -0.246999994       412.499817       1.56975436    
  -4.40452194      -1.82441294     -0.246999994       412.499817       1.56975436    
  -5.07209921      -2.10093188     -0.157000005       412.499817       1.56975436    
  -5.48999977       0.00000000     -0.157000005       438.425049       1.56805301    
  -4.76741982       0.00000000     -0.246999994       438.425049       1.56805301    
  -4.67581606     -0.930077016     -0.246999994       438.425049       1.56805301    
  -5.38451099      -1.07104599     -0.157000005       438.425049       1.56805301    
  -5.38451099       1.07104599     -0.157000005       442.161896       1.56740928    
  -4.67581606      0.930077016     -0.246999994       442.161896       1.56740928    
  -4.76741982       0.00000000     -0.246999994       442.161896       1.56740928    
  -5.48999977       0.00000000     -0.157000005       442.161896       1.56740928    
  -5.07209921       2.10093188     -0.157000005       433.472198       1.56735015    
  -4.40452194       1.82441294     -0.246999994       433.472198       1.56735015    
  -4.67581606      0.930077016     -0.246999994       433.472198       1.56735015    
  -5.38451099       1.07104599     -0.157000005       433.472198       1.56735015    
  -4.56476784       3.05008101     -0.157000005       395.668701       1.56757367    
  -3.96396494       2.64863706     -0.246999994       395.668701       1.56757367    
  -4.40452194       1.82441294     -0.246999994       395.668701       1.56757367    
  -5.07209921       2.10093188     -0.157000005       395.668701       1.56757367    
  -3.88201594       3.88201594     -0.157000005       331.507904       1.56755388    
  -3.37107491       3.37107491     -0.246999994       331.507904       1.56755388    
  -3.96396494       2.64863706     -0.246999994       331.507904       1.56755388    
  -4.56476784       3.05008101     -0.157000005       331.507904       1.56755388    
  -3.05008101       4.56476784     -0.157000005       276.172028       1.56673443    
  -2.64863706       3.96396494     -0.246999994       276.172028       1.56673443    
  -3.37107491       3.37107491     -0.246999994       276.172028       1.56673443    
  -3.88201594       3.88201594     -0.157000005       276.172028       1.56673443    
  -2.10093188       5.07209921     -0.157000005       202.027130       1.56541884    
  -1.82441294       4.40452194     -0.246999994       202.027130       1.56541884    
  -2.64863706       3.96396494     -0.246999994       202.027130       1.56541884    
  -3.05008101       4.56476784     -0.157000005       202.027130       1.56541884    
  -1.07104599       5.38451099     -0.157000005       135.340210       1.56871700    
 -0.930077016       4.67581606     -0.246999994       135.340210       1.56871700    
  -1.82441294       4.40452194     -0.246999994       135.340210       1.56871700    
  -2.10093188       5.07209921     -0.157000005       135.340210       1.56871700    
   0.00000000       5.48999977     -0.157000005       46.0672340       1.57209337    
   0.00000000       4.76741982     -0.246999994       46.0672340       1.57209337    
 -0.930077016       4.67581606     -0.246999994       46.0672340       1.57209337    
  -1.07104599       5.38451099     -0.157000005       46.0672340       1.57209337    
   1.07104599       5.38451099     -0.157000005       48.8972702      -1.55643272    
  0.930077016       4.67581606     -0.246999994       48.8972702      -1.55643272    
   0.00000000       4.76741982     -0.246999994       48.8972702      -1.55643272    
   0.00000000       5.48999977     -0.157000005       48.8972702      -1.55643272    
   2.10093188       5.07209921     -0.157000005       132.930817      -1.56601000    
   1.82441294       4.40452194     -0.246999994       132.930817      -1.56601000    
  0.930077016       4.67581606     -0.246999994       132.930817      -1.56601000    
   1.07104599       5.38451099     -0.157000005       132.930817      -1.56601000    
   3.05008101       4.56476784     -0.157000005       201.624878      -1.57483959    
   2.64863706       3.96396494     -0.246999994       201.624878      -1.57483959    
   1.82441294       4.40452194     -0.246999994       201.624878      -1.57483959    
   2.10093188       5.07209921     -0.157000005       201.624878      -1.57483959    
   3.88201594       3.88201594     -0.157000005       277.103577      -1.57362616    
   3.37107491       3.37107491     -0.246999994       277.103577      -1.57362616    
   2.64863706       3.96396494     -0.246999994       277.103577      -1.57362616    
   3.05008101       4.56476784     -0.157000005       277.103577      -1.57362616    
   4.56476784       3.05008101     -0.157000005       336.292664      -1.57083762    
   3.96396494       2.64863706     -0.246999994       336.292664      -1.57083762    
   3.37107491       3.37107491     -0.246999994       336.292664      -1.57083762    
   3.88201594       3.88201594     -0.157000005       336.292664      -1.57083762    
   5.07209921       2.10093188     -0.157000005       394.486877      -1.57142508    
   4.40452194       1.82441294     -0.246999994       394.486877      -1.57142508    
   3.96396494       2.64863706     -0.246999994       394.486877      -1.57142508    
   4.56476784       3.05008101     -0.157000005       394.486877      -1.57142508    
   5.38451099       1.07104599     -0.157000005       417.811676      -1.57317162    
   4.67581606      0.930077016     -0.246999994       417.811676      -1.57317162    
   4.40452194       1.82441294     -0.246999994       417.811676      -1.57317162    
   5.07209921       2.10093188     -0.157000005       417.811676      -1.57317162    
   5.48999977       0.00000000     -0.157000005       425.237244      -1.57208705    
   4.76741982       0.00000000     -0.246999994       425.237244      -1.57208705    
   4.67581606      0.930077016     -0.246999994       425.237244      -1.57208705    
   5.38451099       1.07104599     -0.157000005       425.237244      -1.57208705    
   5.38451099      -1.07104599     -0.157000005       422.770721      -1.57013988    
   4.67581606     -0.930077016     -0.246999994       422.770721      -1.57013988    
   4.76741982       0.00000000     -0.246999994       422.770721      -1.57013988    
   5.48999977       0.00000000     -0.157000005       422.770721      -1.57013988    
   5.07209921      -2.10093188     -0.157000005       410.606232      -1.57003868    
   4.40452194      -1.82441294     -0.246999994       410.606232      -1.57003868    
   4.67581606     -0.930077016     -0.246999994       410.606232      -1.57003868    
   5.38451099      -1.07104599     -0.157000005       410.606232      -1.57003868    
   4.56476784      -3.05008101     -0.157000005       374.068665      -1.57045734    
   3.96396494      -2.64863706     -0.246999994       374.068665      -1.57045734    
   4.40452194      -1.82441294     -0.246999994       374.068665      -1.57045734    
   5.07209921      -2.10093188     -0.157000005       374.068665      -1.57045734    
   3.88201594      -3.88201594     -0.157000005       324.155853      -1.57246411    
   3.37107491      -3.37107491     -0.246999994       324.155853      -1.57246411    
   3.96396494      -2.64863706     -0.246999994       324.155853      -1.57246411    
   4.56476784      -3.05008101     -0.157000005       324.155853      -1.57246411    
   3.05008101      -4.56476784     -0.157000005       272.842987      -1.57486403    
   2.64863706      -3.96396494     -0.246999994       272.842987      -1.57486403    
   3.37107491      -3.37107491     -0.246999994       272.842987      -1.57486403    
   3.88201594      -3.88201594     -0.157000005       272.842987      -1.57486403    
   2.10093188      -5.07209921     -0.157000005       201.825073      -1.57400000    
   1.82441294      -4.40452194     -0.246999994       201.825073      -1.57400000    
   2.64863706      -3.96396494     -0.246999994       201.825073      -1.57400000    
   3.05008101      -4.56476784     -0.157000005       201.825073      -1.57400000    
   1.07104599      -5.38451099     -0.157000005       132.569870      -1.56641877    
  0.930077016      -4.67581606     -0.246999994       132.569870      -1.56641877    
   1.82441294      -4.40452194     -0.246999994       132.569870      -1.56641877    
   2.10093188      -5.07209921     -0.157000005       132.569870      -1.56641877    
   0.00000000      -1.87709999     -0.606999993       1488.36670      -1.57139075    
   0.00000000      -1.36500001     -0.606999993       1488.36670      -1.57139075    
  0.266297996      -1.33877206     -0.606999993       1488.36670      -1.57139075    
  0.366203994      -1.84103203     -0.606999993       1488.36670      -1.57139075    
   0.00000000      -1.87709999     -0.606999993       621.723450       1.57054329    
   0.00000000      -2.59967995     -0.517000020       621.723450       1.57054329    
 -0.507171988      -2.54972792     -0.517000020       621.723450       1.57054329    
 -0.366203994      -1.84103203     -0.606999993       621.723450       1.57054329    
 -0.366203994      -1.84103203     -0.606999993       1479.19250       1.57046020    
 -0.266297996      -1.33877206     -0.606999993       1479.19250       1.57046020    
   0.00000000      -1.36500001     -0.606999993       1479.19250       1.57046020    
   0.00000000      -1.87709999     -0.606999993       1479.19250       1.57046020    
 -0.366203994      -1.84103203     -0.606999993       1785.44812       1.57048821    
 -0.507171988      -2.54972792     -0.517000020       1785.44812       1.57048821    
 -0.994853973      -2.40179110     -0.517000020       1785.44812       1.57048821    
 -0.718334973      -1.73421395     -0.606999993       1785.44812       1.57048821    
 -0.718334973      -1.73421395     -0.606999993       4344.72363       1.57037652    
 -0.522363007      -1.26109600     -0.606999993       4344.72363       1.57037652    
 -0.266297996      -1.33877206     -0.606999993       4344.72363       1.57037652    
 -0.366203994      -1.84103203     -0.606999993       4344.72363       1.57037652    
 -0.718334973      -1.73421395     -0.606999993       2714.81226       1.57048261    
 -0.994853973      -2.40179110     -0.517000020       2714.81226       1.57048261    
  -1.44430494      -2.16155505     -0.517000020       2714.81226       1.57048261    
  -1.04286098      -1.56075203     -0.606999993       2714.81226       1.57048261    
  -1.04286098      -1.56075203     -0.606999993       6944.86084       1.57036221    
 -0.758352995      -1.13495600     -0.606999993       6944.86084       1.57036221    
 -0.522363007      -1.26109600     -0.606999993       6944.86084       1.57036221    
 -0.718334973      -1.73421395     -0.606999993       6944.86084       1.57036221    
  -1.04286098      -1.56075203     -0.606999993       3456.32080       1.57047808    
  -1.44430494      -2.16155505     -0.517000020       3456.32080       1.57047808    
  -1.83825099      -1.83825099     -0.517000020       3456.32080       1.57047808    
  -1.32730997      -1.32730997     -0.606999993       3456.32080       1.57047808    
  -1.32730997      -1.32730997     -0.606999993       9213.89453       1.57035780    
 -0.965201020     -0.965201020     -0.606999993       9213.89453       1.57035780    
 -0.758352995      -1.13495600     -0.606999993       9213.89453       1.57035780    
  -1.04286098      -1.56075203     -0.606999993       9213.89453       1.57035780    
  -1.32730997      -1.32730997     -0.606999993       4108.33740       1.57046354    
  -1.83825099      -1.83825099     -0.517000020       4108.33740       1.57046354    
  -2.16155505      -1.44430494     -0.517000020       4108.33740       1.57046354    
  -1.56075203      -1.04286098     -0.606999993       4108.33740       1.57046354    
  -1.56075203      -1.04286098     -0.606999993       11143.1846       1.57035160    
  -1.13495600     -0.758352995     -0.606999993       11143.1846       1.57035160    
 -0.965201020     -0.965201020     -0.606999993       11143.1846       1.57035160    
  -1.32730997      -1.32730997     -0.606999993       11143.1846       1.57035160    
  -1.56075203      -1.04286098     -0.606999993       4723.94141       1.57044768    
  -2.16155505      -1.44430494     -0.517000020       4723.94141       1.57044768    
  -2.40179110     -0.994853973     -0.517000020       4723.94141       1.57044768    
  -1.73421395     -0.718334973     -0.606999993       4723.94141       1.57044768    
  -1.73421395     -0.718334973     -0.606999993       12721.9795       1.57034147    
  -1.26109600     -0.522363007     -0.606999993       12721.9795       1.57034147    
  -1.13495600     -0.758352995     -0.606999993       12721.9795       1.57034147    
  -1.56075203      -1.04286098     -0.606999993       12721.9795       1.57034147    
  -1.73421395     -0.718334973     -0.606999993       5245.75049       1.57042038    
  -2.40179110     -0.994853973     -0.517000020       5245.75049       1.57042038    
  -2.54972792     -0.507171988     -0.517000020       5245.75049       1.57042038    
  -1.84103203     -0.366203994     -0.606999993       5245.75049       1.57042038    
  -1.84103203     -0.366203994     -0.606999993       13878.4951       1.57032573    
  -1.33877206     -0.266297996     -0.606999993       13878.4951       1.57032573    
  -1.26109600     -0.522363007     -0.606999993       13878.4951       1.57032573    
  -1.73421395     -0.718334973     -0.606999993       13878.4951       1.57032573    
  -1.84103203     -0.366203994     -0.606999993       5560.74414       1.57039130    
  -2.54972792     -0.507171988     -0.517000020       5560.74414       1.57039130    
  -2.59967995       0.00000000     -0.517000020       5560.74414       1.57039130    
  -1.87709999       0.00000000     -0.606999993       5560.74414       1.57039130    
  -1.87709999       0.00000000     -0.606999993       14507.6982       1.57030857    
  -1.36500001       0.00000000     -0.606999993       14507.6982       1.57030857    
  -1.33877206     -0.266297996     -0.606999993       14507.6982       1.57030857    
  -1.84103203     -0.366203994     -0.606999993       14507.6982       1.57030857    
  -1.87709999       0.00000000     -0.606999993       5577.99756       1.57037389    
  -2.59967995       0.00000000     -0.517000020       5577.99756       1.57037389    
  -2.54972792      0.507171988     -0.517000020       5577.99756       1.57037389    
  -1.84103203      0.366203994     -0.606999993       5577.99756       1.57037389    
  -1.84103203      0.366203994     -0.606999993       14526.6299       1.57029295    
  -1.33877206      0.266297996     -0.606999993       14526.6299       1.57029295    
  -1.36500001       0.00000000     -0.606999993       14526.6299       1.57029295    
  -1.87709999       0.00000000     -0.606999993       14526.6299       1.57029295    
  -1.84103203      0.366203994     -0.606999993       5284.68994       1.57036531    
  -2.54972792      0.507171988     -0.517000020       5284.68994       1.57036531    
  -2.40179110      0.994853973     -0.517000020       5284.68994       1.57036531    
  -1.73421395      0.718334973     -0.606999993       5284.68994       1.57036531    
  -1.73421395      0.718334973     -0.606999993       13925.0088       1.57028270    
  -1.26109600      0.522363007     -0.606999993       13925.0088       1.57028270    
  -1.33877206      0.266297996     -0.606999993       13925.0088       1.57028270    
  -1.84103203      0.366203994     -0.606999993       13925.0088       1.57028270    
  -1.73421395      0.718334973     -0.606999993       4755.33496       1.57036221    
  -2.40179110      0.994853973     -0.517000020       4755.33496       1.57036221    
  -2.16155505       1.44430494     -0.517000020       4755.33496       1.57036221    
  -1.56075203       1.04286098     -0.606999993       4755.33496       1.57036221    
  -1.56075203       1.04286098     -0.606999993       12774.1680       1.57027447    
  -1.13495600      0.758352995     -0.606999993       12774.1680       1.57027447    
  -1.26109600      0.522363007     -0.606999993       12774.1680       1.57027447    
  -1.73421395      0.718334973     -0.606999993       12774.1680       1.57027447    
  -1.56075203       1.04286098     -0.606999993       4113.61572       1.57036269    
  -2.16155505       1.44430494     -0.517000020       4113.61572       1.57036269    
  -1.83825099       1.83825099     -0.517000020       4113.61572       1.57036269    
  -1.32730997       1.32730997     -0.606999993       4113.61572       1.57036269    
  -1.32730997       1.32730997     -0.606999993       11181.6045       1.57026768    
 -0.965201020      0.965201020     -0.606999993       11181.6045       1.57026768    
  -1.13495600      0.758352995     -0.606999993       11181.6045       1.57026768    
  -1.56075203       1.04286098     -0.606999993       11181.6045       1.57026768    
  -1.32730997       1.32730997     -0.606999993       3441.45361       1.57036710    
  -1.83825099       1.83825099     -0.517000020       3441.45361       1.57036710    
  -1.44430494       2.16155505     -0.517000020       3441.45361       1.57036710    
  -1.04286098       1.56075203     -0.606999993       3441.45361       1.57036710    
  -1.04286098       1.56075203     -0.606999993       9231.97559       1.57025778    
 -0.758352995       1.13495600     -0.606999993       9231.97559       1.57025778    
 -0.965201020      0.965201020     -0.606999993       9231.97559       1.57025778    
  -1.32730997       1.32730997     -0.606999993       9231.97559       1.57025778    
  -1.04286098       1.56075203     -0.606999993       2698.02075       1.57038796    
  -1.44430494       2.16155505     -0.517000020       2698.02075       1.57038796    
 -0.994853973       2.40179110     -0.517000020       2698.02075       1.57038796    
 -0.718334973       1.73421395     -0.606999993       2698.02075       1.57038796    
 -0.718334973       1.73421395     -0.606999993       6950.14893       1.57024443    
 -0.522363007       1.26109600     -0.606999993       6950.14893       1.57024443    
 -0.758352995       1.13495600     -0.606999993       6950.14893       1.57024443    
  -1.04286098       1.56075203     -0.606999993       6950.14893       1.57024443    
 -0.718334973       1.73421395     -0.606999993       1781.58325       1.57040083    
 -0.994853973       2.40179110     -0.517000020       1781.58325       1.57040083    
 -0.507171988       2.54972792     -0.517000020       1781.58325       1.57040083    
 -0.366203994       1.84103203     -0.606999993       1781.58325       1.57040083    
 -0.366203994       1.84103203     -0.606999993       4350.01807       1.57021499    
 -0.266297996       1.33877206     -0.606999993       4350.01807       1.57021499    
 -0.522363007       1.26109600     -0.606999993       4350.01807       1.57021499    
 -0.718334973       1.73421395     -0.606999993       4350.01807       1.57021499    
 -0.366203994       1.84103203     -0.606999993       637.986938       1.57041025    
 -0.507171988       2.54972792     -0.517000020       637.986938       1.57041025    
   0.00000000       2.59967995     -0.517000020       637.986938       1.57041025    
   0.00000000       1.87709999     -0.606999993       637.986938       1.57041025    
   0.00000000       1.87709999     -0.606999993       1492.70117       1.57005131    
   0.00000000       1.36500001     -0.606999993       1492.70117       1.57005131    
 -0.266297996       1.33877206     -0.606999993       1492.70117       1.57005131    
 -0.366203994       1.84103203     -0.606999993       1492.70117       1.57005131    
   0.00000000       1.87709999     -0.606999993       607.329956      -1.57115591    
   0.00000000       2.59967995     -0.517000020       607.329956      -1.57115591    
  0.507171988       2.54972792     -0.517000020       607.329956      -1.57115591    
  0.366203994       1.84103203     -0.606999993       607.329956      -1.57115591    
  0.366203994       1.84103203     -0.606999993       1464.70715      -1.57103086    
  0.266297996       1.33877206     -0.606999993       1464.70715      -1.57103086    
   0.00000000       1.36500001     -0.606999993       1464.70715      -1.57103086    
   0.00000000       1.87709999     -0.606999993       1464.70715      -1.57103086    
  0.366203994       1.84103203     -0.606999993       1753.79822      -1.57113302    
  0.507171988       2.54972792     -0.517000020       1753.79822      -1.57113302    
  0.994853973       2.40179110     -0.517000020       1753.79822      -1.57113302    
  0.718334973       1.73421395     -0.606999993       1753.79822      -1.57113302    
  0.718334973       1.73421395     -0.606999993       4325.78223      -1.57120025    
  0.522363007       1.26109600     -0.606999993       4325.78223      -1.57120025    
  0.266297996       1.33877206     -0.606999993       4325.78223      -1.57120025    
  0.366203994       1.84103203     -0.606999993       4325.78223      -1.57120025    
  0.718334973       1.73421395     -0.606999993       2675.02197      -1.57112730    
  0.994853973       2.40179110     -0.517000020       2675.02197      -1.57112730    
   1.44430494       2.16155505     -0.517000020       2675.02197      -1.57112730    
   1.04286098       1.56075203     -0.606999993       2675.02197      -1.57112730    
   1.04286098       1.56075203     -0.606999993       6933.18750      -1.57124066    
  0.758352995       1.13495600     -0.606999993       6933.18750      -1.57124066    
  0.522363007       1.26109600     -0.606999993       6933.18750      -1.57124066    
  0.718334973       1.73421395     -0.606999993       6933.18750      -1.57124066    
   1.04286098       1.56075203     -0.606999993       3424.54126      -1.57114947    
   1.44430494       2.16155505     -0.517000020       3424.54126      -1.57114947    
   1.83825099       1.83825099     -0.517000020       3424.54126      -1.57114947    
   1.32730997       1.32730997     -0.606999993       3424.54126      -1.57114947    
   1.32730997       1.32730997     -0.606999993       9223.82227      -1.57126367    
  0.965201020      0.965201020     -0.606999993       9223.82227      -1.57126367    
  0.758352995       1.13495600     -0.606999993       9223.82227      -1.57126367    
   1.04286098       1.56075203     -0.606999993       9223.82227      -1.57126367    
   1.32730997       1.32730997     -0.606999993       4102.65820      -1.57118464    
   1.83825099       1.83825099     -0.517000020       4102.65820      -1.57118464    
   2.16155505       1.44430494     -0.517000020       4102.65820      -1.57118464    
   1.56075203       1.04286098     -0.606999993       4102.65820      -1.57118464    
   1.56075203       1.04286098     -0.606999993       11181.8184      -1.57128048    
   1.13495600      0.758352995     -0.606999993       11181.8184      -1.57128048    
  0.965201020      0.965201020     -0.606999993       11181.8184      -1.57128048    
   1.32730997       1.32730997     -0.606999993       11181.8184      -1.57128048    
   1.56075203       1.04286098     -0.606999993       4749.26367      -1.57122648    
   2.16155505       1.44430494     -0.517000020       4749.26367      -1.57122648    
   2.40179110      0.994853973     -0.517000020       4749.26367      -1.57122648    
   1.73421395      0.718334973     -0.606999993       4749.26367      -1.57122648    
   1.73421395      0.718334973     -0.606999993       12777.5732      -1.57129562    
   1.26109600      0.522363007     -0.606999993       12777.5732      -1.57129562    
   1.13495600      0.758352995     -0.606999993       12777.5732      -1.57129562    
   1.56075203       1.04286098     -0.606999993       12777.5732      -1.57129562    
   1.73421395      0.718334973     -0.606999993       5282.14844      -1.57126570    
   2.40179110      0.994853973     -0.517000020       5282.14844      -1.57126570    
   2.54972792      0.507171988     -0.517000020       5282.14844      -1.57126570    
   1.84103203      0.366203994     -0.606999993       5282.14844      -1.57126570    
   1.84103203      0.366203994     -0.606999993       13929.7480      -1.57130659    
   1.33877206      0.266297996     -0.606999993       13929.7480      -1.57130659    
   1.26109600      0.522363007     -0.606999993       13929.7480      -1.57130659    
   1.73421395      0.718334973     -0.606999993       13929.7480      -1.57130659    
   1.84103203      0.366203994     -0.606999993       5578.45996      -1.57128596    
   2.54972792      0.507171988     -0.517000020       5578.45996      -1.57128596    
   2.59967995       0.00000000     -0.517000020       5578.45996      -1.57128596    
   1.87709999       0.00000000     -0.606999993       5578.45996      -1.57128596    
   1.87709999       0.00000000     -0.606999993       14532.3936      -1.57131064    
   1.36500001       0.00000000     -0.606999993       14532.3936      -1.57131064    
   1.33877206      0.266297996     -0.606999993       14532.3936      -1.57131064    
   1.84103203      0.366203994     -0.606999993       14532.3936      -1.57131064    
   1.87709999       0.00000000     -0.606999993       5564.03223      -1.57128513    
   2.59967995       0.00000000     -0.517000020       5564.03223      -1.57128513    
   2.54972792     -0.507171988     -0.517000020       5564.03223      -1.57128513    
   1.84103203     -0.366203994     -0.606999993       5564.03223      -1.57128513    
   1.84103203     -0.366203994     -0.606999993       14513.5049      -1.57130826    
   1.33877206     -0.266297996     -0.606999993       14513.5049      -1.57130826    
   1.36500001       0.00000000     -0.606999993       14513.5049      -1.57130826    
   1.87709999       0.00000000     -0.606999993       14513.5049      -1.57130826    
   1.84103203     -0.366203994     -0.606999993       5252.10498      -1.57127011    
   2.54972792     -0.507171988     -0.517000020       5252.10498      -1.57127011    
   2.40179110     -0.994853973     -0.517000020       5252.10498      -1.57127011    
   1.73421395     -0.718334973     -0.606999993       5252.10498      -1.57127011    
   1.73421395     -0.718334973     -0.606999993       13885.4434      -1.57129884    
   1.26109600     -0.522363007     -0.606999993       13885.4434      -1.57129884    
   1.33877206     -0.266297996     -0.606999993       13885.4434      -1.57129884    
   1.84103203     -0.366203994     -0.606999993       13885.4434      -1.57129884    
   1.73421395     -0.718334973     -0.606999993       4733.82861      -1.57124388    
   2.40179110     -0.994853973     -0.517000020       4733.82861      -1.57124388    
   2.16155505      -1.44430494     -0.517000020       4733.82861      -1.57124388    
   1.56075203      -1.04286098     -0.606999993       4733.82861      -1.57124388    
   1.56075203      -1.04286098     -0.606999993       12732.6211      -1.57129192    
   1.13495600     -0.758352995     -0.606999993       12732.6211      -1.57129192    
   1.26109600     -0.522363007     -0.606999993       12732.6211      -1.57129192    