 VARIABLES="X" "Y" "Z" "abs(p) (Pa)" "angle(p) (rad)"
ZONE N=   2709,E =    2358, F=FEPOINT, ET=QUADRILATERAL
   0.00000000      -5.48999977     -0.157000005       381.976288       1.62405527    
   0.00000000      -4.76741982     -0.246999994       381.976288       1.62405527    
  0.930077016      -4.67581606     -0.246999994       381.976288       1.62405527    
   1.07104599      -5.38451099     -0.157000005       381.976288       1.62405527    
  -1.07104599      -5.38451099     -0.157000005       382.177795       1.62402654    
 -0.930077016      -4.67581606     -0.246999994       382.177795       1.62402654    
   0.00000000      -4.76741982     -0.246999994       382.177795       1.62402654    
   0.00000000      -5.48999977     -0.157000005       382.177795       1.62402654    
  -2.10093188      -5.07209921     -0.157000005       383.527588       1.62383449    
  -1.82441294      -4.40452194     -0.246999994       383.527588       1.62383449    
 -0.930077016      -4.67581606     -0.246999994       383.527588       1.62383449    
  -1.07104599      -5.38451099     -0.157000005       383.527588       1.62383449    
  -3.05008101      -4.56476784     -0.157000005       382.446930       1.62398827    
  -2.64863706      -3.96396494     -0.246999994       382.446930       1.62398827    
  -1.82441294      -4.40452194     -0.246999994       382.446930       1.62398827    
  -2.10093188      -5.07209921     -0.157000005       382.446930       1.62398827    
  -3.88201594      -3.88201594     -0.157000005       382.569977       1.62397051    
  -3.37107491      -3.37107491     -0.246999994       382.569977       1.62397051    
  -2.64863706      -3.96396494     -0.246999994       382.569977       1.62397051    
  -3.05008101      -4.56476784     -0.157000005       382.569977       1.62397051    
  -4.56476784      -3.05008101     -0.157000005       384.163269       1.62374425    
  -3.96396494      -2.64863706     -0.246999994       384.163269       1.62374425    
  -3.37107491      -3.37107491     -0.246999994       384.163269       1.62374425    
  -3.88201594      -3.88201594     -0.157000005       384.163269       1.62374425    
  -5.07209921      -2.10093188     -0.157000005       382.713928       1.62394977    
  -4.40452194      -1.82441294     -0.246999994       382.713928       1.62394977    
  -3.96396494      -2.64863706     -0.246999994       382.713928       1.62394977    
  -4.56476784      -3.05008101     -0.157000005       382.713928       1.62394977    
  -5.38451099      -1.07104599     -0.157000005       382.529388       1.62397599    
  -4.67581606     -0.930077016     -0.246999994       382.529388       1.62397599    
  -4.40452194      -1.82441294     -0.246999994       382.529388       1.62397599    
  -5.07209921      -2.10093188     -0.157000005       382.529388       1.62397599    
  -5.48999977       0.00000000     -0.157000005       383.933594       1.62377667    
  -4.76741982       0.00000000     -0.246999994       383.933594       1.62377667    
  -4.67581606     -0.930077016     -0.246999994       383.933594       1.62377667    
  -5.38451099      -1.07104599     -0.157000005       383.933594       1.62377667    
  -5.38451099       1.07104599     -0.157000005       384.175171       1.62374258    
  -4.67581606      0.930077016     -0.246999994       384.175171       1.62374258    
  -4.76741982       0.00000000     -0.246999994       384.175171       1.62374258    
  -5.48999977       0.00000000     -0.157000005       384.175171       1.62374258    
  -5.07209921       2.10093188     -0.157000005       384.153961       1.62374556    
  -4.40452194       1.82441294     -0.246999994       384.153961       1.62374556    
  -4.67581606      0.930077016     -0.246999994       384.153961       1.62374556    
  -5.38451099       1.07104599     -0.157000005       384.153961       1.62374556    
  -4.56476784       3.05008101     -0.157000005       383.955750       1.62377334    
  -3.96396494       2.64863706     -0.246999994       383.955750       1.62377334    
  -4.40452194       1.82441294     -0.246999994       383.955750       1.62377334    
  -5.07209921       2.10093188     -0.157000005       383.955750       1.62377334    
  -3.88201594       3.88201594     -0.157000005       382.685181       1.62395406    
  -3.37107491       3.37107491     -0.246999994       382.685181       1.62395406    
  -3.96396494       2.64863706     -0.246999994       382.685181       1.62395406    
  -4.56476784       3.05008101     -0.157000005       382.685181       1.62395406    
  -3.05008101       4.56476784     -0.157000005       383.735962       1.62380481    
  -2.64863706       3.96396494     -0.246999994       383.735962       1.62380481    
  -3.37107491       3.37107491     -0.246999994       383.735962       1.62380481    
  -3.88201594       3.88201594     -0.157000005       383.735962       1.62380481    
  -2.10093188       5.07209921     -0.157000005       382.678375       1.62395501    
  -1.82441294       4.40452194     -0.246999994       382.678375       1.62395501    
  -2.64863706       3.96396494     -0.246999994       382.678375       1.62395501    
  -3.05008101       4.56476784     -0.157000005       382.678375       1.62395501    
  -1.07104599       5.38451099     -0.157000005       383.712585       1.62380815    
 -0.930077016       4.67581606     -0.246999994       383.712585       1.62380815    
  -1.82441294       4.40452194     -0.246999994       383.712585       1.62380815    
  -2.10093188       5.07209921     -0.157000005       383.712585       1.62380815    
   0.00000000       5.48999977     -0.157000005       382.627075       1.62396228    
   0.00000000       4.76741982     -0.246999994       382.627075       1.62396228    
 -0.930077016       4.67581606     -0.246999994       382.627075       1.62396228    
  -1.07104599       5.38451099     -0.157000005       382.627075       1.62396228    
   1.07104599       5.38451099     -0.157000005       383.668793       1.62381423    
  0.930077016       4.67581606     -0.246999994       383.668793       1.62381423    
   0.00000000       4.76741982     -0.246999994       383.668793       1.62381423    
   0.00000000       5.48999977     -0.157000005       383.668793       1.62381423    
   2.10093188       5.07209921     -0.157000005       382.530029       1.62397623    
   1.82441294       4.40452194     -0.246999994       382.530029       1.62397623    
  0.930077016       4.67581606     -0.246999994       382.530029       1.62397623    
   1.07104599       5.38451099     -0.157000005       382.530029       1.62397623    
   3.05008101       4.56476784     -0.157000005       382.560486       1.62397170    
   2.64863706       3.96396494     -0.246999994       382.560486       1.62397170    
   1.82441294       4.40452194     -0.246999994       382.560486       1.62397170    
   2.10093188       5.07209921     -0.157000005       382.560486       1.62397170    
   3.88201594       3.88201594     -0.157000005       384.059296       1.62375891    
   3.37107491       3.37107491     -0.246999994       384.059296       1.62375891    
   2.64863706       3.96396494     -0.246999994       384.059296       1.62375891    
   3.05008101       4.56476784     -0.157000005       384.059296       1.62375891    
   4.56476784       3.05008101     -0.157000005       383.935364       1.62377632    
   3.96396494       2.64863706     -0.246999994       383.935364       1.62377632    
   3.37107491       3.37107491     -0.246999994       383.935364       1.62377632    
   3.88201594       3.88201594     -0.157000005       383.935364       1.62377632    
   5.07209921       2.10093188     -0.157000005       384.154694       1.62374532    
   4.40452194       1.82441294     -0.246999994       384.154694       1.62374532    
   3.96396494       2.64863706     -0.246999994       384.154694       1.62374532    
   4.56476784       3.05008101     -0.157000005       384.154694       1.62374532    
   5.38451099       1.07104599     -0.157000005       382.493561       1.62398112    
   4.67581606      0.930077016     -0.246999994       382.493561       1.62398112    
   4.40452194       1.82441294     -0.246999994       382.493561       1.62398112    
   5.07209921       2.10093188     -0.157000005       382.493561       1.62398112    
   5.48999977       0.00000000     -0.157000005       382.105072       1.62403655    
   4.76741982       0.00000000     -0.246999994       382.105072       1.62403655    
   4.67581606      0.930077016     -0.246999994       382.105072       1.62403655    
   5.38451099       1.07104599     -0.157000005       382.105072       1.62403655    
   5.38451099      -1.07104599     -0.157000005       381.983917       1.62405396    
   4.67581606     -0.930077016     -0.246999994       381.983917       1.62405396    
   4.76741982       0.00000000     -0.246999994       381.983917       1.62405396    
   5.48999977       0.00000000     -0.157000005       381.983917       1.62405396    
   5.07209921      -2.10093188     -0.157000005       381.912231       1.62406433    
   4.40452194      -1.82441294     -0.246999994       381.912231       1.62406433    
   4.67581606     -0.930077016     -0.246999994       381.912231       1.62406433    
   5.38451099      -1.07104599     -0.157000005       381.912231       1.62406433    
   4.56476784      -3.05008101     -0.157000005       381.907776       1.62406480    
   3.96396494      -2.64863706     -0.246999994       381.907776       1.62406480    
   4.40452194      -1.82441294     -0.246999994       381.907776       1.62406480    
   5.07209921      -2.10093188     -0.157000005       381.907776       1.62406480    
   3.88201594      -3.88201594     -0.157000005       382.105316       1.62403667    
   3.37107491      -3.37107491     -0.246999994       382.105316       1.62403667    
   3.96396494      -2.64863706     -0.246999994       382.105316       1.62403667    
   4.56476784      -3.05008101     -0.157000005       382.105316       1.62403667    
   3.05008101      -4.56476784     -0.157000005       383.392761       1.62385356    
   2.64863706      -3.96396494     -0.246999994       383.392761       1.62385356    
   3.37107491      -3.37107491     -0.246999994       383.392761       1.62385356    
   3.88201594      -3.88201594     -0.157000005       383.392761       1.62385356    
   2.10093188      -5.07209921     -0.157000005       382.209106       1.62402225    
   1.82441294      -4.40452194     -0.246999994       382.209106       1.62402225    
   2.64863706      -3.96396494     -0.246999994       382.209106       1.62402225    
   3.05008101      -4.56476784     -0.157000005       382.209106       1.62402225    
   1.07104599      -5.38451099     -0.157000005       381.990173       1.62405348    
  0.930077016      -4.67581606     -0.246999994       381.990173       1.62405348    
   1.82441294      -4.40452194     -0.246999994       381.990173       1.62405348    
   2.10093188      -5.07209921     -0.157000005       381.990173       1.62405348    
   0.00000000      -1.87709999     -0.606999993       554.956116       1.60717762    
   0.00000000      -1.36500001     -0.606999993       554.956116       1.60717762    
  0.266297996      -1.33877206     -0.606999993       554.956116       1.60717762    
  0.366203994      -1.84103203     -0.606999993       554.956116       1.60717762    
   0.00000000      -1.87709999     -0.606999993       555.100098       1.60712135    
   0.00000000      -2.59967995     -0.517000020       555.100098       1.60712135    
 -0.507171988      -2.54972792     -0.517000020       555.100098       1.60712135    
 -0.366203994      -1.84103203     -0.606999993       555.100098       1.60712135    
 -0.366203994      -1.84103203     -0.606999993       554.969360       1.60717666    
 -0.266297996      -1.33877206     -0.606999993       554.969360       1.60717666    
   0.00000000      -1.36500001     -0.606999993       554.969360       1.60717666    
   0.00000000      -1.87709999     -0.606999993       554.969360       1.60717666    
 -0.366203994      -1.84103203     -0.606999993       554.211060       1.60717952    
 -0.507171988      -2.54972792     -0.517000020       554.211060       1.60717952    
 -0.994853973      -2.40179110     -0.517000020       554.211060       1.60717952    
 -0.718334973      -1.73421395     -0.606999993       554.211060       1.60717952    
 -0.718334973      -1.73421395     -0.606999993       554.584473       1.60720181    
 -0.522363007      -1.26109600     -0.606999993       554.584473       1.60720181    
 -0.266297996      -1.33877206     -0.606999993       554.584473       1.60720181    
 -0.366203994      -1.84103203     -0.606999993       554.584473       1.60720181    
 -0.718334973      -1.73421395     -0.606999993       553.488037       1.60722673    
 -0.994853973      -2.40179110     -0.517000020       553.488037       1.60722673    
  -1.44430494      -2.16155505     -0.517000020       553.488037       1.60722673    
  -1.04286098      -1.56075203     -0.606999993       553.488037       1.60722673    
  -1.04286098      -1.56075203     -0.606999993       554.338867       1.60721779    
 -0.758352995      -1.13495600     -0.606999993       554.338867       1.60721779    
 -0.522363007      -1.26109600     -0.606999993       554.338867       1.60721779    
 -0.718334973      -1.73421395     -0.606999993       554.338867       1.60721779    
  -1.04286098      -1.56075203     -0.606999993       553.741821       1.60721004    
  -1.44430494      -2.16155505     -0.517000020       553.741821       1.60721004    
  -1.83825099      -1.83825099     -0.517000020       553.741821       1.60721004    
  -1.32730997      -1.32730997     -0.606999993       553.741821       1.60721004    
  -1.32730997      -1.32730997     -0.606999993       554.677917       1.60719538    
 -0.965201020     -0.965201020     -0.606999993       554.677917       1.60719538    
 -0.758352995      -1.13495600     -0.606999993       554.677917       1.60719538    
  -1.04286098      -1.56075203     -0.606999993       554.677917       1.60719538    
  -1.32730997      -1.32730997     -0.606999993       554.817749       1.60713935    
  -1.83825099      -1.83825099     -0.517000020       554.817749       1.60713935    
  -2.16155505      -1.44430494     -0.517000020       554.817749       1.60713935    
  -1.56075203      -1.04286098     -0.606999993       554.817749       1.60713935    
  -1.56075203      -1.04286098     -0.606999993       555.484863       1.60714257    
  -1.13495600     -0.758352995     -0.606999993       555.484863       1.60714257    
 -0.965201020     -0.965201020     -0.606999993       555.484863       1.60714257    
  -1.32730997      -1.32730997     -0.606999993       555.484863       1.60714257    
  -1.56075203      -1.04286098     -0.606999993       555.730835       1.60707963    
  -2.16155505      -1.44430494     -0.517000020       555.730835       1.60707963    
  -2.40179110     -0.994853973     -0.517000020       555.730835       1.60707963    
  -1.73421395     -0.718334973     -0.606999993       555.730835       1.60707963    
  -1.73421395     -0.718334973     -0.606999993       556.202026       1.60709560    
  -1.26109600     -0.522363007     -0.606999993       556.202026       1.60709560    
  -1.13495600     -0.758352995     -0.606999993       556.202026       1.60709560    
  -1.56075203      -1.04286098     -0.606999993       556.202026       1.60709560    
  -1.73421395     -0.718334973     -0.606999993       555.746338       1.60707855    
  -2.40179110     -0.994853973     -0.517000020       555.746338       1.60707855    
  -2.54972792     -0.507171988     -0.517000020       555.746338       1.60707855    
  -1.84103203     -0.366203994     -0.606999993       555.746338       1.60707855    
  -1.84103203     -0.366203994     -0.606999993       556.437866       1.60708010    
  -1.33877206     -0.266297996     -0.606999993       556.437866       1.60708010    
  -1.26109600     -0.522363007     -0.606999993       556.437866       1.60708010    
  -1.73421395     -0.718334973     -0.606999993       556.437866       1.60708010    
  -1.84103203     -0.366203994     -0.606999993       555.327026       1.60710561    
  -2.54972792     -0.507171988     -0.517000020       555.327026       1.60710561    
  -2.59967995       0.00000000     -0.517000020       555.327026       1.60710561    
  -1.87709999       0.00000000     -0.606999993       555.327026       1.60710561    
  -1.87709999       0.00000000     -0.606999993       556.371216       1.60708451    
  -1.36500001       0.00000000     -0.606999993       556.371216       1.60708451    
  -1.33877206     -0.266297996     -0.606999993       556.371216       1.60708451    
  -1.84103203     -0.366203994     -0.606999993       556.371216       1.60708451    
  -1.87709999       0.00000000     -0.606999993       555.406799       1.60710037    
  -2.59967995       0.00000000     -0.517000020       555.406799       1.60710037    
  -2.54972792      0.507171988     -0.517000020       555.406799       1.60710037    
  -1.84103203      0.366203994     -0.606999993       555.406799       1.60710037    
  -1.84103203      0.366203994     -0.606999993       556.429443       1.60708070    
  -1.33877206      0.266297996     -0.606999993       556.429443       1.60708070    
  -1.36500001       0.00000000     -0.606999993       556.429443       1.60708070    
  -1.87709999       0.00000000     -0.606999993       556.429443       1.60708070    
  -1.84103203      0.366203994     -0.606999993       556.140564       1.60705256    
  -2.54972792      0.507171988     -0.517000020       556.140564       1.60705256    
  -2.40179110      0.994853973     -0.517000020       556.140564       1.60705256    
  -1.73421395      0.718334973     -0.606999993       556.140564       1.60705256    
  -1.73421395      0.718334973     -0.606999993       556.697693       1.60706306    
  -1.26109600      0.522363007     -0.606999993       556.697693       1.60706306    
  -1.33877206      0.266297996     -0.606999993       556.697693       1.60706306    
  -1.84103203      0.366203994     -0.606999993       556.697693       1.60706306    
  -1.73421395      0.718334973     -0.606999993       556.658691       1.60701895    
  -2.40179110      0.994853973     -0.517000020       556.658691       1.60701895    
  -2.16155505       1.44430494     -0.517000020       556.658691       1.60701895    
  -1.56075203       1.04286098     -0.606999993       556.658691       1.60701895    
  -1.56075203       1.04286098     -0.606999993       556.796814       1.60705650    
  -1.13495600      0.758352995     -0.606999993       556.796814       1.60705650    
  -1.26109600      0.522363007     -0.606999993       556.796814       1.60705650    
  -1.73421395      0.718334973     -0.606999993       556.796814       1.60705650    
  -1.56075203       1.04286098     -0.606999993       556.184631       1.60704970    
  -2.16155505       1.44430494     -0.517000020       556.184631       1.60704970    
  -1.83825099       1.83825099     -0.517000020       556.184631       1.60704970    
  -1.32730997       1.32730997     -0.606999993       556.184631       1.60704970    
  -1.32730997       1.32730997     -0.606999993       556.411377       1.60708165    
 -0.965201020      0.965201020     -0.606999993       556.411377       1.60708165    
  -1.13495600      0.758352995     -0.606999993       556.411377       1.60708165    
  -1.56075203       1.04286098     -0.606999993       556.411377       1.60708165    
  -1.32730997       1.32730997     -0.606999993       555.190796       1.60711455    
  -1.83825099       1.83825099     -0.517000020       555.190796       1.60711455    
  -1.44430494       2.16155505     -0.517000020       555.190796       1.60711455    
  -1.04286098       1.56075203     -0.606999993       555.190796       1.60711455    
  -1.04286098       1.56075203     -0.606999993       555.787720       1.60712218    
 -0.758352995       1.13495600     -0.606999993       555.787720       1.60712218    
 -0.965201020      0.965201020     -0.606999993       555.787720       1.60712218    
  -1.32730997       1.32730997     -0.606999993       555.787720       1.60712218    
  -1.04286098       1.56075203     -0.606999993       554.774719       1.60714149    
  -1.44430494       2.16155505     -0.517000020       554.774719       1.60714149    
 -0.994853973       2.40179110     -0.517000020       554.774719       1.60714149    
 -0.718334973       1.73421395     -0.606999993       554.774719       1.60714149    
 -0.718334973       1.73421395     -0.606999993       555.462830       1.60714328    
 -0.522363007       1.26109600     -0.606999993       555.462830       1.60714328    
 -0.758352995       1.13495600     -0.606999993       555.462830       1.60714328    
  -1.04286098       1.56075203     -0.606999993       555.462830       1.60714328    
 -0.718334973       1.73421395     -0.606999993       555.320496       1.60710597    
 -0.994853973       2.40179110     -0.517000020       555.320496       1.60710597    
 -0.507171988       2.54972792     -0.517000020       555.320496       1.60710597    
 -0.366203994       1.84103203     -0.606999993       555.320496       1.60710597    
 -0.366203994       1.84103203     -0.606999993       555.643311       1.60713136    
 -0.266297996       1.33877206     -0.606999993       555.643311       1.60713136    
 -0.522363007       1.26109600     -0.606999993       555.643311       1.60713136    
 -0.718334973       1.73421395     -0.606999993       555.643311       1.60713136    
 -0.366203994       1.84103203     -0.606999993       556.119568       1.60705388    
 -0.507171988       2.54972792     -0.517000020       556.119568       1.60705388    
   0.00000000       2.59967995     -0.517000020       556.119568       1.60705388    
   0.00000000       1.87709999     -0.606999993       556.119568       1.60705388    
   0.00000000       1.87709999     -0.606999993       555.975708       1.60710979    
   0.00000000       1.36500001     -0.606999993       555.975708       1.60710979    
 -0.266297996       1.33877206     -0.606999993       555.975708       1.60710979    
 -0.366203994       1.84103203     -0.606999993       555.975708       1.60710979    
   0.00000000       1.87709999     -0.606999993       556.122559       1.60705364    
   0.00000000       2.59967995     -0.517000020       556.122559       1.60705364    
  0.507171988       2.54972792     -0.517000020       556.122559       1.60705364    
  0.366203994       1.84103203     -0.606999993       556.122559       1.60705364    
  0.366203994       1.84103203     -0.606999993       555.985413       1.60710907    
  0.266297996       1.33877206     -0.606999993       555.985413       1.60710907    
   0.00000000       1.36500001     -0.606999993       555.985413       1.60710907    
   0.00000000       1.87709999     -0.606999993       555.985413       1.60710907    
  0.366203994       1.84103203     -0.606999993       555.329468       1.60710526    
  0.507171988       2.54972792     -0.517000020       555.329468       1.60710526    
  0.994853973       2.40179110     -0.517000020       555.329468       1.60710526    
  0.718334973       1.73421395     -0.606999993       555.329468       1.60710526    
  0.718334973       1.73421395     -0.606999993       555.665405       1.60712993    
  0.522363007       1.26109600     -0.606999993       555.665405       1.60712993    
  0.266297996       1.33877206     -0.606999993       555.665405       1.60712993    
  0.366203994       1.84103203     -0.606999993       555.665405       1.60712993    
  0.718334973       1.73421395     -0.606999993       554.786865       1.60714066    
  0.994853973       2.40179110     -0.517000020       554.786865       1.60714066    
   1.44430494       2.16155505     -0.517000020       554.786865       1.60714066    
   1.04286098       1.56075203     -0.606999993       554.786865       1.60714066    
   1.04286098       1.56075203     -0.606999993       555.500183       1.60714054    
  0.758352995       1.13495600     -0.606999993       555.500183       1.60714054    
  0.522363007       1.26109600     -0.606999993       555.500183       1.60714054    
  0.718334973       1.73421395     -0.606999993       555.500183       1.60714054    
   1.04286098       1.56075203     -0.606999993       555.202271       1.60711348    
   1.44430494       2.16155505     -0.517000020       555.202271       1.60711348    
   1.83825099       1.83825099     -0.517000020       555.202271       1.60711348    
   1.32730997       1.32730997     -0.606999993       555.202271       1.60711348    
   1.32730997       1.32730997     -0.606999993       555.827148       1.60711920    
  0.965201020      0.965201020     -0.606999993       555.827148       1.60711920    
  0.758352995       1.13495600     -0.606999993       555.827148       1.60711920    
   1.04286098       1.56075203     -0.606999993       555.827148       1.60711920    
   1.32730997       1.32730997     -0.606999993       556.182434       1.60704982    
   1.83825099       1.83825099     -0.517000020       556.182434       1.60704982    
   2.16155505       1.44430494     -0.517000020       556.182434       1.60704982    
   1.56075203       1.04286098     -0.606999993       556.182434       1.60704982    
   1.56075203       1.04286098     -0.606999993       556.444763       1.60707903    
   1.13495600      0.758352995     -0.606999993       556.444763       1.60707903    
  0.965201020      0.965201020     -0.606999993       556.444763       1.60707903    
   1.32730997       1.32730997     -0.606999993       556.444763       1.60707903    
   1.56075203       1.04286098     -0.606999993       556.627991       1.60702097    
   2.16155505       1.44430494     -0.517000020       556.627991       1.60702097    
   2.40179110      0.994853973     -0.517000020       556.627991       1.60702097    
   1.73421395      0.718334973     -0.606999993       556.627991       1.60702097    
   1.73421395      0.718334973     -0.606999993       556.823425       1.60705447    
   1.26109600      0.522363007     -0.606999993       556.823425       1.60705447    
   1.13495600      0.758352995     -0.606999993       556.823425       1.60705447    
   1.56075203       1.04286098     -0.606999993       556.823425       1.60705447    
   1.73421395      0.718334973     -0.606999993       556.075439       1.60705698    
   2.40179110      0.994853973     -0.517000020       556.075439       1.60705698    
   2.54972792      0.507171988     -0.517000020       556.075439       1.60705698    
   1.84103203      0.366203994     -0.606999993       556.075439       1.60705698    
   1.84103203      0.366203994     -0.606999993       556.722046       1.60706115    
   1.33877206      0.266297996     -0.606999993       556.722046       1.60706115    
   1.26109600      0.522363007     -0.606999993       556.722046       1.60706115    
   1.73421395      0.718334973     -0.606999993       556.722046       1.60706115    
   1.84103203      0.366203994     -0.606999993       555.312317       1.60710680    
   2.54972792      0.507171988     -0.517000020       555.312317       1.60710680    
   2.59967995       0.00000000     -0.517000020       555.312317       1.60710680    
   1.87709999       0.00000000     -0.606999993       555.312317       1.60710680    
   1.87709999       0.00000000     -0.606999993       556.434570       1.60707998    
   1.36500001       0.00000000     -0.606999993       556.434570       1.60707998    
   1.33877206      0.266297996     -0.606999993       556.434570       1.60707998    
   1.84103203      0.366203994     -0.606999993       556.434570       1.60707998    
   1.87709999       0.00000000     -0.606999993       555.202881       1.60711408    
   2.59967995       0.00000000     -0.517000020       555.202881       1.60711408    
   2.54972792     -0.507171988     -0.517000020       555.202881       1.60711408    
   1.84103203     -0.366203994     -0.606999993       555.202881       1.60711408    
   1.84103203     -0.366203994     -0.606999993       556.354187       1.60708535    
   1.33877206     -0.266297996     -0.606999993       556.354187       1.60708535    
   1.36500001       0.00000000     -0.606999993       556.354187       1.60708535    
   1.87709999       0.00000000     -0.606999993       556.354187       1.60708535    
   1.84103203     -0.366203994     -0.606999993       555.612610       1.60708749    
   2.54972792     -0.507171988     -0.517000020       555.612610       1.60708749    
   2.40179110     -0.994853973     -0.517000020       555.612610       1.60708749    
   1.73421395     -0.718334973     -0.606999993       555.612610       1.60708749    
   1.73421395     -0.718334973     -0.606999993       556.399414       1.60708249    
   1.26109600     -0.522363007     -0.606999993       556.399414       1.60708249    
   1.33877206     -0.266297996     -0.606999993       556.399414       1.60708249    
   1.84103203     -0.366203994     -0.606999993       556.399414       1.60708249    
   1.73421395     -0.718334973     -0.606999993       555.596008       1.60708857    
   2.40179110     -0.994853973     -0.517000020       555.596008       1.60708857    
   2.16155505      -1.44430494     -0.517000020       555.596008       1.60708857    
   1.56075203      -1.04286098     -0.606999993       555.596008       1.60708857    
   1.56075203      -1.04286098     -0.606999993       556.139465       1.60709953    
   1.13495600     -0.758352995     -0.606999993       556.139465       1.60709953    
   1.26109600     -0.522363007     -0.606999993       556.139465       1.60709953    