 VARIABLES="X" "Y" "Z" "abs(p) (Pa)" "angle(p) (rad)"
ZONE N=   2709,E =    2358, F=FEPOINT, ET=QUADRILATERAL
   0.00000000      -5.48999977     -0.157000005       740.774231       1.58677959    
   0.00000000      -4.76741982     -0.246999994       740.774231       1.58677959    
  0.930077016      -4.67581606     -0.246999994       740.774231       1.58677959    
   1.07104599      -5.38451099     -0.157000005       740.774231       1.58677959    
  -1.07104599      -5.38451099     -0.157000005       740.460022       1.58541214    
 -0.930077016      -4.67581606     -0.246999994       740.460022       1.58541214    
   0.00000000      -4.76741982     -0.246999994       740.460022       1.58541214    
   0.00000000      -5.48999977     -0.157000005       740.460022       1.58541214    
  -2.10093188      -5.07209921     -0.157000005       747.163635       1.59114897    
  -1.82441294      -4.40452194     -0.246999994       747.163635       1.59114897    
 -0.930077016      -4.67581606     -0.246999994       747.163635       1.59114897    
  -1.07104599      -5.38451099     -0.157000005       747.163635       1.59114897    
  -3.05008101      -4.56476784     -0.157000005       741.295532       1.58483160    
  -2.64863706      -3.96396494     -0.246999994       741.295532       1.58483160    
  -1.82441294      -4.40452194     -0.246999994       741.295532       1.58483160    
  -2.10093188      -5.07209921     -0.157000005       741.295532       1.58483160    
  -3.88201594      -3.88201594     -0.157000005       739.979309       1.58787882    
  -3.37107491      -3.37107491     -0.246999994       739.979309       1.58787882    
  -2.64863706      -3.96396494     -0.246999994       739.979309       1.58787882    
  -3.05008101      -4.56476784     -0.157000005       739.979309       1.58787882    
  -4.56476784      -3.05008101     -0.157000005       747.657288       1.58735549    
  -3.96396494      -2.64863706     -0.246999994       747.657288       1.58735549    
  -3.37107491      -3.37107491     -0.246999994       747.657288       1.58735549    
  -3.88201594      -3.88201594     -0.157000005       747.657288       1.58735549    
  -5.07209921      -2.10093188     -0.157000005       740.835327       1.58685172    
  -4.40452194      -1.82441294     -0.246999994       740.835327       1.58685172    
  -3.96396494      -2.64863706     -0.246999994       740.835327       1.58685172    
  -4.56476784      -3.05008101     -0.157000005       740.835327       1.58685172    
  -5.38451099      -1.07104599     -0.157000005       740.891113       1.58588302    
  -4.67581606     -0.930077016     -0.246999994       740.891113       1.58588302    
  -4.40452194      -1.82441294     -0.246999994       740.891113       1.58588302    
  -5.07209921      -2.10093188     -0.157000005       740.891113       1.58588302    
  -5.48999977       0.00000000     -0.157000005       747.067566       1.58951914    
  -4.76741982       0.00000000     -0.246999994       747.067566       1.58951914    
  -4.67581606     -0.930077016     -0.246999994       747.067566       1.58951914    
  -5.38451099      -1.07104599     -0.157000005       747.067566       1.58951914    
  -5.38451099       1.07104599     -0.157000005       748.347595       1.59005916    
  -4.67581606      0.930077016     -0.246999994       748.347595       1.59005916    
  -4.76741982       0.00000000     -0.246999994       748.347595       1.59005916    
  -5.48999977       0.00000000     -0.157000005       748.347595       1.59005916    
  -5.07209921       2.10093188     -0.157000005       747.163391       1.58883071    
  -4.40452194       1.82441294     -0.246999994       747.163391       1.58883071    
  -4.67581606      0.930077016     -0.246999994       747.163391       1.58883071    
  -5.38451099       1.07104599     -0.157000005       747.163391       1.58883071    
  -4.56476784       3.05008101     -0.157000005       748.724548       1.59146833    
  -3.96396494       2.64863706     -0.246999994       748.724548       1.59146833    
  -4.40452194       1.82441294     -0.246999994       748.724548       1.59146833    
  -5.07209921       2.10093188     -0.157000005       748.724548       1.59146833    
  -3.88201594       3.88201594     -0.157000005       740.273438       1.58461678    
  -3.37107491       3.37107491     -0.246999994       740.273438       1.58461678    
  -3.96396494       2.64863706     -0.246999994       740.273438       1.58461678    
  -4.56476784       3.05008101     -0.157000005       740.273438       1.58461678    
  -3.05008101       4.56476784     -0.157000005       748.070984       1.59198630    
  -2.64863706       3.96396494     -0.246999994       748.070984       1.59198630    
  -3.37107491       3.37107491     -0.246999994       748.070984       1.59198630    
  -3.88201594       3.88201594     -0.157000005       748.070984       1.59198630    
  -2.10093188       5.07209921     -0.157000005       740.449768       1.58427477    
  -1.82441294       4.40452194     -0.246999994       740.449768       1.58427477    
  -2.64863706       3.96396494     -0.246999994       740.449768       1.58427477    
  -3.05008101       4.56476784     -0.157000005       740.449768       1.58427477    
  -1.07104599       5.38451099     -0.157000005       748.245544       1.59201205    
 -0.930077016       4.67581606     -0.246999994       748.245544       1.59201205    
  -1.82441294       4.40452194     -0.246999994       748.245544       1.59201205    
  -2.10093188       5.07209921     -0.157000005       748.245544       1.59201205    
   0.00000000       5.48999977     -0.157000005       740.247742       1.58487070    
   0.00000000       4.76741982     -0.246999994       740.247742       1.58487070    
 -0.930077016       4.67581606     -0.246999994       740.247742       1.58487070    
  -1.07104599       5.38451099     -0.157000005       740.247742       1.58487070    
   1.07104599       5.38451099     -0.157000005       748.010498       1.59097004    
  0.930077016       4.67581606     -0.246999994       748.010498       1.59097004    
   0.00000000       4.76741982     -0.246999994       748.010498       1.59097004    
   0.00000000       5.48999977     -0.157000005       748.010498       1.59097004    
   2.10093188       5.07209921     -0.157000005       740.371460       1.58626890    
   1.82441294       4.40452194     -0.246999994       740.371460       1.58626890    
  0.930077016       4.67581606     -0.246999994       740.371460       1.58626890    
   1.07104599       5.38451099     -0.157000005       740.371460       1.58626890    
   3.05008101       4.56476784     -0.157000005       741.533875       1.58557117    
   2.64863706       3.96396494     -0.246999994       741.533875       1.58557117    
   1.82441294       4.40452194     -0.246999994       741.533875       1.58557117    
   2.10093188       5.07209921     -0.157000005       741.533875       1.58557117    
   3.88201594       3.88201594     -0.157000005       746.609985       1.59130609    
   3.37107491       3.37107491     -0.246999994       746.609985       1.59130609    
   2.64863706       3.96396494     -0.246999994       746.609985       1.59130609    
   3.05008101       4.56476784     -0.157000005       746.609985       1.59130609    
   4.56476784       3.05008101     -0.157000005       745.949646       1.58569968    
   3.96396494       2.64863706     -0.246999994       745.949646       1.58569968    
   3.37107491       3.37107491     -0.246999994       745.949646       1.58569968    
   3.88201594       3.88201594     -0.157000005       745.949646       1.58569968    
   5.07209921       2.10093188     -0.157000005       746.631531       1.59119534    
   4.40452194       1.82441294     -0.246999994       746.631531       1.59119534    
   3.96396494       2.64863706     -0.246999994       746.631531       1.59119534    
   4.56476784       3.05008101     -0.157000005       746.631531       1.59119534    
   5.38451099       1.07104599     -0.157000005       741.208740       1.58525693    
   4.67581606      0.930077016     -0.246999994       741.208740       1.58525693    
   4.40452194       1.82441294     -0.246999994       741.208740       1.58525693    
   5.07209921       2.10093188     -0.157000005       741.208740       1.58525693    
   5.48999977       0.00000000     -0.157000005       740.450500       1.58741152    
   4.76741982       0.00000000     -0.246999994       740.450500       1.58741152    
   4.67581606      0.930077016     -0.246999994       740.450500       1.58741152    
   5.38451099       1.07104599     -0.157000005       740.450500       1.58741152    
   5.38451099      -1.07104599     -0.157000005       740.070740       1.58557618    
   4.67581606     -0.930077016     -0.246999994       740.070740       1.58557618    
   4.76741982       0.00000000     -0.246999994       740.070740       1.58557618    
   5.48999977       0.00000000     -0.157000005       740.070740       1.58557618    
   5.07209921      -2.10093188     -0.157000005       740.924438       1.58641446    
   4.40452194      -1.82441294     -0.246999994       740.924438       1.58641446    
   4.67581606     -0.930077016     -0.246999994       740.924438       1.58641446    
   5.38451099      -1.07104599     -0.157000005       740.924438       1.58641446    
   4.56476784      -3.05008101     -0.157000005       739.776733       1.58631051    
   3.96396494      -2.64863706     -0.246999994       739.776733       1.58631051    
   4.40452194      -1.82441294     -0.246999994       739.776733       1.58631051    
   5.07209921      -2.10093188     -0.157000005       739.776733       1.58631051    
   3.88201594      -3.88201594     -0.157000005       741.143127       1.58584571    
   3.37107491      -3.37107491     -0.246999994       741.143127       1.58584571    
   3.96396494      -2.64863706     -0.246999994       741.143127       1.58584571    
   4.56476784      -3.05008101     -0.157000005       741.143127       1.58584571    
   3.05008101      -4.56476784     -0.157000005       746.380188       1.59021020    
   2.64863706      -3.96396494     -0.246999994       746.380188       1.59021020    
   3.37107491      -3.37107491     -0.246999994       746.380188       1.59021020    
   3.88201594      -3.88201594     -0.157000005       746.380188       1.59021020    
   2.10093188      -5.07209921     -0.157000005       741.730469       1.58628654    
   1.82441294      -4.40452194     -0.246999994       741.730469       1.58628654    
   2.64863706      -3.96396494     -0.246999994       741.730469       1.58628654    
   3.05008101      -4.56476784     -0.157000005       741.730469       1.58628654    
   1.07104599      -5.38451099     -0.157000005       739.974182       1.58609426    
  0.930077016      -4.67581606     -0.246999994       739.974182       1.58609426    
   1.82441294      -4.40452194     -0.246999994       739.974182       1.58609426    
   2.10093188      -5.07209921     -0.157000005       739.974182       1.58609426    
   0.00000000      -1.87709999     -0.606999993       534.057495       1.57339418    
   0.00000000      -1.36500001     -0.606999993       534.057495       1.57339418    
  0.266297996      -1.33877206     -0.606999993       534.057495       1.57339418    
  0.366203994      -1.84103203     -0.606999993       534.057495       1.57339418    
   0.00000000      -1.87709999     -0.606999993       592.389465      -1.57029128    
   0.00000000      -2.59967995     -0.517000020       592.389465      -1.57029128    
 -0.507171988      -2.54972792     -0.517000020       592.389465      -1.57029128    
 -0.366203994      -1.84103203     -0.606999993       592.389465      -1.57029128    
 -0.366203994      -1.84103203     -0.606999993       531.868164       1.57341969    
 -0.266297996      -1.33877206     -0.606999993       531.868164       1.57341969    
   0.00000000      -1.36500001     -0.606999993       531.868164       1.57341969    
   0.00000000      -1.87709999     -0.606999993       531.868164       1.57341969    
 -0.366203994      -1.84103203     -0.606999993       593.281738      -1.57027411    
 -0.507171988      -2.54972792     -0.517000020       593.281738      -1.57027411    
 -0.994853973      -2.40179110     -0.517000020       593.281738      -1.57027411    
 -0.718334973      -1.73421395     -0.606999993       593.281738      -1.57027411    
 -0.718334973      -1.73421395     -0.606999993       528.921631       1.57344913    
 -0.522363007      -1.26109600     -0.606999993       528.921631       1.57344913    
 -0.266297996      -1.33877206     -0.606999993       528.921631       1.57344913    
 -0.366203994      -1.84103203     -0.606999993       528.921631       1.57344913    
 -0.718334973      -1.73421395     -0.606999993       594.181763      -1.57030582    
 -0.994853973      -2.40179110     -0.517000020       594.181763      -1.57030582    
  -1.44430494      -2.16155505     -0.517000020       594.181763      -1.57030582    
  -1.04286098      -1.56075203     -0.606999993       594.181763      -1.57030582    
  -1.04286098      -1.56075203     -0.606999993       526.059937       1.57347453    
 -0.758352995      -1.13495600     -0.606999993       526.059937       1.57347453    
 -0.522363007      -1.26109600     -0.606999993       526.059937       1.57347453    
 -0.718334973      -1.73421395     -0.606999993       526.059937       1.57347453    
  -1.04286098      -1.56075203     -0.606999993       595.136047      -1.57034290    
  -1.44430494      -2.16155505     -0.517000020       595.136047      -1.57034290    
  -1.83825099      -1.83825099     -0.517000020       595.136047      -1.57034290    
  -1.32730997      -1.32730997     -0.606999993       595.136047      -1.57034290    
  -1.32730997      -1.32730997     -0.606999993       524.067017       1.57347405    
 -0.965201020     -0.965201020     -0.606999993       524.067017       1.57347405    
 -0.758352995      -1.13495600     -0.606999993       524.067017       1.57347405    
  -1.04286098      -1.56075203     -0.606999993       524.067017       1.57347405    
  -1.32730997      -1.32730997     -0.606999993       595.742554      -1.57037568    
  -1.83825099      -1.83825099     -0.517000020       595.742554      -1.57037568    
  -2.16155505      -1.44430494     -0.517000020       595.742554      -1.57037568    
  -1.56075203      -1.04286098     -0.606999993       595.742554      -1.57037568    
  -1.56075203      -1.04286098     -0.606999993       523.612427       1.57347906    
  -1.13495600     -0.758352995     -0.606999993       523.612427       1.57347906    
 -0.965201020     -0.965201020     -0.606999993       523.612427       1.57347906    
  -1.32730997      -1.32730997     -0.606999993       523.612427       1.57347906    
  -1.56075203      -1.04286098     -0.606999993       595.281128      -1.57034254    
  -2.16155505      -1.44430494     -0.517000020       595.281128      -1.57034254    
  -2.40179110     -0.994853973     -0.517000020       595.281128      -1.57034254    
  -1.73421395     -0.718334973     -0.606999993       595.281128      -1.57034254    
  -1.73421395     -0.718334973     -0.606999993       525.211670       1.57342756    
  -1.26109600     -0.522363007     -0.606999993       525.211670       1.57342756    
  -1.13495600     -0.758352995     -0.606999993       525.211670       1.57342756    
  -1.56075203      -1.04286098     -0.606999993       525.211670       1.57342756    
  -1.73421395     -0.718334973     -0.606999993       593.454712      -1.57029998    
  -2.40179110     -0.994853973     -0.517000020       593.454712      -1.57029998    
  -2.54972792     -0.507171988     -0.517000020       593.454712      -1.57029998    
  -1.84103203     -0.366203994     -0.606999993       593.454712      -1.57029998    
  -1.84103203     -0.366203994     -0.606999993       528.551758       1.57337642    
  -1.33877206     -0.266297996     -0.606999993       528.551758       1.57337642    
  -1.26109600     -0.522363007     -0.606999993       528.551758       1.57337642    
  -1.73421395     -0.718334973     -0.606999993       528.551758       1.57337642    
  -1.84103203     -0.366203994     -0.606999993       591.320984      -1.57025194    
  -2.54972792     -0.507171988     -0.517000020       591.320984      -1.57025194    
  -2.59967995       0.00000000     -0.517000020       591.320984      -1.57025194    
  -1.87709999       0.00000000     -0.606999993       591.320984      -1.57025194    
  -1.87709999       0.00000000     -0.606999993       532.005798       1.57331479    
  -1.36500001       0.00000000     -0.606999993       532.005798       1.57331479    
  -1.33877206     -0.266297996     -0.606999993       532.005798       1.57331479    
  -1.84103203     -0.366203994     -0.606999993       532.005798       1.57331479    
  -1.87709999       0.00000000     -0.606999993       590.166626      -1.57019591    
  -2.59967995       0.00000000     -0.517000020       590.166626      -1.57019591    
  -2.54972792      0.507171988     -0.517000020       590.166626      -1.57019591    
  -1.84103203      0.366203994     -0.606999993       590.166626      -1.57019591    
  -1.84103203      0.366203994     -0.606999993       534.041443       1.57331061    
  -1.33877206      0.266297996     -0.606999993       534.041443       1.57331061    
  -1.36500001       0.00000000     -0.606999993       534.041443       1.57331061    
  -1.87709999       0.00000000     -0.606999993       534.041443       1.57331061    
  -1.84103203      0.366203994     -0.606999993       590.571899      -1.57016957    
  -2.54972792      0.507171988     -0.517000020       590.571899      -1.57016957    
  -2.40179110      0.994853973     -0.517000020       590.571899      -1.57016957    
  -1.73421395      0.718334973     -0.606999993       590.571899      -1.57016957    
  -1.73421395      0.718334973     -0.606999993       534.038757       1.57336950    
  -1.26109600      0.522363007     -0.606999993       534.038757       1.57336950    
  -1.33877206      0.266297996     -0.606999993       534.038757       1.57336950    
  -1.84103203      0.366203994     -0.606999993       534.038757       1.57336950    
  -1.73421395      0.718334973     -0.606999993       591.892639      -1.57024670    
  -2.40179110      0.994853973     -0.517000020       591.892639      -1.57024670    
  -2.16155505       1.44430494     -0.517000020       591.892639      -1.57024670    
  -1.56075203       1.04286098     -0.606999993       591.892639      -1.57024670    
  -1.56075203       1.04286098     -0.606999993       532.008240       1.57346523    
  -1.13495600      0.758352995     -0.606999993       532.008240       1.57346523    
  -1.26109600      0.522363007     -0.606999993       532.008240       1.57346523    
  -1.73421395      0.718334973     -0.606999993       532.008240       1.57346523    
  -1.56075203       1.04286098     -0.606999993       593.212708      -1.57040370    
  -2.16155505       1.44430494     -0.517000020       593.212708      -1.57040370    
  -1.83825099       1.83825099     -0.517000020       593.212708      -1.57040370    
  -1.32730997       1.32730997     -0.606999993       593.212708      -1.57040370    
  -1.32730997       1.32730997     -0.606999993       528.748352       1.57357264    
 -0.965201020      0.965201020     -0.606999993       528.748352       1.57357264    
  -1.13495600      0.758352995     -0.606999993       528.748352       1.57357264    
  -1.56075203       1.04286098     -0.606999993       528.748352       1.57357264    
  -1.32730997       1.32730997     -0.606999993       594.326233      -1.57050991    
  -1.83825099       1.83825099     -0.517000020       594.326233      -1.57050991    
  -1.44430494       2.16155505     -0.517000020       594.326233      -1.57050991    
  -1.04286098       1.56075203     -0.606999993       594.326233      -1.57050991    
  -1.04286098       1.56075203     -0.606999993       525.287598       1.57361424    
 -0.758352995       1.13495600     -0.606999993       525.287598       1.57361424    
 -0.965201020      0.965201020     -0.606999993       525.287598       1.57361424    
  -1.32730997       1.32730997     -0.606999993       525.287598       1.57361424    
  -1.04286098       1.56075203     -0.606999993       595.526672      -1.57044613    
  -1.44430494       2.16155505     -0.517000020       595.526672      -1.57044613    
 -0.994853973       2.40179110     -0.517000020       595.526672      -1.57044613    
 -0.718334973       1.73421395     -0.606999993       595.526672      -1.57044613    
 -0.718334973       1.73421395     -0.606999993       522.250610       1.57357514    
 -0.522363007       1.26109600     -0.606999993       522.250610       1.57357514    
 -0.758352995       1.13495600     -0.606999993       522.250610       1.57357514    
  -1.04286098       1.56075203     -0.606999993       522.250610       1.57357514    
 -0.718334973       1.73421395     -0.606999993       596.647339      -1.57030463    
 -0.994853973       2.40179110     -0.517000020       596.647339      -1.57030463    
 -0.507171988       2.54972792     -0.517000020       596.647339      -1.57030463    
 -0.366203994       1.84103203     -0.606999993       596.647339      -1.57030463    
 -0.366203994       1.84103203     -0.606999993       520.576416       1.57347584    
 -0.266297996       1.33877206     -0.606999993       520.576416       1.57347584    
 -0.522363007       1.26109600     -0.606999993       520.576416       1.57347584    
 -0.718334973       1.73421395     -0.606999993       520.576416       1.57347584    
 -0.366203994       1.84103203     -0.606999993       596.968262      -1.57020402    
 -0.507171988       2.54972792     -0.517000020       596.968262      -1.57020402    
   0.00000000       2.59967995     -0.517000020       596.968262      -1.57020402    
   0.00000000       1.87709999     -0.606999993       596.968262      -1.57020402    
   0.00000000       1.87709999     -0.606999993       521.148560       1.57334805    
   0.00000000       1.36500001     -0.606999993       521.148560       1.57334805    
 -0.266297996       1.33877206     -0.606999993       521.148560       1.57334805    
 -0.366203994       1.84103203     -0.606999993       521.148560       1.57334805    
   0.00000000       1.87709999     -0.606999993       595.600464      -1.57018209    
   0.00000000       2.59967995     -0.517000020       595.600464      -1.57018209    
  0.507171988       2.54972792     -0.517000020       595.600464      -1.57018209    
  0.366203994       1.84103203     -0.606999993       595.600464      -1.57018209    
  0.366203994       1.84103203     -0.606999993       523.949280       1.57322335    
  0.266297996       1.33877206     -0.606999993       523.949280       1.57322335    
   0.00000000       1.36500001     -0.606999993       523.949280       1.57322335    
   0.00000000       1.87709999     -0.606999993       523.949280       1.57322335    
  0.366203994       1.84103203     -0.606999993       593.029053      -1.57024646    
  0.507171988       2.54972792     -0.517000020       593.029053      -1.57024646    
  0.994853973       2.40179110     -0.517000020       593.029053      -1.57024646    
  0.718334973       1.73421395     -0.606999993       593.029053      -1.57024646    
  0.718334973       1.73421395     -0.606999993       527.941528       1.57319677    
  0.522363007       1.26109600     -0.606999993       527.941528       1.57319677    
  0.266297996       1.33877206     -0.606999993       527.941528       1.57319677    
  0.366203994       1.84103203     -0.606999993       527.941528       1.57319677    
  0.718334973       1.73421395     -0.606999993       590.706909      -1.57034492    
  0.994853973       2.40179110     -0.517000020       590.706909      -1.57034492    
   1.44430494       2.16155505     -0.517000020       590.706909      -1.57034492    
   1.04286098       1.56075203     -0.606999993       590.706909      -1.57034492    
   1.04286098       1.56075203     -0.606999993       532.308960       1.57325697    
  0.758352995       1.13495600     -0.606999993       532.308960       1.57325697    
  0.522363007       1.26109600     -0.606999993       532.308960       1.57325697    
  0.718334973       1.73421395     -0.606999993       532.308960       1.57325697    
   1.04286098       1.56075203     -0.606999993       589.644043      -1.57040858    
   1.44430494       2.16155505     -0.517000020       589.644043      -1.57040858    
   1.83825099       1.83825099     -0.517000020       589.644043      -1.57040858    
   1.32730997       1.32730997     -0.606999993       589.644043      -1.57040858    
   1.32730997       1.32730997     -0.606999993       534.839966       1.57331145    
  0.965201020      0.965201020     -0.606999993       534.839966       1.57331145    
  0.758352995       1.13495600     -0.606999993       534.839966       1.57331145    
   1.04286098       1.56075203     -0.606999993       534.839966       1.57331145    
   1.32730997       1.32730997     -0.606999993       590.161621      -1.57042229    
   1.83825099       1.83825099     -0.517000020       590.161621      -1.57042229    
   2.16155505       1.44430494     -0.517000020       590.161621      -1.57042229    
   1.56075203       1.04286098     -0.606999993       590.161621      -1.57042229    
   1.56075203       1.04286098     -0.606999993       534.886597       1.57340169    
   1.13495600      0.758352995     -0.606999993       534.886597       1.57340169    
  0.965201020      0.965201020     -0.606999993       534.886597       1.57340169    
   1.32730997       1.32730997     -0.606999993       534.886597       1.57340169    
   1.56075203       1.04286098     -0.606999993       591.658020      -1.57039654    
   2.16155505       1.44430494     -0.517000020       591.658020      -1.57039654    
   2.40179110      0.994853973     -0.517000020       591.658020      -1.57039654    
   1.73421395      0.718334973     -0.606999993       591.658020      -1.57039654    
   1.73421395      0.718334973     -0.606999993       532.258423       1.57346916    
   1.26109600      0.522363007     -0.606999993       532.258423       1.57346916    
   1.13495600      0.758352995     -0.606999993       532.258423       1.57346916    
   1.56075203       1.04286098     -0.606999993       532.258423       1.57346916    
   1.73421395      0.718334973     -0.606999993       593.273682      -1.57036984    
   2.40179110      0.994853973     -0.517000020       593.273682      -1.57036984    
   2.54972792      0.507171988     -0.517000020       593.273682      -1.57036984    
   1.84103203      0.366203994     -0.606999993       593.273682      -1.57036984    
   1.84103203      0.366203994     -0.606999993       528.209656       1.57349563    
   1.33877206      0.266297996     -0.606999993       528.209656       1.57349563    
   1.26109600      0.522363007     -0.606999993       528.209656       1.57349563    
   1.73421395      0.718334973     -0.606999993       528.209656       1.57349563    
   1.84103203      0.366203994     -0.606999993       594.836975      -1.57036293    
   2.54972792      0.507171988     -0.517000020       594.836975      -1.57036293    
   2.59967995       0.00000000     -0.517000020       594.836975      -1.57036293    
   1.87709999       0.00000000     -0.606999993       594.836975      -1.57036293    
   1.87709999       0.00000000     -0.606999993       524.198669       1.57352948    
   1.36500001       0.00000000     -0.606999993       524.198669       1.57352948    
   1.33877206      0.266297996     -0.606999993       524.198669       1.57352948    
   1.84103203      0.366203994     -0.606999993       524.198669       1.57352948    
   1.87709999       0.00000000     -0.606999993       596.356750      -1.57034707    
   2.59967995       0.00000000     -0.517000020       596.356750      -1.57034707    
   2.54972792     -0.507171988     -0.517000020       596.356750      -1.57034707    
   1.84103203     -0.366203994     -0.606999993       596.356750      -1.57034707    
   1.84103203     -0.366203994     -0.606999993       521.303833       1.57355404    
   1.33877206     -0.266297996     -0.606999993       521.303833       1.57355404    
   1.36500001       0.00000000     -0.606999993       521.303833       1.57355404    
   1.87709999       0.00000000     -0.606999993       521.303833       1.57355404    
   1.84103203     -0.366203994     -0.606999993       597.285767      -1.57029569    
   2.54972792     -0.507171988     -0.517000020       597.285767      -1.57029569    
   2.40179110     -0.994853973     -0.517000020       597.285767      -1.57029569    
   1.73421395     -0.718334973     -0.606999993       597.285767      -1.57029569    
   1.73421395     -0.718334973     -0.606999993       520.356812       1.57351279    
   1.26109600     -0.522363007     -0.606999993       520.356812       1.57351279    
   1.33877206     -0.266297996     -0.606999993       520.356812       1.57351279    
   1.84103203     -0.366203994     -0.606999993       520.356812       1.57351279    
   1.73421395     -0.718334973     -0.606999993       596.801392      -1.57027364    
   2.40179110     -0.994853973     -0.517000020       596.801392      -1.57027364    
   2.16155505      -1.44430494     -0.517000020       596.801392      -1.57027364    
   1.56075203      -1.04286098     -0.606999993       596.801392      -1.57027364    
   1.56075203      -1.04286098     -0.606999993       521.885132       1.57347775    
   1.13495600     -0.758352995     -0.606999993       521.885132       1.57347775    
   1.26109600     -0.522363007     -0.606999993       521.885132       1.57347775    