 VARIABLES="X" "Y" "Z" "abs(p) (Pa)" "angle(p) (rad)"
ZONE N=   2709,E =    2358, F=FEPOINT, ET=QUADRILATERAL
   0.00000000      -5.48999977     -0.157000005       920.364807       1.69562674    
   0.00000000      -4.76741982     -0.246999994       920.364807       1.69562674    
  0.930077016      -4.67581606     -0.246999994       920.364807       1.69562674    
   1.07104599      -5.38451099     -0.157000005       920.364807       1.69562674    
  -1.07104599      -5.38451099     -0.157000005       919.953308       1.69498932    
 -0.930077016      -4.67581606     -0.246999994       919.953308       1.69498932    
   0.00000000      -4.76741982     -0.246999994       919.953308       1.69498932    
   0.00000000      -5.48999977     -0.157000005       919.953308       1.69498932    
  -2.10093188      -5.07209921     -0.157000005       932.767395       1.69175553    
  -1.82441294      -4.40452194     -0.246999994       932.767395       1.69175553    
 -0.930077016      -4.67581606     -0.246999994       932.767395       1.69175553    
  -1.07104599      -5.38451099     -0.157000005       932.767395       1.69175553    
  -3.05008101      -4.56476784     -0.157000005       919.551270       1.69852602    
  -2.64863706      -3.96396494     -0.246999994       919.551270       1.69852602    
  -1.82441294      -4.40452194     -0.246999994       919.551270       1.69852602    
  -2.10093188      -5.07209921     -0.157000005       919.551270       1.69852602    
  -3.88201594      -3.88201594     -0.157000005       921.689758       1.70110047    
  -3.37107491      -3.37107491     -0.246999994       921.689758       1.70110047    
  -2.64863706      -3.96396494     -0.246999994       921.689758       1.70110047    
  -3.05008101      -4.56476784     -0.157000005       921.689758       1.70110047    
  -4.56476784      -3.05008101     -0.157000005       940.189453       1.69707358    
  -3.96396494      -2.64863706     -0.246999994       940.189453       1.69707358    
  -3.37107491      -3.37107491     -0.246999994       940.189453       1.69707358    
  -3.88201594      -3.88201594     -0.157000005       940.189453       1.69707358    
  -5.07209921      -2.10093188     -0.157000005       925.932617       1.70144784    
  -4.40452194      -1.82441294     -0.246999994       925.932617       1.70144784    
  -3.96396494      -2.64863706     -0.246999994       925.932617       1.70144784    
  -4.56476784      -3.05008101     -0.157000005       925.932617       1.70144784    
  -5.38451099      -1.07104599     -0.157000005       922.058716       1.69969654    
  -4.67581606     -0.930077016     -0.246999994       922.058716       1.69969654    
  -4.40452194      -1.82441294     -0.246999994       922.058716       1.69969654    
  -5.07209921      -2.10093188     -0.157000005       922.058716       1.69969654    
  -5.48999977       0.00000000     -0.157000005       935.384338       1.69114506    
  -4.76741982       0.00000000     -0.246999994       935.384338       1.69114506    
  -4.67581606     -0.930077016     -0.246999994       935.384338       1.69114506    
  -5.38451099      -1.07104599     -0.157000005       935.384338       1.69114506    
  -5.38451099       1.07104599     -0.157000005       936.819519       1.68739438    
  -4.67581606      0.930077016     -0.246999994       936.819519       1.68739438    
  -4.76741982       0.00000000     -0.246999994       936.819519       1.68739438    
  -5.48999977       0.00000000     -0.157000005       936.819519       1.68739438    
  -5.07209921       2.10093188     -0.157000005       937.591492       1.68617392    
  -4.40452194       1.82441294     -0.246999994       937.591492       1.68617392    
  -4.67581606      0.930077016     -0.246999994       937.591492       1.68617392    
  -5.38451099       1.07104599     -0.157000005       937.591492       1.68617392    
  -4.56476784       3.05008101     -0.157000005       937.737183       1.68744814    
  -3.96396494       2.64863706     -0.246999994       937.737183       1.68744814    
  -4.40452194       1.82441294     -0.246999994       937.737183       1.68744814    
  -5.07209921       2.10093188     -0.157000005       937.737183       1.68744814    
  -3.88201594       3.88201594     -0.157000005       924.663513       1.69390190    
  -3.37107491       3.37107491     -0.246999994       924.663513       1.69390190    
  -3.96396494       2.64863706     -0.246999994       924.663513       1.69390190    
  -4.56476784       3.05008101     -0.157000005       924.663513       1.69390190    
  -3.05008101       4.56476784     -0.157000005       937.356628       1.69166923    
  -2.64863706       3.96396494     -0.246999994       937.356628       1.69166923    
  -3.37107491       3.37107491     -0.246999994       937.356628       1.69166923    
  -3.88201594       3.88201594     -0.157000005       937.356628       1.69166923    
  -2.10093188       5.07209921     -0.157000005       924.567749       1.69587374    
  -1.82441294       4.40452194     -0.246999994       924.567749       1.69587374    
  -2.64863706       3.96396494     -0.246999994       924.567749       1.69587374    
  -3.05008101       4.56476784     -0.157000005       924.567749       1.69587374    
  -1.07104599       5.38451099     -0.157000005       936.082153       1.69088781    
 -0.930077016       4.67581606     -0.246999994       936.082153       1.69088781    
  -1.82441294       4.40452194     -0.246999994       936.082153       1.69088781    
  -2.10093188       5.07209921     -0.157000005       936.082153       1.69088781    
   0.00000000       5.48999977     -0.157000005       922.514221       1.69351971    
   0.00000000       4.76741982     -0.246999994       922.514221       1.69351971    
 -0.930077016       4.67581606     -0.246999994       922.514221       1.69351971    
  -1.07104599       5.38451099     -0.157000005       922.514221       1.69351971    
   1.07104599       5.38451099     -0.157000005       933.915771       1.68959129    
  0.930077016       4.67581606     -0.246999994       933.915771       1.68959129    
   0.00000000       4.76741982     -0.246999994       933.915771       1.68959129    
   0.00000000       5.48999977     -0.157000005       933.915771       1.68959129    
   2.10093188       5.07209921     -0.157000005       920.214783       1.69549203    
   1.82441294       4.40452194     -0.246999994       920.214783       1.69549203    
  0.930077016       4.67581606     -0.246999994       920.214783       1.69549203    
   1.07104599       5.38451099     -0.157000005       920.214783       1.69549203    
   3.05008101       4.56476784     -0.157000005       920.376404       1.69862413    
   2.64863706       3.96396494     -0.246999994       920.376404       1.69862413    
   1.82441294       4.40452194     -0.246999994       920.376404       1.69862413    
   2.10093188       5.07209921     -0.157000005       920.376404       1.69862413    
   3.88201594       3.88201594     -0.157000005       937.851624       1.69604611    
   3.37107491       3.37107491     -0.246999994       937.851624       1.69604611    
   2.64863706       3.96396494     -0.246999994       937.851624       1.69604611    
   3.05008101       4.56476784     -0.157000005       937.851624       1.69604611    
   4.56476784       3.05008101     -0.157000005       935.652100       1.69841206    
   3.96396494       2.64863706     -0.246999994       935.652100       1.69841206    
   3.37107491       3.37107491     -0.246999994       935.652100       1.69841206    
   3.88201594       3.88201594     -0.157000005       935.652100       1.69841206    
   5.07209921       2.10093188     -0.157000005       939.455017       1.69667292    
   4.40452194       1.82441294     -0.246999994       939.455017       1.69667292    
   3.96396494       2.64863706     -0.246999994       939.455017       1.69667292    
   4.56476784       3.05008101     -0.157000005       939.455017       1.69667292    
   5.38451099       1.07104599     -0.157000005       920.974182       1.70079064    
   4.67581606      0.930077016     -0.246999994       920.974182       1.70079064    
   4.40452194       1.82441294     -0.246999994       920.974182       1.70079064    
   5.07209921       2.10093188     -0.157000005       920.974182       1.70079064    
   5.48999977       0.00000000     -0.157000005       917.805725       1.69918156    
   4.76741982       0.00000000     -0.246999994       917.805725       1.69918156    
   4.67581606      0.930077016     -0.246999994       917.805725       1.69918156    
   5.38451099       1.07104599     -0.157000005       917.805725       1.69918156    
   5.38451099      -1.07104599     -0.157000005       918.341675       1.69704533    
   4.67581606     -0.930077016     -0.246999994       918.341675       1.69704533    
   4.76741982       0.00000000     -0.246999994       918.341675       1.69704533    
   5.48999977       0.00000000     -0.157000005       918.341675       1.69704533    
   5.07209921      -2.10093188     -0.157000005       919.404907       1.69603753    
   4.40452194      -1.82441294     -0.246999994       919.404907       1.69603753    
   4.67581606     -0.930077016     -0.246999994       919.404907       1.69603753    
   5.38451099      -1.07104599     -0.157000005       919.404907       1.69603753    
   4.56476784      -3.05008101     -0.157000005       919.978516       1.69629288    
   3.96396494      -2.64863706     -0.246999994       919.978516       1.69629288    
   4.40452194      -1.82441294     -0.246999994       919.978516       1.69629288    
   5.07209921      -2.10093188     -0.157000005       919.978516       1.69629288    
   3.88201594      -3.88201594     -0.157000005       920.894104       1.69691896    
   3.37107491      -3.37107491     -0.246999994       920.894104       1.69691896    
   3.96396494      -2.64863706     -0.246999994       920.894104       1.69691896    
   4.56476784      -3.05008101     -0.157000005       920.894104       1.69691896    
   3.05008101      -4.56476784     -0.157000005       934.810913       1.69314015    
   2.64863706      -3.96396494     -0.246999994       934.810913       1.69314015    
   3.37107491      -3.37107491     -0.246999994       934.810913       1.69314015    
   3.88201594      -3.88201594     -0.157000005       934.810913       1.69314015    
   2.10093188      -5.07209921     -0.157000005       921.826111       1.69732201    
   1.82441294      -4.40452194     -0.246999994       921.826111       1.69732201    
   2.64863706      -3.96396494     -0.246999994       921.826111       1.69732201    
   3.05008101      -4.56476784     -0.157000005       921.826111       1.69732201    
   1.07104599      -5.38451099     -0.157000005       920.736938       1.69682086    
  0.930077016      -4.67581606     -0.246999994       920.736938       1.69682086    
   1.82441294      -4.40452194     -0.246999994       920.736938       1.69682086    
   2.10093188      -5.07209921     -0.157000005       920.736938       1.69682086    
   0.00000000      -1.87709999     -0.606999993       2583.51758       1.58463871    
   0.00000000      -1.36500001     -0.606999993       2583.51758       1.58463871    
  0.266297996      -1.33877206     -0.606999993       2583.51758       1.58463871    
  0.366203994      -1.84103203     -0.606999993       2583.51758       1.58463871    
   0.00000000      -1.87709999     -0.606999993       2011.91174       1.58564126    
   0.00000000      -2.59967995     -0.517000020       2011.91174       1.58564126    
 -0.507171988      -2.54972792     -0.517000020       2011.91174       1.58564126    
 -0.366203994      -1.84103203     -0.606999993       2011.91174       1.58564126    
 -0.366203994      -1.84103203     -0.606999993       2583.97144       1.58475852    
 -0.266297996      -1.33877206     -0.606999993       2583.97144       1.58475852    
   0.00000000      -1.36500001     -0.606999993       2583.97144       1.58475852    
   0.00000000      -1.87709999     -0.606999993       2583.97144       1.58475852    
 -0.366203994      -1.84103203     -0.606999993       2007.90161       1.58576059    
 -0.507171988      -2.54972792     -0.517000020       2007.90161       1.58576059    
 -0.994853973      -2.40179110     -0.517000020       2007.90161       1.58576059    
 -0.718334973      -1.73421395     -0.606999993       2007.90161       1.58576059    
 -0.718334973      -1.73421395     -0.606999993       2582.91016       1.58489025    
 -0.522363007      -1.26109600     -0.606999993       2582.91016       1.58489025    
 -0.266297996      -1.33877206     -0.606999993       2582.91016       1.58489025    
 -0.366203994      -1.84103203     -0.606999993       2582.91016       1.58489025    
 -0.718334973      -1.73421395     -0.606999993       2004.92603       1.58586276    
 -0.994853973      -2.40179110     -0.517000020       2004.92603       1.58586276    
  -1.44430494      -2.16155505     -0.517000020       2004.92603       1.58586276    
  -1.04286098      -1.56075203     -0.606999993       2004.92603       1.58586276    
  -1.04286098      -1.56075203     -0.606999993       2582.99487       1.58497512    
 -0.758352995      -1.13495600     -0.606999993       2582.99487       1.58497512    
 -0.522363007      -1.26109600     -0.606999993       2582.99487       1.58497512    
 -0.718334973      -1.73421395     -0.606999993       2582.99487       1.58497512    
  -1.04286098      -1.56075203     -0.606999993       2006.89563       1.58589637    
  -1.44430494      -2.16155505     -0.517000020       2006.89563       1.58589637    
  -1.83825099      -1.83825099     -0.517000020       2006.89563       1.58589637    
  -1.32730997      -1.32730997     -0.606999993       2006.89563       1.58589637    
  -1.32730997      -1.32730997     -0.606999993       2586.15796       1.58500123    
 -0.965201020     -0.965201020     -0.606999993       2586.15796       1.58500123    
 -0.758352995      -1.13495600     -0.606999993       2586.15796       1.58500123    
  -1.04286098      -1.56075203     -0.606999993       2586.15796       1.58500123    
  -1.32730997      -1.32730997     -0.606999993       2012.83728       1.58584583    
  -1.83825099      -1.83825099     -0.517000020       2012.83728       1.58584583    
  -2.16155505      -1.44430494     -0.517000020       2012.83728       1.58584583    
  -1.56075203      -1.04286098     -0.606999993       2012.83728       1.58584583    
  -1.56075203      -1.04286098     -0.606999993       2591.76367       1.58495557    
  -1.13495600     -0.758352995     -0.606999993       2591.76367       1.58495557    
 -0.965201020     -0.965201020     -0.606999993       2591.76367       1.58495557    
  -1.32730997      -1.32730997     -0.606999993       2591.76367       1.58495557    
  -1.56075203      -1.04286098     -0.606999993       2017.77454       1.58574665    
  -2.16155505      -1.44430494     -0.517000020       2017.77454       1.58574665    
  -2.40179110     -0.994853973     -0.517000020       2017.77454       1.58574665    
  -1.73421395     -0.718334973     -0.606999993       2017.77454       1.58574665    
  -1.73421395     -0.718334973     -0.606999993       2596.96704       1.58485889    
  -1.26109600     -0.522363007     -0.606999993       2596.96704       1.58485889    
  -1.13495600     -0.758352995     -0.606999993       2596.96704       1.58485889    
  -1.56075203      -1.04286098     -0.606999993       2596.96704       1.58485889    
  -1.73421395     -0.718334973     -0.606999993       2017.93762       1.58563268    
  -2.40179110     -0.994853973     -0.517000020       2017.93762       1.58563268    
  -2.54972792     -0.507171988     -0.517000020       2017.93762       1.58563268    
  -1.84103203     -0.366203994     -0.606999993       2017.93762       1.58563268    
  -1.84103203     -0.366203994     -0.606999993       2599.32080       1.58473086    
  -1.33877206     -0.266297996     -0.606999993       2599.32080       1.58473086    
  -1.26109600     -0.522363007     -0.606999993       2599.32080       1.58473086    
  -1.73421395     -0.718334973     -0.606999993       2599.32080       1.58473086    
  -1.84103203     -0.366203994     -0.606999993       2015.66467       1.58550620    
  -2.54972792     -0.507171988     -0.517000020       2015.66467       1.58550620    
  -2.59967995       0.00000000     -0.517000020       2015.66467       1.58550620    
  -1.87709999       0.00000000     -0.606999993       2015.66467       1.58550620    
  -1.87709999       0.00000000     -0.606999993       2599.42847       1.58458424    
  -1.36500001       0.00000000     -0.606999993       2599.42847       1.58458424    
  -1.33877206     -0.266297996     -0.606999993       2599.42847       1.58458424    
  -1.84103203     -0.366203994     -0.606999993       2599.42847       1.58458424    
  -1.87709999       0.00000000     -0.606999993       2015.70728       1.58536470    
  -2.59967995       0.00000000     -0.517000020       2015.70728       1.58536470    
  -2.54972792      0.507171988     -0.517000020       2015.70728       1.58536470    
  -1.84103203      0.366203994     -0.606999993       2015.70728       1.58536470    
  -1.84103203      0.366203994     -0.606999993       2599.50757       1.58443224    
  -1.33877206      0.266297996     -0.606999993       2599.50757       1.58443224    
  -1.36500001       0.00000000     -0.606999993       2599.50757       1.58443224    
  -1.87709999       0.00000000     -0.606999993       2599.50757       1.58443224    
  -1.84103203      0.366203994     -0.606999993       2018.85364       1.58523166    
  -2.54972792      0.507171988     -0.517000020       2018.85364       1.58523166    
  -2.40179110      0.994853973     -0.517000020       2018.85364       1.58523166    
  -1.73421395      0.718334973     -0.606999993       2018.85364       1.58523166    
  -1.73421395      0.718334973     -0.606999993       2600.11060       1.58429158    
  -1.26109600      0.522363007     -0.606999993       2600.11060       1.58429158    
  -1.33877206      0.266297996     -0.606999993       2600.11060       1.58429158    
  -1.84103203      0.366203994     -0.606999993       2600.11060       1.58429158    
  -1.73421395      0.718334973     -0.606999993       2020.85046       1.58515012    
  -2.40179110      0.994853973     -0.517000020       2020.85046       1.58515012    
  -2.16155505       1.44430494     -0.517000020       2020.85046       1.58515012    
  -1.56075203       1.04286098     -0.606999993       2020.85046       1.58515012    
  -1.56075203       1.04286098     -0.606999993       2599.34839       1.58419788    
  -1.13495600      0.758352995     -0.606999993       2599.34839       1.58419788    
  -1.26109600      0.522363007     -0.606999993       2599.34839       1.58419788    
  -1.73421395      0.718334973     -0.606999993       2599.34839       1.58419788    
  -1.56075203       1.04286098     -0.606999993       2017.86670       1.58515108    
  -2.16155505       1.44430494     -0.517000020       2017.86670       1.58515108    
  -1.83825099       1.83825099     -0.517000020       2017.86670       1.58515108    
  -1.32730997       1.32730997     -0.606999993       2017.86670       1.58515108    
  -1.32730997       1.32730997     -0.606999993       2595.88208       1.58417046    
 -0.965201020      0.965201020     -0.606999993       2595.88208       1.58417046    
  -1.13495600      0.758352995     -0.606999993       2595.88208       1.58417046    
  -1.56075203       1.04286098     -0.606999993       2595.88208       1.58417046    
  -1.32730997       1.32730997     -0.606999993       2012.26343       1.58520997    
  -1.83825099       1.83825099     -0.517000020       2012.26343       1.58520997    
  -1.44430494       2.16155505     -0.517000020       2012.26343       1.58520997    
  -1.04286098       1.56075203     -0.606999993       2012.26343       1.58520997    
  -1.04286098       1.56075203     -0.606999993       2591.07666       1.58420122    
 -0.758352995       1.13495600     -0.606999993       2591.07666       1.58420122    
 -0.965201020      0.965201020     -0.606999993       2591.07666       1.58420122    
  -1.32730997       1.32730997     -0.606999993       2591.07666       1.58420122    
  -1.04286098       1.56075203     -0.606999993       2009.57336       1.58527541    
  -1.44430494       2.16155505     -0.517000020       2009.57336       1.58527541    
 -0.994853973       2.40179110     -0.517000020       2009.57336       1.58527541    
 -0.718334973       1.73421395     -0.606999993       2009.57336       1.58527541    
 -0.718334973       1.73421395     -0.606999993       2587.99487       1.58426750    
 -0.522363007       1.26109600     -0.606999993       2587.99487       1.58426750    
 -0.758352995       1.13495600     -0.606999993       2587.99487       1.58426750    
  -1.04286098       1.56075203     -0.606999993       2587.99487       1.58426750    
 -0.718334973       1.73421395     -0.606999993       2011.81445       1.58532643    
 -0.994853973       2.40179110     -0.517000020       2011.81445       1.58532643    
 -0.507171988       2.54972792     -0.517000020       2011.81445       1.58532643    
 -0.366203994       1.84103203     -0.606999993       2011.81445       1.58532643    
 -0.366203994       1.84103203     -0.606999993       2587.90381       1.58436906    
 -0.266297996       1.33877206     -0.606999993       2587.90381       1.58436906    
 -0.522363007       1.26109600     -0.606999993       2587.90381       1.58436906    
 -0.718334973       1.73421395     -0.606999993       2587.90381       1.58436906    
 -0.366203994       1.84103203     -0.606999993       2015.48364       1.58538783    
 -0.507171988       2.54972792     -0.517000020       2015.48364       1.58538783    
   0.00000000       2.59967995     -0.517000020       2015.48364       1.58538783    
   0.00000000       1.87709999     -0.606999993       2015.48364       1.58538783    
   0.00000000       1.87709999     -0.606999993       2589.16748       1.58448720    
   0.00000000       1.36500001     -0.606999993       2589.16748       1.58448720    
 -0.266297996       1.33877206     -0.606999993       2589.16748       1.58448720    
 -0.366203994       1.84103203     -0.606999993       2589.16748       1.58448720    
   0.00000000       1.87709999     -0.606999993       2015.51025       1.58549893    
   0.00000000       2.59967995     -0.517000020       2015.51025       1.58549893    
  0.507171988       2.54972792     -0.517000020       2015.51025       1.58549893    
  0.366203994       1.84103203     -0.606999993       2015.51025       1.58549893    
  0.366203994       1.84103203     -0.606999993       2589.34106       1.58463359    
  0.266297996       1.33877206     -0.606999993       2589.34106       1.58463359    
   0.00000000       1.36500001     -0.606999993       2589.34106       1.58463359    
   0.00000000       1.87709999     -0.606999993       2589.34106       1.58463359    
  0.366203994       1.84103203     -0.606999993       2011.89734       1.58564615    
  0.507171988       2.54972792     -0.517000020       2011.89734       1.58564615    
  0.994853973       2.40179110     -0.517000020       2011.89734       1.58564615    
  0.718334973       1.73421395     -0.606999993       2011.89734       1.58564615    
  0.718334973       1.73421395     -0.606999993       2588.45776       1.58478069    
  0.522363007       1.26109600     -0.606999993       2588.45776       1.58478069    
  0.266297996       1.33877206     -0.606999993       2588.45776       1.58478069    
  0.366203994       1.84103203     -0.606999993       2588.45776       1.58478069    
  0.718334973       1.73421395     -0.606999993       2009.75037       1.58577538    
  0.994853973       2.40179110     -0.517000020       2009.75037       1.58577538    
   1.44430494       2.16155505     -0.517000020       2009.75037       1.58577538    
   1.04286098       1.56075203     -0.606999993       2009.75037       1.58577538    
   1.04286098       1.56075203     -0.606999993       2588.87622       1.58489525    
  0.758352995       1.13495600     -0.606999993       2588.87622       1.58489525    
  0.522363007       1.26109600     -0.606999993       2588.87622       1.58489525    
  0.718334973       1.73421395     -0.606999993       2588.87622       1.58489525    
   1.04286098       1.56075203     -0.606999993       2012.49915       1.58583879    
   1.44430494       2.16155505     -0.517000020       2012.49915       1.58583879    
   1.83825099       1.83825099     -0.517000020       2012.49915       1.58583879    
   1.32730997       1.32730997     -0.606999993       2012.49915       1.58583879    
   1.32730997       1.32730997     -0.606999993       2592.09375       1.58495092    
  0.965201020      0.965201020     -0.606999993       2592.09375       1.58495092    
  0.758352995       1.13495600     -0.606999993       2592.09375       1.58495092    
   1.04286098       1.56075203     -0.606999993       2592.09375       1.58495092    
   1.32730997       1.32730997     -0.606999993       2018.05566       1.58583772    
   1.83825099       1.83825099     -0.517000020       2018.05566       1.58583772    
   2.16155505       1.44430494     -0.517000020       2018.05566       1.58583772    
   1.56075203       1.04286098     -0.606999993       2018.05566       1.58583772    
   1.56075203       1.04286098     -0.606999993       2596.73071       1.58495235    
   1.13495600      0.758352995     -0.606999993       2596.73071       1.58495235    
  0.965201020      0.965201020     -0.606999993       2596.73071       1.58495235    
   1.32730997       1.32730997     -0.606999993       2596.73071       1.58495235    
   1.56075203       1.04286098     -0.606999993       2020.75879       1.58580613    
   2.16155505       1.44430494     -0.517000020       2020.75879       1.58580613    
   2.40179110      0.994853973     -0.517000020       2020.75879       1.58580613    
   1.73421395      0.718334973     -0.606999993       2020.75879       1.58580613    
   1.73421395      0.718334973     -0.606999993       2599.50879       1.58490300    
   1.26109600      0.522363007     -0.606999993       2599.50879       1.58490300    
   1.13495600      0.758352995     -0.606999993       2599.50879       1.58490300    
   1.56075203       1.04286098     -0.606999993       2599.50879       1.58490300    
   1.73421395      0.718334973     -0.606999993       2018.29688       1.58576882    
   2.40179110      0.994853973     -0.517000020       2018.29688       1.58576882    
   2.54972792      0.507171988     -0.517000020       2018.29688       1.58576882    
   1.84103203      0.366203994     -0.606999993       2018.29688       1.58576882    
   1.84103203      0.366203994     -0.606999993       2599.36841       1.58482194    
   1.33877206      0.266297996     -0.606999993       2599.36841       1.58482194    
   1.26109600      0.522363007     -0.606999993       2599.36841       1.58482194    
   1.73421395      0.718334973     -0.606999993       2599.36841       1.58482194    
   1.84103203      0.366203994     -0.606999993       2014.67346       1.58570385    
   2.54972792      0.507171988     -0.517000020       2014.67346       1.58570385    
   2.59967995       0.00000000     -0.517000020       2014.67346       1.58570385    
   1.87709999       0.00000000     -0.606999993       2014.67346       1.58570385    
   1.87709999       0.00000000     -0.606999993       2597.96143       1.58471155    
   1.36500001       0.00000000     -0.606999993       2597.96143       1.58471155    
   1.33877206      0.266297996     -0.606999993       2597.96143       1.58471155    
   1.84103203      0.366203994     -0.606999993       2597.96143       1.58471155    
   1.87709999       0.00000000     -0.606999993       2014.28259       1.58560348    
   2.59967995       0.00000000     -0.517000020       2014.28259       1.58560348    
   2.54972792     -0.507171988     -0.517000020       2014.28259       1.58560348    
   1.84103203     -0.366203994     -0.606999993       2014.28259       1.58560348    
   1.84103203     -0.366203994     -0.606999993       2597.18262       1.58458817    
   1.33877206     -0.266297996     -0.606999993       2597.18262       1.58458817    
   1.36500001       0.00000000     -0.606999993       2597.18262       1.58458817    
   1.87709999       0.00000000     -0.606999993       2597.18262       1.58458817    
   1.84103203     -0.366203994     -0.606999993       2016.34473       1.58549392    
   2.54972792     -0.507171988     -0.517000020       2016.34473       1.58549392    
   2.40179110     -0.994853973     -0.517000020       2016.34473       1.58549392    
   1.73421395     -0.718334973     -0.606999993       2016.34473       1.58549392    
   1.73421395     -0.718334973     -0.606999993       2596.63574       1.58447111    
   1.26109600     -0.522363007     -0.606999993       2596.63574       1.58447111    
   1.33877206     -0.266297996     -0.606999993       2596.63574       1.58447111    
   1.84103203     -0.366203994     -0.606999993       2596.63574       1.58447111    
   1.73421395     -0.718334973     -0.606999993       2016.12915       1.58542562    
   2.40179110     -0.994853973     -0.517000020       2016.12915       1.58542562    
   2.16155505      -1.44430494     -0.517000020       2016.12915       1.58542562    
   1.56075203      -1.04286098     -0.606999993       2016.12915       1.58542562    
   1.56075203      -1.04286098     -0.606999993       2594.21069       1.58439171    
   1.13495600     -0.758352995     -0.606999993       2594.21069       1.58439171    
   1.26109600     -0.522363007     -0.606999993       2594.21069       1.58439171    