 VARIABLES="X" "Y" "Z" "abs(p) (Pa)" "angle(p) (rad)"
ZONE N=   2709,E =    2358, F=FEPOINT, ET=QUADRILATERAL
   0.00000000      -5.48999977     -0.157000005       2148.85669      -1.51046157    
   0.00000000      -4.76741982     -0.246999994       2148.85669      -1.51046157    
  0.930077016      -4.67581606     -0.246999994       2148.85669      -1.51046157    
   1.07104599      -5.38451099     -0.157000005       2148.85669      -1.51046157    
  -1.07104599      -5.38451099     -0.157000005       2149.44556      -1.51091027    
 -0.930077016      -4.67581606     -0.246999994       2149.44556      -1.51091027    
   0.00000000      -4.76741982     -0.246999994       2149.44556      -1.51091027    
   0.00000000      -5.48999977     -0.157000005       2149.44556      -1.51091027    
  -2.10093188      -5.07209921     -0.157000005       2072.03760      -1.50744963    
  -1.82441294      -4.40452194     -0.246999994       2072.03760      -1.50744963    
 -0.930077016      -4.67581606     -0.246999994       2072.03760      -1.50744963    
  -1.07104599      -5.38451099     -0.157000005       2072.03760      -1.50744963    
  -3.05008101      -4.56476784     -0.157000005       1901.96692      -1.51124704    
  -2.64863706      -3.96396494     -0.246999994       1901.96692      -1.51124704    
  -1.82441294      -4.40452194     -0.246999994       1901.96692      -1.51124704    
  -2.10093188      -5.07209921     -0.157000005       1901.96692      -1.51124704    
  -3.88201594      -3.88201594     -0.157000005       1668.13672      -1.51121926    
  -3.37107491      -3.37107491     -0.246999994       1668.13672      -1.51121926    
  -2.64863706      -3.96396494     -0.246999994       1668.13672      -1.51121926    
  -3.05008101      -4.56476784     -0.157000005       1668.13672      -1.51121926    
  -4.56476784      -3.05008101     -0.157000005       1376.31104      -1.50587273    
  -3.96396494      -2.64863706     -0.246999994       1376.31104      -1.50587273    
  -3.37107491      -3.37107491     -0.246999994       1376.31104      -1.50587273    
  -3.88201594      -3.88201594     -0.157000005       1376.31104      -1.50587273    
  -5.07209921      -2.10093188     -0.157000005       1016.12408      -1.51343751    
  -4.40452194      -1.82441294     -0.246999994       1016.12408      -1.51343751    
  -3.96396494      -2.64863706     -0.246999994       1016.12408      -1.51343751    
  -4.56476784      -3.05008101     -0.157000005       1016.12408      -1.51343751    
  -5.38451099      -1.07104599     -0.157000005       625.678894      -1.51090050    
  -4.67581606     -0.930077016     -0.246999994       625.678894      -1.51090050    
  -4.40452194      -1.82441294     -0.246999994       625.678894      -1.51090050    
  -5.07209921      -2.10093188     -0.157000005       625.678894      -1.51090050    
  -5.48999977       0.00000000     -0.157000005       209.927811      -1.51306522    
  -4.76741982       0.00000000     -0.246999994       209.927811      -1.51306522    
  -4.67581606     -0.930077016     -0.246999994       209.927811      -1.51306522    
  -5.38451099      -1.07104599     -0.157000005       209.927811      -1.51306522    
  -5.38451099       1.07104599     -0.157000005       214.712692       1.63597035    
  -4.67581606      0.930077016     -0.246999994       214.712692       1.63597035    
  -4.76741982       0.00000000     -0.246999994       214.712692       1.63597035    
  -5.48999977       0.00000000     -0.157000005       214.712692       1.63597035    
  -5.07209921       2.10093188     -0.157000005       630.801392       1.63477123    
  -4.40452194       1.82441294     -0.246999994       630.801392       1.63477123    
  -4.67581606      0.930077016     -0.246999994       630.801392       1.63477123    
  -5.38451099       1.07104599     -0.157000005       630.801392       1.63477123    
  -4.56476784       3.05008101     -0.157000005       1023.47595       1.63478231    
  -3.96396494       2.64863706     -0.246999994       1023.47595       1.63478231    
  -4.40452194       1.82441294     -0.246999994       1023.47595       1.63478231    
  -5.07209921       2.10093188     -0.157000005       1023.47595       1.63478231    
  -3.88201594       3.88201594     -0.157000005       1370.05945       1.63056779    
  -3.37107491       3.37107491     -0.246999994       1370.05945       1.63056779    
  -3.96396494       2.64863706     -0.246999994       1370.05945       1.63056779    
  -4.56476784       3.05008101     -0.157000005       1370.05945       1.63056779    
  -3.05008101       4.56476784     -0.157000005       1676.19238       1.63453245    
  -2.64863706       3.96396494     -0.246999994       1676.19238       1.63453245    
  -3.37107491       3.37107491     -0.246999994       1676.19238       1.63453245    
  -3.88201594       3.88201594     -0.157000005       1676.19238       1.63453245    
  -2.10093188       5.07209921     -0.157000005       1903.77100       1.63039386    
  -1.82441294       4.40452194     -0.246999994       1903.77100       1.63039386    
  -2.64863706       3.96396494     -0.246999994       1903.77100       1.63039386    
  -3.05008101       4.56476784     -0.157000005       1903.77100       1.63039386    
  -1.07104599       5.38451099     -0.157000005       2073.92993       1.63442957    
 -0.930077016       4.67581606     -0.246999994       2073.92993       1.63442957    
  -1.82441294       4.40452194     -0.246999994       2073.92993       1.63442957    
  -2.10093188       5.07209921     -0.157000005       2073.92993       1.63442957    
   0.00000000       5.48999977     -0.157000005       2147.51294       1.62997353    
   0.00000000       4.76741982     -0.246999994       2147.51294       1.62997353    
 -0.930077016       4.67581606     -0.246999994       2147.51294       1.62997353    
  -1.07104599       5.38451099     -0.157000005       2147.51294       1.62997353    
   1.07104599       5.38451099     -0.157000005       2156.79712       1.63445759    
  0.930077016       4.67581606     -0.246999994       2156.79712       1.63445759    
   0.00000000       4.76741982     -0.246999994       2156.79712       1.63445759    
   0.00000000       5.48999977     -0.157000005       2156.79712       1.63445759    
   2.10093188       5.07209921     -0.157000005       2063.40063       1.63046527    
   1.82441294       4.40452194     -0.246999994       2063.40063       1.63046527    
  0.930077016       4.67581606     -0.246999994       2063.40063       1.63046527    
   1.07104599       5.38451099     -0.157000005       2063.40063       1.63046527    
   3.05008101       4.56476784     -0.157000005       1905.02124       1.63080072    
   2.64863706       3.96396494     -0.246999994       1905.02124       1.63080072    
   1.82441294       4.40452194     -0.246999994       1905.02124       1.63080072    
   2.10093188       5.07209921     -0.157000005       1905.02124       1.63080072    
   3.88201594       3.88201594     -0.157000005       1671.30994       1.63267744    
   3.37107491       3.37107491     -0.246999994       1671.30994       1.63267744    
   2.64863706       3.96396494     -0.246999994       1671.30994       1.63267744    
   3.05008101       4.56476784     -0.157000005       1671.30994       1.63267744    
   4.56476784       3.05008101     -0.157000005       1373.30762       1.63495171    
   3.96396494       2.64863706     -0.246999994       1373.30762       1.63495171    
   3.37107491       3.37107491     -0.246999994       1373.30762       1.63495171    
   3.88201594       3.88201594     -0.157000005       1373.30762       1.63495171    
   5.07209921       2.10093188     -0.157000005       1021.73969       1.63121819    
   4.40452194       1.82441294     -0.246999994       1021.73969       1.63121819    
   3.96396494       2.64863706     -0.246999994       1021.73969       1.63121819    
   4.56476784       3.05008101     -0.157000005       1021.73969       1.63121819    
   5.38451099       1.07104599     -0.157000005       623.597900       1.62894821    
   4.67581606      0.930077016     -0.246999994       623.597900       1.62894821    
   4.40452194       1.82441294     -0.246999994       623.597900       1.62894821    
   5.07209921       2.10093188     -0.157000005       623.597900       1.62894821    
   5.48999977       0.00000000     -0.157000005       210.618103       1.63065183    
   4.76741982       0.00000000     -0.246999994       210.618103       1.63065183    
   4.67581606      0.930077016     -0.246999994       210.618103       1.63065183    
   5.38451099       1.07104599     -0.157000005       210.618103       1.63065183    
   5.38451099      -1.07104599     -0.157000005       213.964066      -1.50457931    
   4.67581606     -0.930077016     -0.246999994       213.964066      -1.50457931    
   4.76741982       0.00000000     -0.246999994       213.964066      -1.50457931    
   5.48999977       0.00000000     -0.157000005       213.964066      -1.50457931    
   5.07209921      -2.10093188     -0.157000005       628.864075      -1.50906718    
   4.40452194      -1.82441294     -0.246999994       628.864075      -1.50906718    
   4.67581606     -0.930077016     -0.246999994       628.864075      -1.50906718    
   5.38451099      -1.07104599     -0.157000005       628.864075      -1.50906718    
   4.56476784      -3.05008101     -0.157000005       1019.67413      -1.50982547    
   3.96396494      -2.64863706     -0.246999994       1019.67413      -1.50982547    
   4.40452194      -1.82441294     -0.246999994       1019.67413      -1.50982547    
   5.07209921      -2.10093188     -0.157000005       1019.67413      -1.50982547    
   3.88201594      -3.88201594     -0.157000005       1371.19763      -1.51040447    
   3.37107491      -3.37107491     -0.246999994       1371.19763      -1.51040447    
   3.96396494      -2.64863706     -0.246999994       1371.19763      -1.51040447    
   4.56476784      -3.05008101     -0.157000005       1371.19763      -1.51040447    
   3.05008101      -4.56476784     -0.157000005       1675.56055      -1.50720298    
   2.64863706      -3.96396494     -0.246999994       1675.56055      -1.50720298    
   3.37107491      -3.37107491     -0.246999994       1675.56055      -1.50720298    
   3.88201594      -3.88201594     -0.157000005       1675.56055      -1.50720298    
   2.10093188      -5.07209921     -0.157000005       1904.33301      -1.51066720    
   1.82441294      -4.40452194     -0.246999994       1904.33301      -1.51066720    
   2.64863706      -3.96396494     -0.246999994       1904.33301      -1.51066720    
   3.05008101      -4.56476784     -0.157000005       1904.33301      -1.51066720    
   1.07104599      -5.38451099     -0.157000005       2067.52588      -1.50996876    
  0.930077016      -4.67581606     -0.246999994       2067.52588      -1.50996876    
   1.82441294      -4.40452194     -0.246999994       2067.52588      -1.50996876    
   2.10093188      -5.07209921     -0.157000005       2067.52588      -1.50996876    
   0.00000000      -1.87709999     -0.606999993       6671.00635       1.57287717    
   0.00000000      -1.36500001     -0.606999993       6671.00635       1.57287717    
  0.266297996      -1.33877206     -0.606999993       6671.00635       1.57287717    
  0.366203994      -1.84103203     -0.606999993       6671.00635       1.57287717    
   0.00000000      -1.87709999     -0.606999993       7481.30176       1.57464504    
   0.00000000      -2.59967995     -0.517000020       7481.30176       1.57464504    
 -0.507171988      -2.54972792     -0.517000020       7481.30176       1.57464504    
 -0.366203994      -1.84103203     -0.606999993       7481.30176       1.57464504    
 -0.366203994      -1.84103203     -0.606999993       6668.82178       1.57287276    
 -0.266297996      -1.33877206     -0.606999993       6668.82178       1.57287276    
   0.00000000      -1.36500001     -0.606999993       6668.82178       1.57287276    
   0.00000000      -1.87709999     -0.606999993       6668.82178       1.57287276    
 -0.366203994      -1.84103203     -0.606999993       7210.76807       1.57467723    
 -0.507171988      -2.54972792     -0.517000020       7210.76807       1.57467723    
 -0.994853973      -2.40179110     -0.517000020       7210.76807       1.57467723    
 -0.718334973      -1.73421395     -0.606999993       7210.76807       1.57467723    
 -0.718334973      -1.73421395     -0.606999993       6412.86084       1.57291257    
 -0.522363007      -1.26109600     -0.606999993       6412.86084       1.57291257    
 -0.266297996      -1.33877206     -0.606999993       6412.86084       1.57291257    
 -0.366203994      -1.84103203     -0.606999993       6412.86084       1.57291257    
 -0.718334973      -1.73421395     -0.606999993       6665.55273       1.57472789    
 -0.994853973      -2.40179110     -0.517000020       6665.55273       1.57472789    
  -1.44430494      -2.16155505     -0.517000020       6665.55273       1.57472789    
  -1.04286098      -1.56075203     -0.606999993       6665.55273       1.57472789    
  -1.04286098      -1.56075203     -0.606999993       5911.18262       1.57294285    
 -0.758352995      -1.13495600     -0.606999993       5911.18262       1.57294285    
 -0.522363007      -1.26109600     -0.606999993       5911.18262       1.57294285    
 -0.718334973      -1.73421395     -0.606999993       5911.18262       1.57294285    
  -1.04286098      -1.56075203     -0.606999993       5851.45117       1.57474434    
  -1.44430494      -2.16155505     -0.517000020       5851.45117       1.57474434    
  -1.83825099      -1.83825099     -0.517000020       5851.45117       1.57474434    
  -1.32730997      -1.32730997     -0.606999993       5851.45117       1.57474434    
  -1.32730997      -1.32730997     -0.606999993       5181.26709       1.57292199    
 -0.965201020     -0.965201020     -0.606999993       5181.26709       1.57292199    
 -0.758352995      -1.13495600     -0.606999993       5181.26709       1.57292199    
  -1.04286098      -1.56075203     -0.606999993       5181.26709       1.57292199    
  -1.32730997      -1.32730997     -0.606999993       4797.49023       1.57470369    
  -1.83825099      -1.83825099     -0.517000020       4797.49023       1.57470369    
  -2.16155505      -1.44430494     -0.517000020       4797.49023       1.57470369    
  -1.56075203      -1.04286098     -0.606999993       4797.49023       1.57470369    
  -1.56075203      -1.04286098     -0.606999993       4251.10645       1.57284904    
  -1.13495600     -0.758352995     -0.606999993       4251.10645       1.57284904    
 -0.965201020     -0.965201020     -0.606999993       4251.10645       1.57284904    
  -1.32730997      -1.32730997     -0.606999993       4251.10645       1.57284904    
  -1.56075203      -1.04286098     -0.606999993       3554.47534       1.57461691    
  -2.16155505      -1.44430494     -0.517000020       3554.47534       1.57461691    
  -2.40179110     -0.994853973     -0.517000020       3554.47534       1.57461691    
  -1.73421395     -0.718334973     -0.606999993       3554.47534       1.57461691    
  -1.73421395     -0.718334973     -0.606999993       3156.85864       1.57277203    
  -1.26109600     -0.522363007     -0.606999993       3156.85864       1.57277203    
  -1.13495600     -0.758352995     -0.606999993       3156.85864       1.57277203    
  -1.56075203      -1.04286098     -0.606999993       3156.85864       1.57277203    
  -1.73421395     -0.718334973     -0.606999993       2181.06494       1.57452011    
  -2.40179110     -0.994853973     -0.517000020       2181.06494       1.57452011    
  -2.54972792     -0.507171988     -0.517000020       2181.06494       1.57452011    
  -1.84103203     -0.366203994     -0.606999993       2181.06494       1.57452011    
  -1.84103203     -0.366203994     -0.606999993       1938.58154       1.57273829    
  -1.33877206     -0.266297996     -0.606999993       1938.58154       1.57273829    
  -1.26109600     -0.522363007     -0.606999993       1938.58154       1.57273829    
  -1.73421395     -0.718334973     -0.606999993       1938.58154       1.57273829    
  -1.84103203     -0.366203994     -0.606999993       734.443054       1.57435501    
  -2.54972792     -0.507171988     -0.517000020       734.443054       1.57435501    
  -2.59967995       0.00000000     -0.517000020       734.443054       1.57435501    
  -1.87709999       0.00000000     -0.606999993       734.443054       1.57435501    
  -1.87709999       0.00000000     -0.606999993       642.718018       1.57282031    
  -1.36500001       0.00000000     -0.606999993       642.718018       1.57282031    
  -1.33877206     -0.266297996     -0.606999993       642.718018       1.57282031    
  -1.84103203     -0.366203994     -0.606999993       642.718018       1.57282031    
  -1.87709999       0.00000000     -0.606999993       735.565002      -1.56693339    
  -2.59967995       0.00000000     -0.517000020       735.565002      -1.56693339    
  -2.54972792      0.507171988     -0.517000020       735.565002      -1.56693339    
  -1.84103203      0.366203994     -0.606999993       735.565002      -1.56693339    
  -1.84103203      0.366203994     -0.606999993       680.093872      -1.56900334    
  -1.33877206      0.266297996     -0.606999993       680.093872      -1.56900334    
  -1.36500001       0.00000000     -0.606999993       680.093872      -1.56900334    
  -1.87709999       0.00000000     -0.606999993       680.093872      -1.56900334    
  -1.84103203      0.366203994     -0.606999993       2183.66040      -1.56702065    
  -2.54972792      0.507171988     -0.517000020       2183.66040      -1.56702065    
  -2.40179110      0.994853973     -0.517000020       2183.66040      -1.56702065    
  -1.73421395      0.718334973     -0.606999993       2183.66040      -1.56702065    
  -1.73421395      0.718334973     -0.606999993       1978.21484      -1.56886923    
  -1.26109600      0.522363007     -0.606999993       1978.21484      -1.56886923    
  -1.33877206      0.266297996     -0.606999993       1978.21484      -1.56886923    
  -1.84103203      0.366203994     -0.606999993       1978.21484      -1.56886923    
  -1.73421395      0.718334973     -0.606999993       3558.89526      -1.56696665    
  -2.40179110      0.994853973     -0.517000020       3558.89526      -1.56696665    
  -2.16155505       1.44430494     -0.517000020       3558.89526      -1.56696665    
  -1.56075203       1.04286098     -0.606999993       3558.89526      -1.56696665    
  -1.56075203       1.04286098     -0.606999993       3198.85107      -1.56878006    
  -1.13495600      0.758352995     -0.606999993       3198.85107      -1.56878006    
  -1.26109600      0.522363007     -0.606999993       3198.85107      -1.56878006    
  -1.73421395      0.718334973     -0.606999993       3198.85107      -1.56878006    
  -1.56075203       1.04286098     -0.606999993       4800.10059      -1.56688774    
  -2.16155505       1.44430494     -0.517000020       4800.10059      -1.56688774    
  -1.83825099       1.83825099     -0.517000020       4800.10059      -1.56688774    
  -1.32730997       1.32730997     -0.606999993       4800.10059      -1.56688774    
  -1.32730997       1.32730997     -0.606999993       4290.62842      -1.56868482    
 -0.965201020      0.965201020     -0.606999993       4290.62842      -1.56868482    
  -1.13495600      0.758352995     -0.606999993       4290.62842      -1.56868482    
  -1.56075203       1.04286098     -0.606999993       4290.62842      -1.56868482    
  -1.32730997       1.32730997     -0.606999993       5847.06787      -1.56682944    
  -1.83825099       1.83825099     -0.517000020       5847.06787      -1.56682944    
  -1.44430494       2.16155505     -0.517000020       5847.06787      -1.56682944    
  -1.04286098       1.56075203     -0.606999993       5847.06787      -1.56682944    
  -1.04286098       1.56075203     -0.606999993       5209.56592      -1.56861925    
 -0.758352995       1.13495600     -0.606999993       5209.56592      -1.56861925    
 -0.965201020      0.965201020     -0.606999993       5209.56592      -1.56861925    
  -1.32730997       1.32730997     -0.606999993       5209.56592      -1.56861925    
  -1.04286098       1.56075203     -0.606999993       6652.84131      -1.56681561    
  -1.44430494       2.16155505     -0.517000020       6652.84131      -1.56681561    
 -0.994853973       2.40179110     -0.517000020       6652.84131      -1.56681561    
 -0.718334973       1.73421395     -0.606999993       6652.84131      -1.56681561    
 -0.718334973       1.73421395     -0.606999993       5923.30078      -1.56861734    
 -0.522363007       1.26109600     -0.606999993       5923.30078      -1.56861734    
 -0.758352995       1.13495600     -0.606999993       5923.30078      -1.56861734    
  -1.04286098       1.56075203     -0.606999993       5923.30078      -1.56861734    
 -0.718334973       1.73421395     -0.606999993       7193.44482      -1.56685245    
 -0.994853973       2.40179110     -0.517000020       7193.44482      -1.56685245    
 -0.507171988       2.54972792     -0.517000020       7193.44482      -1.56685245    
 -0.366203994       1.84103203     -0.606999993       7193.44482      -1.56685245    
 -0.366203994       1.84103203     -0.606999993       6410.17236      -1.56867754    
 -0.266297996       1.33877206     -0.606999993       6410.17236      -1.56867754    
 -0.522363007       1.26109600     -0.606999993       6410.17236      -1.56867754    
 -0.718334973       1.73421395     -0.606999993       6410.17236      -1.56867754    
 -0.366203994       1.84103203     -0.606999993       7464.37744      -1.56692052    
 -0.507171988       2.54972792     -0.517000020       7464.37744      -1.56692052    
   0.00000000       2.59967995     -0.517000020       7464.37744      -1.56692052    
   0.00000000       1.87709999     -0.606999993       7464.37744      -1.56692052    
   0.00000000       1.87709999     -0.606999993       6656.21729      -1.56874871    
   0.00000000       1.36500001     -0.606999993       6656.21729      -1.56874871    
 -0.266297996       1.33877206     -0.606999993       6656.21729      -1.56874871    
 -0.366203994       1.84103203     -0.606999993       6656.21729      -1.56874871    
   0.00000000       1.87709999     -0.606999993       7466.34814      -1.56696820    
   0.00000000       2.59967995     -0.517000020       7466.34814      -1.56696820    
  0.507171988       2.54972792     -0.517000020       7466.34814      -1.56696820    
  0.366203994       1.84103203     -0.606999993       7466.34814      -1.56696820    
  0.366203994       1.84103203     -0.606999993       6653.18262      -1.56877112    
  0.266297996       1.33877206     -0.606999993       6653.18262      -1.56877112    
   0.00000000       1.36500001     -0.606999993       6653.18262      -1.56877112    
   0.00000000       1.87709999     -0.606999993       6653.18262      -1.56877112    
  0.366203994       1.84103203     -0.606999993       7197.27246      -1.56695676    
  0.507171988       2.54972792     -0.517000020       7197.27246      -1.56695676    
  0.994853973       2.40179110     -0.517000020       7197.27246      -1.56695676    
  0.718334973       1.73421395     -0.606999993       7197.27246      -1.56695676    
  0.718334973       1.73421395     -0.606999993       6399.39648      -1.56873655    
  0.522363007       1.26109600     -0.606999993       6399.39648      -1.56873655    
  0.266297996       1.33877206     -0.606999993       6399.39648      -1.56873655    
  0.366203994       1.84103203     -0.606999993       6399.39648      -1.56873655    
  0.718334973       1.73421395     -0.606999993       6653.69482      -1.56690168    
  0.994853973       2.40179110     -0.517000020       6653.69482      -1.56690168    
   1.44430494       2.16155505     -0.517000020       6653.69482      -1.56690168    
   1.04286098       1.56075203     -0.606999993       6653.69482      -1.56690168    
   1.04286098       1.56075203     -0.606999993       5901.10303      -1.56868887    
  0.758352995       1.13495600     -0.606999993       5901.10303      -1.56868887    
  0.522363007       1.26109600     -0.606999993       5901.10303      -1.56868887    
  0.718334973       1.73421395     -0.606999993       5901.10303      -1.56868887    
   1.04286098       1.56075203     -0.606999993       5840.00928      -1.56684816    
   1.44430494       2.16155505     -0.517000020       5840.00928      -1.56684816    
   1.83825099       1.83825099     -0.517000020       5840.00928      -1.56684816    
   1.32730997       1.32730997     -0.606999993       5840.00928      -1.56684816    
   1.32730997       1.32730997     -0.606999993       5172.37988      -1.56867981    
  0.965201020      0.965201020     -0.606999993       5172.37988      -1.56867981    
  0.758352995       1.13495600     -0.606999993       5172.37988      -1.56867981    
   1.04286098       1.56075203     -0.606999993       5172.37988      -1.56867981    
   1.32730997       1.32730997     -0.606999993       4783.97070      -1.56685162    
   1.83825099       1.83825099     -0.517000020       4783.97070      -1.56685162    
   2.16155505       1.44430494     -0.517000020       4783.97070      -1.56685162    
   1.56075203       1.04286098     -0.606999993       4783.97070      -1.56685162    
   1.56075203       1.04286098     -0.606999993       4237.99219      -1.56873417    
   1.13495600      0.758352995     -0.606999993       4237.99219      -1.56873417    
  0.965201020      0.965201020     -0.606999993       4237.99219      -1.56873417    
   1.32730997       1.32730997     -0.606999993       4237.99219      -1.56873417    
   1.56075203       1.04286098     -0.606999993       3537.81226      -1.56694210    
   2.16155505       1.44430494     -0.517000020       3537.81226      -1.56694210    
   2.40179110      0.994853973     -0.517000020       3537.81226      -1.56694210    
   1.73421395      0.718334973     -0.606999993       3537.81226      -1.56694210    
   1.73421395      0.718334973     -0.606999993       3136.68921      -1.56884563    
   1.26109600      0.522363007     -0.606999993       3136.68921      -1.56884563    
   1.13495600      0.758352995     -0.606999993       3136.68921      -1.56884563    
   1.56075203       1.04286098     -0.606999993       3136.68921      -1.56884563    
   1.73421395      0.718334973     -0.606999993       2163.82471      -1.56714272    
   2.40179110      0.994853973     -0.517000020       2163.82471      -1.56714272    
   2.54972792      0.507171988     -0.517000020       2163.82471      -1.56714272    
   1.84103203      0.366203994     -0.606999993       2163.82471      -1.56714272    
   1.84103203      0.366203994     -0.606999993       1915.45923      -1.56901717    
   1.33877206      0.266297996     -0.606999993       1915.45923      -1.56901717    
   1.26109600      0.522363007     -0.606999993       1915.45923      -1.56901717    
   1.73421395      0.718334973     -0.606999993       1915.45923      -1.56901717    
   1.84103203      0.366203994     -0.606999993       720.753845      -1.56762302    
   2.54972792      0.507171988     -0.517000020       720.753845      -1.56762302    
   2.59967995       0.00000000     -0.517000020       720.753845      -1.56762302    
   1.87709999       0.00000000     -0.606999993       720.753845      -1.56762302    
   1.87709999       0.00000000     -0.606999993       621.849121      -1.56953871    
   1.36500001       0.00000000     -0.606999993       621.849121      -1.56953871    
   1.33877206      0.266297996     -0.606999993       621.849121      -1.56953871    
   1.84103203      0.366203994     -0.606999993       621.849121      -1.56953871    
   1.87709999       0.00000000     -0.606999993       744.309631       1.57490385    
   2.59967995       0.00000000     -0.517000020       744.309631       1.57490385    
   2.54972792     -0.507171988     -0.517000020       744.309631       1.57490385    
   1.84103203     -0.366203994     -0.606999993       744.309631       1.57490385    
   1.84103203     -0.366203994     -0.606999993       695.422974       1.57326138    
   1.33877206     -0.266297996     -0.606999993       695.422974       1.57326138    
   1.36500001       0.00000000     -0.606999993       695.422974       1.57326138    
   1.87709999       0.00000000     -0.606999993       695.422974       1.57326138    
   1.84103203     -0.366203994     -0.606999993       2188.98486       1.57459795    
   2.54972792     -0.507171988     -0.517000020       2188.98486       1.57459795    
   2.40179110     -0.994853973     -0.517000020       2188.98486       1.57459795    
   1.73421395     -0.718334973     -0.606999993       2188.98486       1.57459795    
   1.73421395     -0.718334973     -0.606999993       1986.88086       1.57287157    
   1.26109600     -0.522363007     -0.606999993       1986.88086       1.57287157    
   1.33877206     -0.266297996     -0.606999993       1986.88086       1.57287157    
   1.84103203     -0.366203994     -0.606999993       1986.88086       1.57287157    
   1.73421395     -0.718334973     -0.606999993       3562.63599       1.57463777    
   2.40179110     -0.994853973     -0.517000020       3562.63599       1.57463777    
   2.16155505      -1.44430494     -0.517000020       3562.63599       1.57463777    
   1.56075203      -1.04286098     -0.606999993       3562.63599       1.57463777    
   1.56075203      -1.04286098     -0.606999993       3201.70483       1.57285392    
   1.13495600     -0.758352995     -0.606999993       3201.70483       1.57285392    
   1.26109600     -0.522363007     -0.606999993       3201.70483       1.57285392    