 VARIABLES="X" "Y" "Z" "abs(p) (Pa)" "angle(p) (rad)"
ZONE N=   2709,E =    2358, F=FEPOINT, ET=QUADRILATERAL
   0.00000000      -5.48999977     -0.157000005       2.97955203       1.52933002    
   0.00000000      -4.76741982     -0.246999994       2.97955203       1.52933002    
  0.930077016      -4.67581606     -0.246999994       2.97955203       1.52933002    
   1.07104599      -5.38451099     -0.157000005       2.97955203       1.52933002    
  -1.07104599      -5.38451099     -0.157000005       3.06105566       1.35701740    
 -0.930077016      -4.67581606     -0.246999994       3.06105566       1.35701740    
   0.00000000      -4.76741982     -0.246999994       3.06105566       1.35701740    
   0.00000000      -5.48999977     -0.157000005       3.06105566       1.35701740    
  -2.10093188      -5.07209921     -0.157000005       4.25054359       1.40087485    
  -1.82441294      -4.40452194     -0.246999994       4.25054359       1.40087485    
 -0.930077016      -4.67581606     -0.246999994       4.25054359       1.40087485    
  -1.07104599      -5.38451099     -0.157000005       4.25054359       1.40087485    
  -3.05008101      -4.56476784     -0.157000005       2.31823087       1.56202841    
  -2.64863706      -3.96396494     -0.246999994       2.31823087       1.56202841    
  -1.82441294      -4.40452194     -0.246999994       2.31823087       1.56202841    
  -2.10093188      -5.07209921     -0.157000005       2.31823087       1.56202841    
  -3.88201594      -3.88201594     -0.157000005       2.87560153       1.81729233    
  -3.37107491      -3.37107491     -0.246999994       2.87560153       1.81729233    
  -2.64863706      -3.96396494     -0.246999994       2.87560153       1.81729233    
  -3.05008101      -4.56476784     -0.157000005       2.87560153       1.81729233    
  -4.56476784      -3.05008101     -0.157000005      0.363273829      -2.98906302    
  -3.96396494      -2.64863706     -0.246999994      0.363273829      -2.98906302    
  -3.37107491      -3.37107491     -0.246999994      0.363273829      -2.98906302    
  -3.88201594      -3.88201594     -0.157000005      0.363273829      -2.98906302    
  -5.07209921      -2.10093188     -0.157000005       1.80912614       1.24504554    
  -4.40452194      -1.82441294     -0.246999994       1.80912614       1.24504554    
  -3.96396494      -2.64863706     -0.246999994       1.80912614       1.24504554    
  -4.56476784      -3.05008101     -0.157000005       1.80912614       1.24504554    
  -5.38451099      -1.07104599     -0.157000005       3.04078865       1.23041165    
  -4.67581606     -0.930077016     -0.246999994       3.04078865       1.23041165    
  -4.40452194      -1.82441294     -0.246999994       3.04078865       1.23041165    
  -5.07209921      -2.10093188     -0.157000005       3.04078865       1.23041165    
  -5.48999977       0.00000000     -0.157000005       5.37253094       1.45484364    
  -4.76741982       0.00000000     -0.246999994       5.37253094       1.45484364    
  -4.67581606     -0.930077016     -0.246999994       5.37253094       1.45484364    
  -5.38451099      -1.07104599     -0.157000005       5.37253094       1.45484364    
  -5.38451099       1.07104599     -0.157000005       5.30846071       1.52215683    
  -4.67581606      0.930077016     -0.246999994       5.30846071       1.52215683    
  -4.76741982       0.00000000     -0.246999994       5.30846071       1.52215683    
  -5.48999977       0.00000000     -0.157000005       5.30846071       1.52215683    
  -5.07209921       2.10093188     -0.157000005       4.94634676       1.49382532    
  -4.40452194       1.82441294     -0.246999994       4.94634676       1.49382532    
  -4.67581606      0.930077016     -0.246999994       4.94634676       1.49382532    
  -5.38451099       1.07104599     -0.157000005       4.94634676       1.49382532    
  -4.56476784       3.05008101     -0.157000005       4.93839550       1.43834460    
  -3.96396494       2.64863706     -0.246999994       4.93839550       1.43834460    
  -4.40452194       1.82441294     -0.246999994       4.93839550       1.43834460    
  -5.07209921       2.10093188     -0.157000005       4.93839550       1.43834460    
  -3.88201594       3.88201594     -0.157000005       3.39798903       1.37899923    
  -3.37107491       3.37107491     -0.246999994       3.39798903       1.37899923    
  -3.96396494       2.64863706     -0.246999994       3.39798903       1.37899923    
  -4.56476784       3.05008101     -0.157000005       3.39798903       1.37899923    
  -3.05008101       4.56476784     -0.157000005       4.79229689       1.49731529    
  -2.64863706       3.96396494     -0.246999994       4.79229689       1.49731529    
  -3.37107491       3.37107491     -0.246999994       4.79229689       1.49731529    
  -3.88201594       3.88201594     -0.157000005       4.79229689       1.49731529    
  -2.10093188       5.07209921     -0.157000005       2.99495053       1.49918520    
  -1.82441294       4.40452194     -0.246999994       2.99495053       1.49918520    
  -2.64863706       3.96396494     -0.246999994       2.99495053       1.49918520    
  -3.05008101       4.56476784     -0.157000005       2.99495053       1.49918520    
  -1.07104599       5.38451099     -0.157000005       4.66029644       1.49757850    
 -0.930077016       4.67581606     -0.246999994       4.66029644       1.49757850    
  -1.82441294       4.40452194     -0.246999994       4.66029644       1.49757850    
  -2.10093188       5.07209921     -0.157000005       4.66029644       1.49757850    
   0.00000000       5.48999977     -0.157000005       3.30284929       1.38960123    
   0.00000000       4.76741982     -0.246999994       3.30284929       1.38960123    
 -0.930077016       4.67581606     -0.246999994       3.30284929       1.38960123    
  -1.07104599       5.38451099     -0.157000005       3.30284929       1.38960123    
   1.07104599       5.38451099     -0.157000005       4.73512220       1.44677186    
  0.930077016       4.67581606     -0.246999994       4.73512220       1.44677186    
   0.00000000       4.76741982     -0.246999994       4.73512220       1.44677186    
   0.00000000       5.48999977     -0.157000005       4.73512220       1.44677186    
   2.10093188       5.07209921     -0.157000005       2.77251577       1.45723712    
   1.82441294       4.40452194     -0.246999994       2.77251577       1.45723712    
  0.930077016       4.67581606     -0.246999994       2.77251577       1.45723712    
   1.07104599       5.38451099     -0.157000005       2.77251577       1.45723712    
   3.05008101       4.56476784     -0.157000005       2.70661688       1.56540287    
   2.64863706       3.96396494     -0.246999994       2.70661688       1.56540287    
   1.82441294       4.40452194     -0.246999994       2.70661688       1.56540287    
   2.10093188       5.07209921     -0.157000005       2.70661688       1.56540287    
   3.88201594       3.88201594     -0.157000005       4.88891506       1.54212427    
   3.37107491       3.37107491     -0.246999994       4.88891506       1.54212427    
   2.64863706       3.96396494     -0.246999994       4.88891506       1.54212427    
   3.05008101       4.56476784     -0.157000005       4.88891506       1.54212427    
   4.56476784       3.05008101     -0.157000005       3.71518493       1.39709032    
   3.96396494       2.64863706     -0.246999994       3.71518493       1.39709032    
   3.37107491       3.37107491     -0.246999994       3.71518493       1.39709032    
   3.88201594       3.88201594     -0.157000005       3.71518493       1.39709032    
   5.07209921       2.10093188     -0.157000005       4.68019342       1.37054443    
   4.40452194       1.82441294     -0.246999994       4.68019342       1.37054443    
   3.96396494       2.64863706     -0.246999994       4.68019342       1.37054443    
   4.56476784       3.05008101     -0.157000005       4.68019342       1.37054443    
   5.38451099       1.07104599     -0.157000005       3.33051682       1.34221816    
   4.67581606      0.930077016     -0.246999994       3.33051682       1.34221816    
   4.40452194       1.82441294     -0.246999994       3.33051682       1.34221816    
   5.07209921       2.10093188     -0.157000005       3.33051682       1.34221816    
   5.48999977       0.00000000     -0.157000005       3.02278638       1.47509158    
   4.76741982       0.00000000     -0.246999994       3.02278638       1.47509158    
   4.67581606      0.930077016     -0.246999994       3.02278638       1.47509158    
   5.38451099       1.07104599     -0.157000005       3.02278638       1.47509158    
   5.38451099      -1.07104599     -0.157000005       2.46497750       1.54816020    
   4.67581606     -0.930077016     -0.246999994       2.46497750       1.54816020    
   4.76741982       0.00000000     -0.246999994       2.46497750       1.54816020    
   5.48999977       0.00000000     -0.157000005       2.46497750       1.54816020    
   5.07209921      -2.10093188     -0.157000005       2.26555276       1.51987433    
   4.40452194      -1.82441294     -0.246999994       2.26555276       1.51987433    
   4.67581606     -0.930077016     -0.246999994       2.26555276       1.51987433    
   5.38451099      -1.07104599     -0.157000005       2.26555276       1.51987433    
   4.56476784      -3.05008101     -0.157000005       2.68293834       1.46406376    
   3.96396494      -2.64863706     -0.246999994       2.68293834       1.46406376    
   4.40452194      -1.82441294     -0.246999994       2.68293834       1.46406376    
   5.07209921      -2.10093188     -0.157000005       2.68293834       1.46406376    
   3.88201594      -3.88201594     -0.157000005       3.11466527       1.41644979    
   3.37107491      -3.37107491     -0.246999994       3.11466527       1.41644979    
   3.96396494      -2.64863706     -0.246999994       3.11466527       1.41644979    
   4.56476784      -3.05008101     -0.157000005       3.11466527       1.41644979    
   3.05008101      -4.56476784     -0.157000005       4.62471390       1.45543730    
   2.64863706      -3.96396494     -0.246999994       4.62471390       1.45543730    
   3.37107491      -3.37107491     -0.246999994       4.62471390       1.45543730    
   3.88201594      -3.88201594     -0.157000005       4.62471390       1.45543730    
   2.10093188      -5.07209921     -0.157000005       2.60475659       1.44073045    
   1.82441294      -4.40452194     -0.246999994       2.60475659       1.44073045    
   2.64863706      -3.96396494     -0.246999994       2.60475659       1.44073045    
   3.05008101      -4.56476784     -0.157000005       2.60475659       1.44073045    
   1.07104599      -5.38451099     -0.157000005       2.56074333       1.56528318    
  0.930077016      -4.67581606     -0.246999994       2.56074333       1.56528318    
   1.82441294      -4.40452194     -0.246999994       2.56074333       1.56528318    
   2.10093188      -5.07209921     -0.157000005       2.56074333       1.56528318    
   0.00000000      -1.87709999     -0.606999993       2.42829061      -1.54639876    
   0.00000000      -1.36500001     -0.606999993       2.42829061      -1.54639876    
  0.266297996      -1.33877206     -0.606999993       2.42829061      -1.54639876    
  0.366203994      -1.84103203     -0.606999993       2.42829061      -1.54639876    
   0.00000000      -1.87709999     -0.606999993      0.401458263      -1.46945691    
   0.00000000      -2.59967995     -0.517000020      0.401458263      -1.46945691    
 -0.507171988      -2.54972792     -0.517000020      0.401458263      -1.46945691    
 -0.366203994      -1.84103203     -0.606999993      0.401458263      -1.46945691    
 -0.366203994      -1.84103203     -0.606999993       2.33797383      -1.54463792    
 -0.266297996      -1.33877206     -0.606999993       2.33797383      -1.54463792    
   0.00000000      -1.36500001     -0.606999993       2.33797383      -1.54463792    
   0.00000000      -1.87709999     -0.606999993       2.33797383      -1.54463792    
 -0.366203994      -1.84103203     -0.606999993      0.359131753      -1.46429491    
 -0.507171988      -2.54972792     -0.517000020      0.359131753      -1.46429491    
 -0.994853973      -2.40179110     -0.517000020      0.359131753      -1.46429491    
 -0.718334973      -1.73421395     -0.606999993      0.359131753      -1.46429491    
 -0.718334973      -1.73421395     -0.606999993       2.23585510      -1.54357207    
 -0.522363007      -1.26109600     -0.606999993       2.23585510      -1.54357207    
 -0.266297996      -1.33877206     -0.606999993       2.23585510      -1.54357207    
 -0.366203994      -1.84103203     -0.606999993       2.23585510      -1.54357207    
 -0.718334973      -1.73421395     -0.606999993      0.321399540      -1.46409857    
 -0.994853973      -2.40179110     -0.517000020      0.321399540      -1.46409857    
  -1.44430494      -2.16155505     -0.517000020      0.321399540      -1.46409857    
  -1.04286098      -1.56075203     -0.606999993      0.321399540      -1.46409857    
  -1.04286098      -1.56075203     -0.606999993       2.14459848      -1.54322684    
 -0.758352995      -1.13495600     -0.606999993       2.14459848      -1.54322684    
 -0.522363007      -1.26109600     -0.606999993       2.14459848      -1.54322684    
 -0.718334973      -1.73421395     -0.606999993       2.14459848      -1.54322684    
  -1.04286098      -1.56075203     -0.606999993      0.291932225      -1.46132302    
  -1.44430494      -2.16155505     -0.517000020      0.291932225      -1.46132302    
  -1.83825099      -1.83825099     -0.517000020      0.291932225      -1.46132302    
  -1.32730997      -1.32730997     -0.606999993      0.291932225      -1.46132302    
  -1.32730997      -1.32730997     -0.606999993       2.07727098      -1.54336596    
 -0.965201020     -0.965201020     -0.606999993       2.07727098      -1.54336596    
 -0.758352995      -1.13495600     -0.606999993       2.07727098      -1.54336596    
  -1.04286098      -1.56075203     -0.606999993       2.07727098      -1.54336596    
  -1.32730997      -1.32730997     -0.606999993      0.271800071      -1.44656384    
  -1.83825099      -1.83825099     -0.517000020      0.271800071      -1.44656384    
  -2.16155505      -1.44430494     -0.517000020      0.271800071      -1.44656384    
  -1.56075203      -1.04286098     -0.606999993      0.271800071      -1.44656384    
  -1.56075203      -1.04286098     -0.606999993       2.03772688      -1.54366696    
  -1.13495600     -0.758352995     -0.606999993       2.03772688      -1.54366696    
 -0.965201020     -0.965201020     -0.606999993       2.03772688      -1.54366696    
  -1.32730997      -1.32730997     -0.606999993       2.03772688      -1.54366696    
  -1.56075203      -1.04286098     -0.606999993      0.255867064      -1.41887701    
  -2.16155505      -1.44430494     -0.517000020      0.255867064      -1.41887701    
  -2.40179110     -0.994853973     -0.517000020      0.255867064      -1.41887701    
  -1.73421395     -0.718334973     -0.606999993      0.255867064      -1.41887701    
  -1.73421395     -0.718334973     -0.606999993       2.01415539      -1.54386175    
  -1.26109600     -0.522363007     -0.606999993       2.01415539      -1.54386175    
  -1.13495600     -0.758352995     -0.606999993       2.01415539      -1.54386175    
  -1.56075203      -1.04286098     -0.606999993       2.01415539      -1.54386175    
  -1.73421395     -0.718334973     -0.606999993      0.248496652      -1.39393795    
  -2.40179110     -0.994853973     -0.517000020      0.248496652      -1.39393795    
  -2.54972792     -0.507171988     -0.517000020      0.248496652      -1.39393795    
  -1.84103203     -0.366203994     -0.606999993      0.248496652      -1.39393795    
  -1.84103203     -0.366203994     -0.606999993       2.02313232      -1.54432273    
  -1.33877206     -0.266297996     -0.606999993       2.02313232      -1.54432273    
  -1.26109600     -0.522363007     -0.606999993       2.02313232      -1.54432273    
  -1.73421395     -0.718334973     -0.606999993       2.02313232      -1.54432273    
  -1.84103203     -0.366203994     -0.606999993      0.256020010      -1.38878334    
  -2.54972792     -0.507171988     -0.517000020      0.256020010      -1.38878334    
  -2.59967995       0.00000000     -0.517000020      0.256020010      -1.38878334    
  -1.87709999       0.00000000     -0.606999993      0.256020010      -1.38878334    
  -1.87709999       0.00000000     -0.606999993       2.07204175      -1.54525828    
  -1.36500001       0.00000000     -0.606999993       2.07204175      -1.54525828    
  -1.33877206     -0.266297996     -0.606999993       2.07204175      -1.54525828    
  -1.84103203     -0.366203994     -0.606999993       2.07204175      -1.54525828    
  -1.87709999       0.00000000     -0.606999993      0.282128334      -1.40353274    
  -2.59967995       0.00000000     -0.517000020      0.282128334      -1.40353274    
  -2.54972792      0.507171988     -0.517000020      0.282128334      -1.40353274    
  -1.84103203      0.366203994     -0.606999993      0.282128334      -1.40353274    
  -1.84103203      0.366203994     -0.606999993       2.15392613      -1.54644895    
  -1.33877206      0.266297996     -0.606999993       2.15392613      -1.54644895    
  -1.36500001       0.00000000     -0.606999993       2.15392613      -1.54644895    
  -1.87709999       0.00000000     -0.606999993       2.15392613      -1.54644895    
  -1.84103203      0.366203994     -0.606999993      0.322476327      -1.42421913    
  -2.54972792      0.507171988     -0.517000020      0.322476327      -1.42421913    
  -2.40179110      0.994853973     -0.517000020      0.322476327      -1.42421913    
  -1.73421395      0.718334973     -0.606999993      0.322476327      -1.42421913    
  -1.73421395      0.718334973     -0.606999993       2.25291848      -1.54748511    
  -1.26109600      0.522363007     -0.606999993       2.25291848      -1.54748511    
  -1.33877206      0.266297996     -0.606999993       2.25291848      -1.54748511    
  -1.84103203      0.366203994     -0.606999993       2.25291848      -1.54748511    
  -1.73421395      0.718334973     -0.606999993      0.366317958      -1.44088602    
  -2.40179110      0.994853973     -0.517000020      0.366317958      -1.44088602    
  -2.16155505       1.44430494     -0.517000020      0.366317958      -1.44088602    
  -1.56075203       1.04286098     -0.606999993      0.366317958      -1.44088602    
  -1.56075203       1.04286098     -0.606999993       2.34959769      -1.54799294    
  -1.13495600      0.758352995     -0.606999993       2.34959769      -1.54799294    
  -1.26109600      0.522363007     -0.606999993       2.34959769      -1.54799294    
  -1.73421395      0.718334973     -0.606999993       2.34959769      -1.54799294    
  -1.56075203       1.04286098     -0.606999993      0.400560588      -1.45123053    
  -2.16155505       1.44430494     -0.517000020      0.400560588      -1.45123053    
  -1.83825099       1.83825099     -0.517000020      0.400560588      -1.45123053    
  -1.32730997       1.32730997     -0.606999993      0.400560588      -1.45123053    
  -1.32730997       1.32730997     -0.606999993       2.42478824      -1.54768014    
 -0.965201020      0.965201020     -0.606999993       2.42478824      -1.54768014    
  -1.13495600      0.758352995     -0.606999993       2.42478824      -1.54768014    
  -1.56075203       1.04286098     -0.606999993       2.42478824      -1.54768014    
  -1.32730997       1.32730997     -0.606999993      0.420028448      -1.45585418    
  -1.83825099       1.83825099     -0.517000020      0.420028448      -1.45585418    
  -1.44430494       2.16155505     -0.517000020      0.420028448      -1.45585418    
  -1.04286098       1.56075203     -0.606999993      0.420028448      -1.45585418    
  -1.04286098       1.56075203     -0.606999993       2.46446133      -1.54652965    
 -0.758352995       1.13495600     -0.606999993       2.46446133      -1.54652965    
 -0.965201020      0.965201020     -0.606999993       2.46446133      -1.54652965    
  -1.32730997       1.32730997     -0.606999993       2.46446133      -1.54652965    
  -1.04286098       1.56075203     -0.606999993      0.420814574      -1.45341611    
  -1.44430494       2.16155505     -0.517000020      0.420814574      -1.45341611    
 -0.994853973       2.40179110     -0.517000020      0.420814574      -1.45341611    
 -0.718334973       1.73421395     -0.606999993      0.420814574      -1.45341611    
 -0.718334973       1.73421395     -0.606999993       2.46289563      -1.54456389    
 -0.522363007       1.26109600     -0.606999993       2.46289563      -1.54456389    
 -0.758352995       1.13495600     -0.606999993       2.46289563      -1.54456389    
  -1.04286098       1.56075203     -0.606999993       2.46289563      -1.54456389    
 -0.718334973       1.73421395     -0.606999993      0.405850768      -1.44400990    
 -0.994853973       2.40179110     -0.517000020      0.405850768      -1.44400990    
 -0.507171988       2.54972792     -0.517000020      0.405850768      -1.44400990    
 -0.366203994       1.84103203     -0.606999993      0.405850768      -1.44400990    
 -0.366203994       1.84103203     -0.606999993       2.41857028      -1.54192603    
 -0.266297996       1.33877206     -0.606999993       2.41857028      -1.54192603    
 -0.522363007       1.26109600     -0.606999993       2.41857028      -1.54192603    
 -0.718334973       1.73421395     -0.606999993       2.41857028      -1.54192603    
 -0.366203994       1.84103203     -0.606999993      0.376859397      -1.42878425    
 -0.507171988       2.54972792     -0.517000020      0.376859397      -1.42878425    
   0.00000000       2.59967995     -0.517000020      0.376859397      -1.42878425    
   0.00000000       1.87709999     -0.606999993      0.376859397      -1.42878425    
   0.00000000       1.87709999     -0.606999993       2.34180427      -1.53892338    
   0.00000000       1.36500001     -0.606999993       2.34180427      -1.53892338    
 -0.266297996       1.33877206     -0.606999993       2.34180427      -1.53892338    
 -0.366203994       1.84103203     -0.606999993       2.34180427      -1.53892338    
   0.00000000       1.87709999     -0.606999993      0.335134298      -1.40798926    
   0.00000000       2.59967995     -0.517000020      0.335134298      -1.40798926    
  0.507171988       2.54972792     -0.517000020      0.335134298      -1.40798926    
  0.366203994       1.84103203     -0.606999993      0.335134298      -1.40798926    
  0.366203994       1.84103203     -0.606999993       2.24048233      -1.53582823    
  0.266297996       1.33877206     -0.606999993       2.24048233      -1.53582823    
   0.00000000       1.36500001     -0.606999993       2.24048233      -1.53582823    
   0.00000000       1.87709999     -0.606999993       2.24048233      -1.53582823    
  0.366203994       1.84103203     -0.606999993      0.289914668      -1.38269126    
  0.507171988       2.54972792     -0.517000020      0.289914668      -1.38269126    
  0.994853973       2.40179110     -0.517000020      0.289914668      -1.38269126    
  0.718334973       1.73421395     -0.606999993      0.289914668      -1.38269126    
  0.718334973       1.73421395     -0.606999993       2.13510036      -1.53316486    
  0.522363007       1.26109600     -0.606999993       2.13510036      -1.53316486    
  0.266297996       1.33877206     -0.606999993       2.13510036      -1.53316486    
  0.366203994       1.84103203     -0.606999993       2.13510036      -1.53316486    
  0.718334973       1.73421395     -0.606999993      0.251835734      -1.35415328    
  0.994853973       2.40179110     -0.517000020      0.251835734      -1.35415328    
   1.44430494       2.16155505     -0.517000020      0.251835734      -1.35415328    
   1.04286098       1.56075203     -0.606999993      0.251835734      -1.35415328    
   1.04286098       1.56075203     -0.606999993       2.04996514      -1.53165972    
  0.758352995       1.13495600     -0.606999993       2.04996514      -1.53165972    
  0.522363007       1.26109600     -0.606999993       2.04996514      -1.53165972    
  0.718334973       1.73421395     -0.606999993       2.04996514      -1.53165972    
   1.04286098       1.56075203     -0.606999993      0.228398308      -1.32833743    
   1.44430494       2.16155505     -0.517000020      0.228398308      -1.32833743    
   1.83825099       1.83825099     -0.517000020      0.228398308      -1.32833743    
   1.32730997       1.32730997     -0.606999993      0.228398308      -1.32833743    
   1.32730997       1.32730997     -0.606999993       1.99962687      -1.53173292    
  0.965201020      0.965201020     -0.606999993       1.99962687      -1.53173292    
  0.758352995       1.13495600     -0.606999993       1.99962687      -1.53173292    
   1.04286098       1.56075203     -0.606999993       1.99962687      -1.53173292    
   1.32730997       1.32730997     -0.606999993      0.224655062      -1.32154071    
   1.83825099       1.83825099     -0.517000020      0.224655062      -1.32154071    
   2.16155505       1.44430494     -0.517000020      0.224655062      -1.32154071    
   1.56075203       1.04286098     -0.606999993      0.224655062      -1.32154071    
   1.56075203       1.04286098     -0.606999993       1.99084890      -1.53368163    
   1.13495600      0.758352995     -0.606999993       1.99084890      -1.53368163    
  0.965201020      0.965201020     -0.606999993       1.99084890      -1.53368163    
   1.32730997       1.32730997     -0.606999993       1.99084890      -1.53368163    
   1.56075203       1.04286098     -0.606999993      0.232003421      -1.33626068    
   2.16155505       1.44430494     -0.517000020      0.232003421      -1.33626068    
   2.40179110      0.994853973     -0.517000020      0.232003421      -1.33626068    
   1.73421395      0.718334973     -0.606999993      0.232003421      -1.33626068    
   1.73421395      0.718334973     -0.606999993       2.00801110      -1.53716111    
   1.26109600      0.522363007     -0.606999993       2.00801110      -1.53716111    
   1.13495600      0.758352995     -0.606999993       2.00801110      -1.53716111    
   1.56075203       1.04286098     -0.606999993       2.00801110      -1.53716111    
   1.73421395      0.718334973     -0.606999993      0.248564646      -1.37104833    
   2.40179110      0.994853973     -0.517000020      0.248564646      -1.37104833    
   2.54972792      0.507171988     -0.517000020      0.248564646      -1.37104833    
   1.84103203      0.366203994     -0.606999993      0.248564646      -1.37104833    
   1.84103203      0.366203994     -0.606999993       2.03173590      -1.54140854    
   1.33877206      0.266297996     -0.606999993       2.03173590      -1.54140854    
   1.26109600      0.522363007     -0.606999993       2.03173590      -1.54140854    
   1.73421395      0.718334973     -0.606999993       2.03173590      -1.54140854    
   1.84103203      0.366203994     -0.606999993      0.276571184      -1.41543639    
   2.54972792      0.507171988     -0.517000020      0.276571184      -1.41543639    
   2.59967995       0.00000000     -0.517000020      0.276571184      -1.41543639    
   1.87709999       0.00000000     -0.606999993      0.276571184      -1.41543639    
   1.87709999       0.00000000     -0.606999993       2.08439207      -1.54601610    
   1.36500001       0.00000000     -0.606999993       2.08439207      -1.54601610    
   1.33877206      0.266297996     -0.606999993       2.08439207      -1.54601610    
   1.84103203      0.366203994     -0.606999993       2.08439207      -1.54601610    
   1.87709999       0.00000000     -0.606999993      0.318290949      -1.45418024    
   2.59967995       0.00000000     -0.517000020      0.318290949      -1.45418024    
   2.54972792     -0.507171988     -0.517000020      0.318290949      -1.45418024    
   1.84103203     -0.366203994     -0.606999993      0.318290949      -1.45418024    
   1.84103203     -0.366203994     -0.606999993       2.16967511      -1.55009067    
   1.33877206     -0.266297996     -0.606999993       2.16967511      -1.55009067    
   1.36500001       0.00000000     -0.606999993       2.16967511      -1.55009067    
   1.87709999       0.00000000     -0.606999993       2.16967511      -1.55009067    
   1.84103203     -0.366203994     -0.606999993      0.366929621      -1.47839952    
   2.54972792     -0.507171988     -0.517000020      0.366929621      -1.47839952    
   2.40179110     -0.994853973     -0.517000020      0.366929621      -1.47839952    
   1.73421395     -0.718334973     -0.606999993      0.366929621      -1.47839952    
   1.73421395     -0.718334973     -0.606999993       2.27335453      -1.55283773    
   1.26109600     -0.522363007     -0.606999993       2.27335453      -1.55283773    
   1.33877206     -0.266297996     -0.606999993       2.27335453      -1.55283773    
   1.84103203     -0.366203994     -0.606999993       2.27335453      -1.55283773    
   1.73421395     -0.718334973     -0.606999993      0.412467867      -1.48930573    
   2.40179110     -0.994853973     -0.517000020      0.412467867      -1.48930573    
   2.16155505      -1.44430494     -0.517000020      0.412467867      -1.48930573    
   1.56075203      -1.04286098     -0.606999993      0.412467867      -1.48930573    
   1.56075203      -1.04286098     -0.606999993       2.37582374      -1.55399799    
   1.13495600     -0.758352995     -0.606999993       2.37582374      -1.55399799    
   1.26109600     -0.522363007     -0.606999993       2.37582374      -1.55399799    