 VARIABLES="X" "Y" "Z" "abs(p) (Pa)" "angle(p) (rad)"
ZONE N=   2709,E =    2358, F=FEPOINT, ET=QUADRILATERAL
   0.00000000      -5.48999977     -0.157000005       426.094116      -1.26824689    
   0.00000000      -4.76741982     -0.246999994       426.094116      -1.26824689    
  0.930077016      -4.67581606     -0.246999994       426.094116      -1.26824689    
   1.07104599      -5.38451099     -0.157000005       426.094116      -1.26824689    
  -1.07104599      -5.38451099     -0.157000005       446.355896       1.89711797    
 -0.930077016      -4.67581606     -0.246999994       446.355896       1.89711797    
   0.00000000      -4.76741982     -0.246999994       446.355896       1.89711797    
   0.00000000      -5.48999977     -0.157000005       446.355896       1.89711797    
  -2.10093188      -5.07209921     -0.157000005       1312.31506       1.88417518    
  -1.82441294      -4.40452194     -0.246999994       1312.31506       1.88417518    
 -0.930077016      -4.67581606     -0.246999994       1312.31506       1.88417518    
  -1.07104599      -5.38451099     -0.157000005       1312.31506       1.88417518    
  -3.05008101      -4.56476784     -0.157000005       2105.74463       1.88751245    
  -2.64863706      -3.96396494     -0.246999994       2105.74463       1.88751245    
  -1.82441294      -4.40452194     -0.246999994       2105.74463       1.88751245    
  -2.10093188      -5.07209921     -0.157000005       2105.74463       1.88751245    
  -3.88201594      -3.88201594     -0.157000005       2833.42529       1.88584125    
  -3.37107491      -3.37107491     -0.246999994       2833.42529       1.88584125    
  -2.64863706      -3.96396494     -0.246999994       2833.42529       1.88584125    
  -3.05008101      -4.56476784     -0.157000005       2833.42529       1.88584125    
  -4.56476784      -3.05008101     -0.157000005       3482.51099       1.87958860    
  -3.96396494      -2.64863706     -0.246999994       3482.51099       1.87958860    
  -3.37107491      -3.37107491     -0.246999994       3482.51099       1.87958860    
  -3.88201594      -3.88201594     -0.157000005       3482.51099       1.87958860    
  -5.07209921      -2.10093188     -0.157000005       3933.60254       1.88505745    
  -4.40452194      -1.82441294     -0.246999994       3933.60254       1.88505745    
  -3.96396494      -2.64863706     -0.246999994       3933.60254       1.88505745    
  -4.56476784      -3.05008101     -0.157000005       3933.60254       1.88505745    
  -5.38451099      -1.07104599     -0.157000005       4260.95117       1.88566709    
  -4.67581606     -0.930077016     -0.246999994       4260.95117       1.88566709    
  -4.40452194      -1.82441294     -0.246999994       4260.95117       1.88566709    
  -5.07209921      -2.10093188     -0.157000005       4260.95117       1.88566709    
  -5.48999977       0.00000000     -0.157000005       4467.04150       1.88029492    
  -4.76741982       0.00000000     -0.246999994       4467.04150       1.88029492    
  -4.67581606     -0.930077016     -0.246999994       4467.04150       1.88029492    
  -5.38451099      -1.07104599     -0.157000005       4467.04150       1.88029492    
  -5.38451099       1.07104599     -0.157000005       4469.52002       1.87955081    
  -4.67581606      0.930077016     -0.246999994       4469.52002       1.87955081    
  -4.76741982       0.00000000     -0.246999994       4469.52002       1.87955081    
  -5.48999977       0.00000000     -0.157000005       4469.52002       1.87955081    
  -5.07209921       2.10093188     -0.157000005       4295.56055       1.87945044    
  -4.40452194       1.82441294     -0.246999994       4295.56055       1.87945044    
  -4.67581606      0.930077016     -0.246999994       4295.56055       1.87945044    
  -5.38451099       1.07104599     -0.157000005       4295.56055       1.87945044    
  -4.56476784       3.05008101     -0.157000005       3952.89111       1.87978196    
  -3.96396494       2.64863706     -0.246999994       3952.89111       1.87978196    
  -4.40452194       1.82441294     -0.246999994       3952.89111       1.87978196    
  -5.07209921       2.10093188     -0.157000005       3952.89111       1.87978196    
  -3.88201594       3.88201594     -0.157000005       3433.77612       1.88447285    
  -3.37107491       3.37107491     -0.246999994       3433.77612       1.88447285    
  -3.96396494       2.64863706     -0.246999994       3433.77612       1.88447285    
  -4.56476784       3.05008101     -0.157000005       3433.77612       1.88447285    
  -3.05008101       4.56476784     -0.157000005       2834.64746       1.87995684    
  -2.64863706       3.96396494     -0.246999994       2834.64746       1.87995684    
  -3.37107491       3.37107491     -0.246999994       2834.64746       1.87995684    
  -3.88201594       3.88201594     -0.157000005       2834.64746       1.87995684    
  -2.10093188       5.07209921     -0.157000005       2090.31299       1.88316548    
  -1.82441294       4.40452194     -0.246999994       2090.31299       1.88316548    
  -2.64863706       3.96396494     -0.246999994       2090.31299       1.88316548    
  -3.05008101       4.56476784     -0.157000005       2090.31299       1.88316548    
  -1.07104599       5.38451099     -0.157000005       1292.61108       1.87746096    
 -0.930077016       4.67581606     -0.246999994       1292.61108       1.87746096    
  -1.82441294       4.40452194     -0.246999994       1292.61108       1.87746096    
  -2.10093188       5.07209921     -0.157000005       1292.61108       1.87746096    
   0.00000000       5.48999977     -0.157000005       428.220917       1.87173951    
   0.00000000       4.76741982     -0.246999994       428.220917       1.87173951    
 -0.930077016       4.67581606     -0.246999994       428.220917       1.87173951    
  -1.07104599       5.38451099     -0.157000005       428.220917       1.87173951    
   1.07104599       5.38451099     -0.157000005       450.375275      -1.24903643    
  0.930077016       4.67581606     -0.246999994       450.375275      -1.24903643    
   0.00000000       4.76741982     -0.246999994       450.375275      -1.24903643    
   0.00000000       5.48999977     -0.157000005       450.375275      -1.24903643    
   2.10093188       5.07209921     -0.157000005       1301.80420      -1.25144267    
   1.82441294       4.40452194     -0.246999994       1301.80420      -1.25144267    
  0.930077016       4.67581606     -0.246999994       1301.80420      -1.25144267    
   1.07104599       5.38451099     -0.157000005       1301.80420      -1.25144267    
   3.05008101       4.56476784     -0.157000005       2109.89209      -1.25418162    
   2.64863706       3.96396494     -0.246999994       2109.89209      -1.25418162    
   1.82441294       4.40452194     -0.246999994       2109.89209      -1.25418162    
   2.10093188       5.07209921     -0.157000005       2109.89209      -1.25418162    
   3.88201594       3.88201594     -0.157000005       2863.85034      -1.26117086    
   3.37107491       3.37107491     -0.246999994       2863.85034      -1.26117086    
   2.64863706       3.96396494     -0.246999994       2863.85034      -1.26117086    
   3.05008101       4.56476784     -0.157000005       2863.85034      -1.26117086    
   4.56476784       3.05008101     -0.157000005       3480.84106      -1.26073933    
   3.96396494       2.64863706     -0.246999994       3480.84106      -1.26073933    
   3.37107491       3.37107491     -0.246999994       3480.84106      -1.26073933    
   3.88201594       3.88201594     -0.157000005       3480.84106      -1.26073933    
   5.07209921       2.10093188     -0.157000005       3974.64697      -1.26203728    
   4.40452194       1.82441294     -0.246999994       3974.64697      -1.26203728    
   3.96396494       2.64863706     -0.246999994       3974.64697      -1.26203728    
   4.56476784       3.05008101     -0.157000005       3974.64697      -1.26203728    
   5.38451099       1.07104599     -0.157000005       4263.80322      -1.25583911    
   4.67581606      0.930077016     -0.246999994       4263.80322      -1.25583911    
   4.40452194       1.82441294     -0.246999994       4263.80322      -1.25583911    
   5.07209921       2.10093188     -0.157000005       4263.80322      -1.25583911    
   5.48999977       0.00000000     -0.157000005       4420.58008      -1.25480044    
   4.76741982       0.00000000     -0.246999994       4420.58008      -1.25480044    
   4.67581606      0.930077016     -0.246999994       4420.58008      -1.25480044    
   5.38451099       1.07104599     -0.157000005       4420.58008      -1.25480044    
   5.38451099      -1.07104599     -0.157000005       4414.76367      -1.25475633    
   4.67581606     -0.930077016     -0.246999994       4414.76367      -1.25475633    
   4.76741982       0.00000000     -0.246999994       4414.76367      -1.25475633    
   5.48999977       0.00000000     -0.157000005       4414.76367      -1.25475633    
   5.07209921      -2.10093188     -0.157000005       4241.17041      -1.25493670    
   4.40452194      -1.82441294     -0.246999994       4241.17041      -1.25493670    
   4.67581606     -0.930077016     -0.246999994       4241.17041      -1.25493670    
   5.38451099      -1.07104599     -0.157000005       4241.17041      -1.25493670    
   4.56476784      -3.05008101     -0.157000005       3905.26172      -1.25527072    
   3.96396494      -2.64863706     -0.246999994       3905.26172      -1.25527072    
   4.40452194      -1.82441294     -0.246999994       3905.26172      -1.25527072    
   5.07209921      -2.10093188     -0.157000005       3905.26172      -1.25527072    
   3.88201594      -3.88201594     -0.157000005       3422.51636      -1.25614333    
   3.37107491      -3.37107491     -0.246999994       3422.51636      -1.25614333    
   3.96396494      -2.64863706     -0.246999994       3422.51636      -1.25614333    
   4.56476784      -3.05008101     -0.157000005       3422.51636      -1.25614333    
   3.05008101      -4.56476784     -0.157000005       2829.39746      -1.26164031    
   2.64863706      -3.96396494     -0.246999994       2829.39746      -1.26164031    
   3.37107491      -3.37107491     -0.246999994       2829.39746      -1.26164031    
   3.88201594      -3.88201594     -0.157000005       2829.39746      -1.26164031    
   2.10093188      -5.07209921     -0.157000005       2085.63550      -1.25825310    
   1.82441294      -4.40452194     -0.246999994       2085.63550      -1.25825310    
   2.64863706      -3.96396494     -0.246999994       2085.63550      -1.25825310    
   3.05008101      -4.56476784     -0.157000005       2085.63550      -1.25825310    
   1.07104599      -5.38451099     -0.157000005       1279.72620      -1.25926495    
  0.930077016      -4.67581606     -0.246999994       1279.72620      -1.25926495    
   1.82441294      -4.40452194     -0.246999994       1279.72620      -1.25926495    
   2.10093188      -5.07209921     -0.157000005       1279.72620      -1.25926495    
   0.00000000      -1.87709999     -0.606999993       334.328094      -1.48240173    
   0.00000000      -1.36500001     -0.606999993       334.328094      -1.48240173    
  0.266297996      -1.33877206     -0.606999993       334.328094      -1.48240173    
  0.366203994      -1.84103203     -0.606999993       334.328094      -1.48240173    
   0.00000000      -1.87709999     -0.606999993       383.895782       1.68370032    
   0.00000000      -2.59967995     -0.517000020       383.895782       1.68370032    
 -0.507171988      -2.54972792     -0.517000020       383.895782       1.68370032    
 -0.366203994      -1.84103203     -0.606999993       383.895782       1.68370032    
 -0.366203994      -1.84103203     -0.606999993       319.412964       1.66700637    
 -0.266297996      -1.33877206     -0.606999993       319.412964       1.66700637    
   0.00000000      -1.36500001     -0.606999993       319.412964       1.66700637    
   0.00000000      -1.87709999     -0.606999993       319.412964       1.66700637    
 -0.366203994      -1.84103203     -0.606999993       1138.21521       1.67906415    
 -0.507171988      -2.54972792     -0.517000020       1138.21521       1.67906415    
 -0.994853973      -2.40179110     -0.517000020       1138.21521       1.67906415    
 -0.718334973      -1.73421395     -0.606999993       1138.21521       1.67906415    
 -0.718334973      -1.73421395     -0.606999993       960.989441       1.66372657    
 -0.522363007      -1.26109600     -0.606999993       960.989441       1.66372657    
 -0.266297996      -1.33877206     -0.606999993       960.989441       1.66372657    
 -0.366203994      -1.84103203     -0.606999993       960.989441       1.66372657    
 -0.718334973      -1.73421395     -0.606999993       1846.78247       1.67701507    
 -0.994853973      -2.40179110     -0.517000020       1846.78247       1.67701507    
  -1.44430494      -2.16155505     -0.517000020       1846.78247       1.67701507    
  -1.04286098      -1.56075203     -0.606999993       1846.78247       1.67701507    
  -1.04286098      -1.56075203     -0.606999993       1567.01440       1.66226220    
 -0.758352995      -1.13495600     -0.606999993       1567.01440       1.66226220    
 -0.522363007      -1.26109600     -0.606999993       1567.01440       1.66226220    
 -0.718334973      -1.73421395     -0.606999993       1567.01440       1.66226220    
  -1.04286098      -1.56075203     -0.606999993       2489.26465       1.67556059    
  -1.44430494      -2.16155505     -0.517000020       2489.26465       1.67556059    
  -1.83825099      -1.83825099     -0.517000020       2489.26465       1.67556059    
  -1.32730997      -1.32730997     -0.606999993       2489.26465       1.67556059    
  -1.32730997      -1.32730997     -0.606999993       2116.61157       1.66117704    
 -0.965201020     -0.965201020     -0.606999993       2116.61157       1.66117704    
 -0.758352995      -1.13495600     -0.606999993       2116.61157       1.66117704    
  -1.04286098      -1.56075203     -0.606999993       2116.61157       1.66117704    
  -1.32730997      -1.32730997     -0.606999993       3044.83447       1.67471874    
  -1.83825099      -1.83825099     -0.517000020       3044.83447       1.67471874    
  -2.16155505      -1.44430494     -0.517000020       3044.83447       1.67471874    
  -1.56075203      -1.04286098     -0.606999993       3044.83447       1.67471874    
  -1.56075203      -1.04286098     -0.606999993       2589.20557       1.66050398    
  -1.13495600     -0.758352995     -0.606999993       2589.20557       1.66050398    
 -0.965201020     -0.965201020     -0.606999993       2589.20557       1.66050398    
  -1.32730997      -1.32730997     -0.606999993       2589.20557       1.66050398    
  -1.56075203      -1.04286098     -0.606999993       3484.47217       1.67451596    
  -2.16155505      -1.44430494     -0.517000020       3484.47217       1.67451596    
  -2.40179110     -0.994853973     -0.517000020       3484.47217       1.67451596    
  -1.73421395     -0.718334973     -0.606999993       3484.47217       1.67451596    
  -1.73421395     -0.718334973     -0.606999993       2962.73169       1.66026270    
  -1.26109600     -0.522363007     -0.606999993       2962.73169       1.66026270    
  -1.13495600     -0.758352995     -0.606999993       2962.73169       1.66026270    
  -1.56075203      -1.04286098     -0.606999993       2962.73169       1.66026270    
  -1.73421395     -0.718334973     -0.606999993       3781.48340       1.67470324    
  -2.40179110     -0.994853973     -0.517000020       3781.48340       1.67470324    
  -2.54972792     -0.507171988     -0.517000020       3781.48340       1.67470324    
  -1.84103203     -0.366203994     -0.606999993       3781.48340       1.67470324    
  -1.84103203     -0.366203994     -0.606999993       3218.67163       1.66030276    
  -1.33877206     -0.266297996     -0.606999993       3218.67163       1.66030276    
  -1.26109600     -0.522363007     -0.606999993       3218.67163       1.66030276    
  -1.73421395     -0.718334973     -0.606999993       3218.67163       1.66030276    
  -1.84103203     -0.366203994     -0.606999993       3928.00854       1.67489433    
  -2.54972792     -0.507171988     -0.517000020       3928.00854       1.67489433    
  -2.59967995       0.00000000     -0.517000020       3928.00854       1.67489433    
  -1.87709999       0.00000000     -0.606999993       3928.00854       1.67489433    
  -1.87709999       0.00000000     -0.606999993       3348.38428       1.66037154    
  -1.36500001       0.00000000     -0.606999993       3348.38428       1.66037154    
  -1.33877206     -0.266297996     -0.606999993       3348.38428       1.66037154    
  -1.84103203     -0.366203994     -0.606999993       3348.38428       1.66037154    
  -1.87709999       0.00000000     -0.606999993       3929.12476       1.67479408    
  -2.59967995       0.00000000     -0.517000020       3929.12476       1.67479408    
  -2.54972792      0.507171988     -0.517000020       3929.12476       1.67479408    
  -1.84103203      0.366203994     -0.606999993       3929.12476       1.67479408    
  -1.84103203      0.366203994     -0.606999993       3350.95703       1.66025531    
  -1.33877206      0.266297996     -0.606999993       3350.95703       1.66025531    
  -1.36500001       0.00000000     -0.606999993       3350.95703       1.66025531    
  -1.87709999       0.00000000     -0.606999993       3350.95703       1.66025531    
  -1.84103203      0.366203994     -0.606999993       3786.64697       1.67432499    
  -2.54972792      0.507171988     -0.517000020       3786.64697       1.67432499    
  -2.40179110      0.994853973     -0.517000020       3786.64697       1.67432499    
  -1.73421395      0.718334973     -0.606999993       3786.64697       1.67432499    
  -1.73421395      0.718334973     -0.606999993       3227.16846       1.65991402    
  -1.26109600      0.522363007     -0.606999993       3227.16846       1.65991402    
  -1.33877206      0.266297996     -0.606999993       3227.16846       1.65991402    
  -1.84103203      0.366203994     -0.606999993       3227.16846       1.65991402    
  -1.73421395      0.718334973     -0.606999993       3495.97461       1.67370391    
  -2.40179110      0.994853973     -0.517000020       3495.97461       1.67370391    
  -2.16155505       1.44430494     -0.517000020       3495.97461       1.67370391    
  -1.56075203       1.04286098     -0.606999993       3495.97461       1.67370391    
  -1.56075203       1.04286098     -0.606999993       2977.96777       1.65950000    
  -1.13495600      0.758352995     -0.606999993       2977.96777       1.65950000    
  -1.26109600      0.522363007     -0.606999993       2977.96777       1.65950000    
  -1.73421395      0.718334973     -0.606999993       2977.96777       1.65950000    
  -1.56075203       1.04286098     -0.606999993       3060.78809       1.67334092    
  -2.16155505       1.44430494     -0.517000020       3060.78809       1.67334092    
  -1.83825099       1.83825099     -0.517000020       3060.78809       1.67334092    
  -1.32730997       1.32730997     -0.606999993       3060.78809       1.67334092    
  -1.32730997       1.32730997     -0.606999993       2610.19800       1.65925360    
 -0.965201020      0.965201020     -0.606999993       2610.19800       1.65925360    
  -1.13495600      0.758352995     -0.606999993       2610.19800       1.65925360    
  -1.56075203       1.04286098     -0.606999993       2610.19800       1.65925360    
  -1.32730997       1.32730997     -0.606999993       2504.86255       1.67346644    
  -1.83825099       1.83825099     -0.517000020       2504.86255       1.67346644    
  -1.44430494       2.16155505     -0.517000020       2504.86255       1.67346644    
  -1.04286098       1.56075203     -0.606999993       2504.86255       1.67346644    
  -1.04286098       1.56075203     -0.606999993       2140.30444       1.65931654    
 -0.758352995       1.13495600     -0.606999993       2140.30444       1.65931654    
 -0.965201020      0.965201020     -0.606999993       2140.30444       1.65931654    
  -1.32730997       1.32730997     -0.606999993       2140.30444       1.65931654    
  -1.04286098       1.56075203     -0.606999993       1859.09094       1.67397070    
  -1.44430494       2.16155505     -0.517000020       1859.09094       1.67397070    
 -0.994853973       2.40179110     -0.517000020       1859.09094       1.67397070    
 -0.718334973       1.73421395     -0.606999993       1859.09094       1.67397070    
 -0.718334973       1.73421395     -0.606999993       1590.21631       1.65960002    
 -0.522363007       1.26109600     -0.606999993       1590.21631       1.65960002    
 -0.758352995       1.13495600     -0.606999993       1590.21631       1.65960002    
  -1.04286098       1.56075203     -0.606999993       1590.21631       1.65960002    
 -0.718334973       1.73421395     -0.606999993       1146.83655       1.67419851    
 -0.994853973       2.40179110     -0.517000020       1146.83655       1.67419851    
 -0.507171988       2.54972792     -0.517000020       1146.83655       1.67419851    
 -0.366203994       1.84103203     -0.606999993       1146.83655       1.67419851    
 -0.366203994       1.84103203     -0.606999993       981.552917       1.65962684    
 -0.266297996       1.33877206     -0.606999993       981.552917       1.65962684    
 -0.522363007       1.26109600     -0.606999993       981.552917       1.65962684    
 -0.718334973       1.73421395     -0.606999993       981.552917       1.65962684    
 -0.366203994       1.84103203     -0.606999993       389.081848       1.67057979    
 -0.507171988       2.54972792     -0.517000020       389.081848       1.67057979    
   0.00000000       2.59967995     -0.517000020       389.081848       1.67057979    
   0.00000000       1.87709999     -0.606999993       389.081848       1.67057979    
   0.00000000       1.87709999     -0.606999993       335.742767       1.65687180    
   0.00000000       1.36500001     -0.606999993       335.742767       1.65687180    
 -0.266297996       1.33877206     -0.606999993       335.742767       1.65687180    
 -0.366203994       1.84103203     -0.606999993       335.742767       1.65687180    
   0.00000000       1.87709999     -0.606999993       385.692688      -1.45797849    
   0.00000000       2.59967995     -0.517000020       385.692688      -1.45797849    
  0.507171988       2.54972792     -0.517000020       385.692688      -1.45797849    
  0.366203994       1.84103203     -0.606999993       385.692688      -1.45797849    
  0.366203994       1.84103203     -0.606999993       323.120758      -1.47479415    
  0.266297996       1.33877206     -0.606999993       323.120758      -1.47479415    
   0.00000000       1.36500001     -0.606999993       323.120758      -1.47479415    
   0.00000000       1.87709999     -0.606999993       323.120758      -1.47479415    
  0.366203994       1.84103203     -0.606999993       1143.65869      -1.46314561    
  0.507171988       2.54972792     -0.517000020       1143.65869      -1.46314561    
  0.994853973       2.40179110     -0.517000020       1143.65869      -1.46314561    
  0.718334973       1.73421395     -0.606999993       1143.65869      -1.46314561    
  0.718334973       1.73421395     -0.606999993       969.252563      -1.47866094    
  0.522363007       1.26109600     -0.606999993       969.252563      -1.47866094    
  0.266297996       1.33877206     -0.606999993       969.252563      -1.47866094    
  0.366203994       1.84103203     -0.606999993       969.252563      -1.47866094    
  0.718334973       1.73421395     -0.606999993       1856.22083      -1.46518672    
  0.994853973       2.40179110     -0.517000020       1856.22083      -1.46518672    
   1.44430494       2.16155505     -0.517000020       1856.22083      -1.46518672    
   1.04286098       1.56075203     -0.606999993       1856.22083      -1.46518672    
   1.04286098       1.56075203     -0.606999993       1578.77063      -1.48006999    
  0.758352995       1.13495600     -0.606999993       1578.77063      -1.48006999    
  0.522363007       1.26109600     -0.606999993       1578.77063      -1.48006999    
  0.718334973       1.73421395     -0.606999993       1578.77063      -1.48006999    
   1.04286098       1.56075203     -0.606999993       2502.23730      -1.46650863    
   1.44430494       2.16155505     -0.517000020       2502.23730      -1.46650863    
   1.83825099       1.83825099     -0.517000020       2502.23730      -1.46650863    
   1.32730997       1.32730997     -0.606999993       2502.23730      -1.46650863    
   1.32730997       1.32730997     -0.606999993       2129.85913      -1.48095179    
  0.965201020      0.965201020     -0.606999993       2129.85913      -1.48095179    
  0.758352995       1.13495600     -0.606999993       2129.85913      -1.48095179    
   1.04286098       1.56075203     -0.606999993       2129.85913      -1.48095179    
   1.32730997       1.32730997     -0.606999993       3058.19751      -1.46710551    
   1.83825099       1.83825099     -0.517000020       3058.19751      -1.46710551    
   2.16155505       1.44430494     -0.517000020       3058.19751      -1.46710551    
   1.56075203       1.04286098     -0.606999993       3058.19751      -1.46710551    
   1.56075203       1.04286098     -0.606999993       2600.95874      -1.48134959    
   1.13495600      0.758352995     -0.606999993       2600.95874      -1.48134959    
  0.965201020      0.965201020     -0.606999993       2600.95874      -1.48134959    
   1.32730997       1.32730997     -0.606999993       2600.95874      -1.48134959    
   1.56075203       1.04286098     -0.606999993       3493.09375      -1.46702814    
   2.16155505       1.44430494     -0.517000020       3493.09375      -1.46702814    
   2.40179110      0.994853973     -0.517000020       3493.09375      -1.46702814    
   1.73421395      0.718334973     -0.606999993       3493.09375      -1.46702814    
   1.73421395      0.718334973     -0.606999993       2969.99292      -1.48131847    
   1.26109600      0.522363007     -0.606999993       2969.99292      -1.48131847    
   1.13495600      0.758352995     -0.606999993       2969.99292      -1.48131847    
   1.56075203       1.04286098     -0.606999993       2969.99292      -1.48131847    
   1.73421395      0.718334973     -0.606999993       3783.30591      -1.46664131    
   2.40179110      0.994853973     -0.517000020       3783.30591      -1.46664131    
   2.54972792      0.507171988     -0.517000020       3783.30591      -1.46664131    
   1.84103203      0.366203994     -0.606999993       3783.30591      -1.46664131    
   1.84103203      0.366203994     -0.606999993       3220.54639      -1.48106670    
   1.33877206      0.266297996     -0.606999993       3220.54639      -1.48106670    
   1.26109600      0.522363007     -0.606999993       3220.54639      -1.48106670    
   1.73421395      0.718334973     -0.606999993       3220.54639      -1.48106670    
   1.84103203      0.366203994     -0.606999993       3925.48145      -1.46636939    
   2.54972792      0.507171988     -0.517000020       3925.48145      -1.46636939    
   2.59967995       0.00000000     -0.517000020       3925.48145      -1.46636939    
   1.87709999       0.00000000     -0.606999993       3925.48145      -1.46636939    
   1.87709999       0.00000000     -0.606999993       3345.98682      -1.48087430    
   1.36500001       0.00000000     -0.606999993       3345.98682      -1.48087430    
   1.33877206      0.266297996     -0.606999993       3345.98682      -1.48087430    
   1.84103203      0.366203994     -0.606999993       3345.98682      -1.48087430    
   1.87709999       0.00000000     -0.606999993       3924.40405      -1.46647084    
   2.59967995       0.00000000     -0.517000020       3924.40405      -1.46647084    
   2.54972792     -0.507171988     -0.517000020       3924.40405      -1.46647084    
   1.84103203     -0.366203994     -0.606999993       3924.40405      -1.46647084    
   1.84103203     -0.366203994     -0.606999993       3345.41187      -1.48092508    
   1.33877206     -0.266297996     -0.606999993       3345.41187      -1.48092508    
   1.36500001       0.00000000     -0.606999993       3345.41187      -1.48092508    
   1.87709999       0.00000000     -0.606999993       3345.41187      -1.48092508    
   1.84103203     -0.366203994     -0.606999993       3778.42432      -1.46690094    
   2.54972792     -0.507171988     -0.517000020       3778.42432      -1.46690094    
   2.40179110     -0.994853973     -0.517000020       3778.42432      -1.46690094    
   1.73421395     -0.718334973     -0.606999993       3778.42432      -1.46690094    
   1.73421395     -0.718334973     -0.606999993       3218.14478      -1.48117483    
   1.26109600     -0.522363007     -0.606999993       3218.14478      -1.48117483    
   1.33877206     -0.266297996     -0.606999993       3218.14478      -1.48117483    
   1.84103203     -0.366203994     -0.606999993       3218.14478      -1.48117483    
   1.73421395     -0.718334973     -0.606999993       3482.25586      -1.46738648    
   2.40179110     -0.994853973     -0.517000020       3482.25586      -1.46738648    
   2.16155505      -1.44430494     -0.517000020       3482.25586      -1.46738648    
   1.56075203      -1.04286098     -0.606999993       3482.25586      -1.46738648    
   1.56075203      -1.04286098     -0.606999993       2965.01489      -1.48142469    
   1.13495600     -0.758352995     -0.606999993       2965.01489      -1.48142469    
   1.26109600     -0.522363007     -0.606999993       2965.01489      -1.48142469    