 VARIABLES="X" "Y" "Z" "abs(p) (Pa)" "angle(p) (rad)"
ZONE N=   2709,E =    2358, F=FEPOINT, ET=QUADRILATERAL
   0.00000000      -5.48999977     -0.157000005       409.024170      -1.55506170    
   0.00000000      -4.76741982     -0.246999994       409.024170      -1.55506170    
  0.930077016      -4.67581606     -0.246999994       409.024170      -1.55506170    
   1.07104599      -5.38451099     -0.157000005       409.024170      -1.55506170    
  -1.07104599      -5.38451099     -0.157000005       410.062531      -1.55714762    
 -0.930077016      -4.67581606     -0.246999994       410.062531      -1.55714762    
   0.00000000      -4.76741982     -0.246999994       410.062531      -1.55714762    
   0.00000000      -5.48999977     -0.157000005       410.062531      -1.55714762    
  -2.10093188      -5.07209921     -0.157000005       408.112061      -1.56034601    
  -1.82441294      -4.40452194     -0.246999994       408.112061      -1.56034601    
 -0.930077016      -4.67581606     -0.246999994       408.112061      -1.56034601    
  -1.07104599      -5.38451099     -0.157000005       408.112061      -1.56034601    
  -3.05008101      -4.56476784     -0.157000005       360.215485      -1.55866122    
  -2.64863706      -3.96396494     -0.246999994       360.215485      -1.55866122    
  -1.82441294      -4.40452194     -0.246999994       360.215485      -1.55866122    
  -2.10093188      -5.07209921     -0.157000005       360.215485      -1.55866122    
  -3.88201594      -3.88201594     -0.157000005       320.527252      -1.55512941    
  -3.37107491      -3.37107491     -0.246999994       320.527252      -1.55512941    
  -2.64863706      -3.96396494     -0.246999994       320.527252      -1.55512941    
  -3.05008101      -4.56476784     -0.157000005       320.527252      -1.55512941    
  -4.56476784      -3.05008101     -0.157000005       278.545441      -1.55270171    
  -3.96396494      -2.64863706     -0.246999994       278.545441      -1.55270171    
  -3.37107491      -3.37107491     -0.246999994       278.545441      -1.55270171    
  -3.88201594      -3.88201594     -0.157000005       278.545441      -1.55270171    
  -5.07209921      -2.10093188     -0.157000005       199.408539      -1.55053163    
  -4.40452194      -1.82441294     -0.246999994       199.408539      -1.55053163    
  -3.96396494      -2.64863706     -0.246999994       199.408539      -1.55053163    
  -4.56476784      -3.05008101     -0.157000005       199.408539      -1.55053163    
  -5.38451099      -1.07104599     -0.157000005       118.840408      -1.56062973    
  -4.67581606     -0.930077016     -0.246999994       118.840408      -1.56062973    
  -4.40452194      -1.82441294     -0.246999994       118.840408      -1.56062973    
  -5.07209921      -2.10093188     -0.157000005       118.840408      -1.56062973    
  -5.48999977       0.00000000     -0.157000005       40.5070267      -1.57679570    
  -4.76741982       0.00000000     -0.246999994       40.5070267      -1.57679570    
  -4.67581606     -0.930077016     -0.246999994       40.5070267      -1.57679570    
  -5.38451099      -1.07104599     -0.157000005       40.5070267      -1.57679570    
  -5.38451099       1.07104599     -0.157000005       39.2058678       1.56634319    
  -4.67581606      0.930077016     -0.246999994       39.2058678       1.56634319    
  -4.76741982       0.00000000     -0.246999994       39.2058678       1.56634319    
  -5.48999977       0.00000000     -0.157000005       39.2058678       1.56634319    
  -5.07209921       2.10093188     -0.157000005       121.770073       1.57145476    
  -4.40452194       1.82441294     -0.246999994       121.770073       1.57145476    
  -4.67581606      0.930077016     -0.246999994       121.770073       1.57145476    
  -5.38451099       1.07104599     -0.157000005       121.770073       1.57145476    
  -4.56476784       3.05008101     -0.157000005       206.008881       1.58076322    
  -3.96396494       2.64863706     -0.246999994       206.008881       1.58076322    
  -4.40452194       1.82441294     -0.246999994       206.008881       1.58076322    
  -5.07209921       2.10093188     -0.157000005       206.008881       1.58076322    
  -3.88201594       3.88201594     -0.157000005       273.089844       1.58604372    
  -3.37107491       3.37107491     -0.246999994       273.089844       1.58604372    
  -3.96396494       2.64863706     -0.246999994       273.089844       1.58604372    
  -4.56476784       3.05008101     -0.157000005       273.089844       1.58604372    
  -3.05008101       4.56476784     -0.157000005       339.886993       1.58335710    
  -2.64863706       3.96396494     -0.246999994       339.886993       1.58335710    
  -3.37107491       3.37107491     -0.246999994       339.886993       1.58335710    
  -3.88201594       3.88201594     -0.157000005       339.886993       1.58335710    
  -2.10093188       5.07209921     -0.157000005       366.491302       1.58346665    
  -1.82441294       4.40452194     -0.246999994       366.491302       1.58346665    
  -2.64863706       3.96396494     -0.246999994       366.491302       1.58346665    
  -3.05008101       4.56476784     -0.157000005       366.491302       1.58346665    
  -1.07104599       5.38451099     -0.157000005       412.891205       1.58156133    
 -0.930077016       4.67581606     -0.246999994       412.891205       1.58156133    
  -1.82441294       4.40452194     -0.246999994       412.891205       1.58156133    
  -2.10093188       5.07209921     -0.157000005       412.891205       1.58156133    
   0.00000000       5.48999977     -0.157000005       418.417786       1.58271551    
   0.00000000       4.76741982     -0.246999994       418.417786       1.58271551    
 -0.930077016       4.67581606     -0.246999994       418.417786       1.58271551    
  -1.07104599       5.38451099     -0.157000005       418.417786       1.58271551    
   1.07104599       5.38451099     -0.157000005       430.674133       1.58219588    
  0.930077016       4.67581606     -0.246999994       430.674133       1.58219588    
   0.00000000       4.76741982     -0.246999994       430.674133       1.58219588    
   0.00000000       5.48999977     -0.157000005       430.674133       1.58219588    
   2.10093188       5.07209921     -0.157000005       399.457977       1.58403361    
   1.82441294       4.40452194     -0.246999994       399.457977       1.58403361    
  0.930077016       4.67581606     -0.246999994       399.457977       1.58403361    
   1.07104599       5.38451099     -0.157000005       399.457977       1.58403361    
   3.05008101       4.56476784     -0.157000005       364.750366       1.58368111    
   2.64863706       3.96396494     -0.246999994       364.750366       1.58368111    
   1.82441294       4.40452194     -0.246999994       364.750366       1.58368111    
   2.10093188       5.07209921     -0.157000005       364.750366       1.58368111    
   3.88201594       3.88201594     -0.157000005       338.619934       1.58364260    
   3.37107491       3.37107491     -0.246999994       338.619934       1.58364260    
   2.64863706       3.96396494     -0.246999994       338.619934       1.58364260    
   3.05008101       4.56476784     -0.157000005       338.619934       1.58364260    
   4.56476784       3.05008101     -0.157000005       276.422577       1.58877838    
   3.96396494       2.64863706     -0.246999994       276.422577       1.58877838    
   3.37107491       3.37107491     -0.246999994       276.422577       1.58877838    
   3.88201594       3.88201594     -0.157000005       276.422577       1.58877838    
   5.07209921       2.10093188     -0.157000005       203.283691       1.58732712    
   4.40452194       1.82441294     -0.246999994       203.283691       1.58732712    
   3.96396494       2.64863706     -0.246999994       203.283691       1.58732712    
   4.56476784       3.05008101     -0.157000005       203.283691       1.58732712    
   5.38451099       1.07104599     -0.157000005       115.445107       1.57573521    
   4.67581606      0.930077016     -0.246999994       115.445107       1.57573521    
   4.40452194       1.82441294     -0.246999994       115.445107       1.57573521    
   5.07209921       2.10093188     -0.157000005       115.445107       1.57573521    
   5.48999977       0.00000000     -0.157000005       36.3767242       1.55487084    
   4.76741982       0.00000000     -0.246999994       36.3767242       1.55487084    
   4.67581606      0.930077016     -0.246999994       36.3767242       1.55487084    
   5.38451099       1.07104599     -0.157000005       36.3767242       1.55487084    
   5.38451099      -1.07104599     -0.157000005       40.1663361      -1.57484663    
   4.67581606     -0.930077016     -0.246999994       40.1663361      -1.57484663    
   4.76741982       0.00000000     -0.246999994       40.1663361      -1.57484663    
   5.48999977       0.00000000     -0.157000005       40.1663361      -1.57484663    
   5.07209921      -2.10093188     -0.157000005       119.849030      -1.56375968    
   4.40452194      -1.82441294     -0.246999994       119.849030      -1.56375968    
   4.67581606     -0.930077016     -0.246999994       119.849030      -1.56375968    
   5.38451099      -1.07104599     -0.157000005       119.849030      -1.56375968    
   4.56476784      -3.05008101     -0.157000005       199.850494      -1.55268371    
   3.96396494      -2.64863706     -0.246999994       199.850494      -1.55268371    
   4.40452194      -1.82441294     -0.246999994       199.850494      -1.55268371    
   5.07209921      -2.10093188     -0.157000005       199.850494      -1.55268371    
   3.88201594      -3.88201594     -0.157000005       270.740479      -1.55325437    
   3.37107491      -3.37107491     -0.246999994       270.740479      -1.55325437    
   3.96396494      -2.64863706     -0.246999994       270.740479      -1.55325437    
   4.56476784      -3.05008101     -0.157000005       270.740479      -1.55325437    
   3.05008101      -4.56476784     -0.157000005       332.920380      -1.55937660    
   2.64863706      -3.96396494     -0.246999994       332.920380      -1.55937660    
   3.37107491      -3.37107491     -0.246999994       332.920380      -1.55937660    
   3.88201594      -3.88201594     -0.157000005       332.920380      -1.55937660    
   2.10093188      -5.07209921     -0.157000005       359.957764      -1.55860019    
   1.82441294      -4.40452194     -0.246999994       359.957764      -1.55860019    
   2.64863706      -3.96396494     -0.246999994       359.957764      -1.55860019    
   3.05008101      -4.56476784     -0.157000005       359.957764      -1.55860019    
   1.07104599      -5.38451099     -0.157000005       393.723419      -1.55582559    
  0.930077016      -4.67581606     -0.246999994       393.723419      -1.55582559    
   1.82441294      -4.40452194     -0.246999994       393.723419      -1.55582559    
   2.10093188      -5.07209921     -0.157000005       393.723419      -1.55582559    
   0.00000000      -1.87709999     -0.606999993       14743.1738      -1.56944180    
   0.00000000      -1.36500001     -0.606999993       14743.1738      -1.56944180    
  0.266297996      -1.33877206     -0.606999993       14743.1738      -1.56944180    
  0.366203994      -1.84103203     -0.606999993       14743.1738      -1.56944180    
   0.00000000      -1.87709999     -0.606999993       5707.03320      -1.56935668    
   0.00000000      -2.59967995     -0.517000020       5707.03320      -1.56935668    
 -0.507171988      -2.54972792     -0.517000020       5707.03320      -1.56935668    
 -0.366203994      -1.84103203     -0.606999993       5707.03320      -1.56935668    
 -0.366203994      -1.84103203     -0.606999993       14748.8125      -1.56944430    
 -0.266297996      -1.33877206     -0.606999993       14748.8125      -1.56944430    
   0.00000000      -1.36500001     -0.606999993       14748.8125      -1.56944430    
   0.00000000      -1.87709999     -0.606999993       14748.8125      -1.56944430    
 -0.366203994      -1.84103203     -0.606999993       5593.36816      -1.56941652    
 -0.507171988      -2.54972792     -0.517000020       5593.36816      -1.56941652    
 -0.994853973      -2.40179110     -0.517000020       5593.36816      -1.56941652    
 -0.718334973      -1.73421395     -0.606999993       5593.36816      -1.56941652    
 -0.718334973      -1.73421395     -0.606999993       14270.8281      -1.56946921    
 -0.522363007      -1.26109600     -0.606999993       14270.8281      -1.56946921    
 -0.266297996      -1.33877206     -0.606999993       14270.8281      -1.56946921    
 -0.366203994      -1.84103203     -0.606999993       14270.8281      -1.56946921    
 -0.718334973      -1.73421395     -0.606999993       5304.69043      -1.56949198    
 -0.994853973      -2.40179110     -0.517000020       5304.69043      -1.56949198    
  -1.44430494      -2.16155505     -0.517000020       5304.69043      -1.56949198    
  -1.04286098      -1.56075203     -0.606999993       5304.69043      -1.56949198    
  -1.04286098      -1.56075203     -0.606999993       13271.2246      -1.56950521    
 -0.758352995      -1.13495600     -0.606999993       13271.2246      -1.56950521    
 -0.522363007      -1.26109600     -0.606999993       13271.2246      -1.56950521    
 -0.718334973      -1.73421395     -0.606999993       13271.2246      -1.56950521    
  -1.04286098      -1.56075203     -0.606999993       4759.11084      -1.56953990    
  -1.44430494      -2.16155505     -0.517000020       4759.11084      -1.56953990    
  -1.83825099      -1.83825099     -0.517000020       4759.11084      -1.56953990    
  -1.32730997      -1.32730997     -0.606999993       4759.11084      -1.56953990    
  -1.32730997      -1.32730997     -0.606999993       11712.7715      -1.56953728    
 -0.965201020     -0.965201020     -0.606999993       11712.7715      -1.56953728    
 -0.758352995      -1.13495600     -0.606999993       11712.7715      -1.56953728    
  -1.04286098      -1.56075203     -0.606999993       11712.7715      -1.56953728    
  -1.32730997      -1.32730997     -0.606999993       3909.70801      -1.56954360    
  -1.83825099      -1.83825099     -0.517000020       3909.70801      -1.56954360    
  -2.16155505      -1.44430494     -0.517000020       3909.70801      -1.56954360    
  -1.56075203      -1.04286098     -0.606999993       3909.70801      -1.56954360    
  -1.56075203      -1.04286098     -0.606999993       9618.12402      -1.56955588    
  -1.13495600     -0.758352995     -0.606999993       9618.12402      -1.56955588    
 -0.965201020     -0.965201020     -0.606999993       9618.12402      -1.56955588    
  -1.32730997      -1.32730997     -0.606999993       9618.12402      -1.56955588    
  -1.56075203      -1.04286098     -0.606999993       2807.15820      -1.56949294    
  -2.16155505      -1.44430494     -0.517000020       2807.15820      -1.56949294    
  -2.40179110     -0.994853973     -0.517000020       2807.15820      -1.56949294    
  -1.73421395     -0.718334973     -0.606999993       2807.15820      -1.56949294    
  -1.73421395     -0.718334973     -0.606999993       7096.86084      -1.56955767    
  -1.26109600     -0.522363007     -0.606999993       7096.86084      -1.56955767    
  -1.13495600     -0.758352995     -0.606999993       7096.86084      -1.56955767    
  -1.56075203      -1.04286098     -0.606999993       7096.86084      -1.56955767    
  -1.73421395     -0.718334973     -0.606999993       1628.69055      -1.56940866    
  -2.40179110     -0.994853973     -0.517000020       1628.69055      -1.56940866    
  -2.54972792     -0.507171988     -0.517000020       1628.69055      -1.56940866    
  -1.84103203     -0.366203994     -0.606999993       1628.69055      -1.56940866    
  -1.84103203     -0.366203994     -0.606999993       4323.01562      -1.56954622    
  -1.33877206     -0.266297996     -0.606999993       4323.01562      -1.56954622    
  -1.26109600     -0.522363007     -0.606999993       4323.01562      -1.56954622    
  -1.73421395     -0.718334973     -0.606999993       4323.01562      -1.56954622    
  -1.84103203     -0.366203994     -0.606999993       519.997009      -1.56927311    
  -2.54972792     -0.507171988     -0.517000020       519.997009      -1.56927311    
  -2.59967995       0.00000000     -0.517000020       519.997009      -1.56927311    
  -1.87709999       0.00000000     -0.606999993       519.997009      -1.56927311    
  -1.87709999       0.00000000     -0.606999993       1455.65283      -1.56950855    
  -1.36500001       0.00000000     -0.606999993       1455.65283      -1.56950855    
  -1.33877206     -0.266297996     -0.606999993       1455.65283      -1.56950855    
  -1.84103203     -0.366203994     -0.606999993       1455.65283      -1.56950855    
  -1.87709999       0.00000000     -0.606999993       505.861359       1.57213342    
  -2.59967995       0.00000000     -0.517000020       505.861359       1.57213342    
  -2.54972792      0.507171988     -0.517000020       505.861359       1.57213342    
  -1.84103203      0.366203994     -0.606999993       505.861359       1.57213342    
  -1.84103203      0.366203994     -0.606999993       1409.39026       1.57201147    
  -1.33877206      0.266297996     -0.606999993       1409.39026       1.57201147    
  -1.36500001       0.00000000     -0.606999993       1409.39026       1.57201147    
  -1.87709999       0.00000000     -0.606999993       1409.39026       1.57201147    
  -1.84103203      0.366203994     -0.606999993       1559.33362       1.57216680    
  -2.54972792      0.507171988     -0.517000020       1559.33362       1.57216680    
  -2.40179110      0.994853973     -0.517000020       1559.33362       1.57216680    
  -1.73421395      0.718334973     -0.606999993       1559.33362       1.57216680    
  -1.73421395      0.718334973     -0.606999993       4233.63330       1.57204366    
  -1.26109600      0.522363007     -0.606999993       4233.63330       1.57204366    
  -1.33877206      0.266297996     -0.606999993       4233.63330       1.57204366    
  -1.84103203      0.366203994     -0.606999993       4233.63330       1.57204366    
  -1.73421395      0.718334973     -0.606999993       2681.28345       1.57212842    
  -2.40179110      0.994853973     -0.517000020       2681.28345       1.57212842    
  -2.16155505       1.44430494     -0.517000020       2681.28345       1.57212842    
  -1.56075203       1.04286098     -0.606999993       2681.28345       1.57212842    
  -1.56075203       1.04286098     -0.606999993       6951.55811       1.57205296    
  -1.13495600      0.758352995     -0.606999993       6951.55811       1.57205296    
  -1.26109600      0.522363007     -0.606999993       6951.55811       1.57205296    
  -1.73421395      0.718334973     -0.606999993       6951.55811       1.57205296    
  -1.56075203       1.04286098     -0.606999993       3772.39600       1.57208657    
  -2.16155505       1.44430494     -0.517000020       3772.39600       1.57208657    
  -1.83825099       1.83825099     -0.517000020       3772.39600       1.57208657    
  -1.32730997       1.32730997     -0.606999993       3772.39600       1.57208657    
  -1.32730997       1.32730997     -0.606999993       9435.32324       1.57206392    
 -0.965201020      0.965201020     -0.606999993       9435.32324       1.57206392    
  -1.13495600      0.758352995     -0.606999993       9435.32324       1.57206392    
  -1.56075203       1.04286098     -0.606999993       9435.32324       1.57206392    
  -1.32730997       1.32730997     -0.606999993       4650.73828       1.57208681    
  -1.83825099       1.83825099     -0.517000020       4650.73828       1.57208681    
  -1.44430494       2.16155505     -0.517000020       4650.73828       1.57208681    
  -1.04286098       1.56075203     -0.606999993       4650.73828       1.57208681    
  -1.04286098       1.56075203     -0.606999993       11518.7676       1.57208550    
 -0.758352995       1.13495600     -0.606999993       11518.7676       1.57208550    
 -0.965201020      0.965201020     -0.606999993       11518.7676       1.57208550    
  -1.32730997       1.32730997     -0.606999993       11518.7676       1.57208550    
  -1.04286098       1.56075203     -0.606999993       5230.02100       1.57212937    
  -1.44430494       2.16155505     -0.517000020       5230.02100       1.57212937    
 -0.994853973       2.40179110     -0.517000020       5230.02100       1.57212937    
 -0.718334973       1.73421395     -0.606999993       5230.02100       1.57212937    
 -0.718334973       1.73421395     -0.606999993       13085.5596       1.57211757    
 -0.522363007       1.26109600     -0.606999993       13085.5596       1.57211757    
 -0.758352995       1.13495600     -0.606999993       13085.5596       1.57211757    
  -1.04286098       1.56075203     -0.606999993       13085.5596       1.57211757    
 -0.718334973       1.73421395     -0.606999993       5539.52295       1.57220030    
 -0.994853973       2.40179110     -0.517000020       5539.52295       1.57220030    
 -0.507171988       2.54972792     -0.517000020       5539.52295       1.57220030    
 -0.366203994       1.84103203     -0.606999993       5539.52295       1.57220030    
 -0.366203994       1.84103203     -0.606999993       14099.4131       1.57215118    
 -0.266297996       1.33877206     -0.606999993       14099.4131       1.57215118    
 -0.522363007       1.26109600     -0.606999993       14099.4131       1.57215118    
 -0.718334973       1.73421395     -0.606999993       14099.4131       1.57215118    
 -0.366203994       1.84103203     -0.606999993       5663.93799       1.57225585    
 -0.507171988       2.54972792     -0.517000020       5663.93799       1.57225585    
   0.00000000       2.59967995     -0.517000020       5663.93799       1.57225585    
   0.00000000       1.87709999     -0.606999993       5663.93799       1.57225585    
   0.00000000       1.87709999     -0.606999993       14589.8896       1.57217228    
   0.00000000       1.36500001     -0.606999993       14589.8896       1.57217228    
 -0.266297996       1.33877206     -0.606999993       14589.8896       1.57217228    
 -0.366203994       1.84103203     -0.606999993       14589.8896       1.57217228    
   0.00000000       1.87709999     -0.606999993       5666.01123       1.57225716    
   0.00000000       2.59967995     -0.517000020       5666.01123       1.57225716    
  0.507171988       2.54972792     -0.517000020       5666.01123       1.57225716    
  0.366203994       1.84103203     -0.606999993       5666.01123       1.57225716    
  0.366203994       1.84103203     -0.606999993       14591.1758       1.57217216    
  0.266297996       1.33877206     -0.606999993       14591.1758       1.57217216    
   0.00000000       1.36500001     -0.606999993       14591.1758       1.57217216    
   0.00000000       1.87709999     -0.606999993       14591.1758       1.57217216    
  0.366203994       1.84103203     -0.606999993       5545.78613       1.57219744    
  0.507171988       2.54972792     -0.517000020       5545.78613       1.57219744    
  0.994853973       2.40179110     -0.517000020       5545.78613       1.57219744    
  0.718334973       1.73421395     -0.606999993       5545.78613       1.57219744    
  0.718334973       1.73421395     -0.606999993       14103.1211       1.57214594    
  0.522363007       1.26109600     -0.606999993       14103.1211       1.57214594    
  0.266297996       1.33877206     -0.606999993       14103.1211       1.57214594    
  0.366203994       1.84103203     -0.606999993       14103.1211       1.57214594    
  0.718334973       1.73421395     -0.606999993       5240.72803       1.57212400    
  0.994853973       2.40179110     -0.517000020       5240.72803       1.57212400    
   1.44430494       2.16155505     -0.517000020       5240.72803       1.57212400    
   1.04286098       1.56075203     -0.606999993       5240.72803       1.57212400    
   1.04286098       1.56075203     -0.606999993       13091.3740       1.57210982    
  0.758352995       1.13495600     -0.606999993       13091.3740       1.57210982    
  0.522363007       1.26109600     -0.606999993       13091.3740       1.57210982    
  0.718334973       1.73421395     -0.606999993       13091.3740       1.57210982    
   1.04286098       1.56075203     -0.606999993       4666.04736       1.57207942    
   1.44430494       2.16155505     -0.517000020       4666.04736       1.57207942    
   1.83825099       1.83825099     -0.517000020       4666.04736       1.57207942    
   1.32730997       1.32730997     -0.606999993       4666.04736       1.57207942    
   1.32730997       1.32730997     -0.606999993       11526.8994       1.57207632    
  0.965201020      0.965201020     -0.606999993       11526.8994       1.57207632    
  0.758352995       1.13495600     -0.606999993       11526.8994       1.57207632    
   1.04286098       1.56075203     -0.606999993       11526.8994       1.57207632    
   1.32730997       1.32730997     -0.606999993       3791.54663       1.57207823    
   1.83825099       1.83825099     -0.517000020       3791.54663       1.57207823    
   2.16155505       1.44430494     -0.517000020       3791.54663       1.57207823    
   1.56075203       1.04286098     -0.606999993       3791.54663       1.57207823    
   1.56075203       1.04286098     -0.606999993       9444.95117       1.57205164    
   1.13495600      0.758352995     -0.606999993       9444.95117       1.57205164    
  0.965201020      0.965201020     -0.606999993       9444.95117       1.57205164    
   1.32730997       1.32730997     -0.606999993       9444.95117       1.57205164    
   1.56075203       1.04286098     -0.606999993       2702.56006       1.57211709    
   2.16155505       1.44430494     -0.517000020       2702.56006       1.57211709    
   2.40179110      0.994853973     -0.517000020       2702.56006       1.57211709    
   1.73421395      0.718334973     -0.606999993       2702.56006       1.57211709    
   1.73421395      0.718334973     -0.606999993       6960.32275       1.57203972    
   1.26109600      0.522363007     -0.606999993       6960.32275       1.57203972    
   1.13495600      0.758352995     -0.606999993       6960.32275       1.57203972    
   1.56075203       1.04286098     -0.606999993       6960.32275       1.57203972    
   1.73421395      0.718334973     -0.606999993       1581.38000       1.57214403    
   2.40179110      0.994853973     -0.517000020       1581.38000       1.57214403    
   2.54972792      0.507171988     -0.517000020       1581.38000       1.57214403    
   1.84103203      0.366203994     -0.606999993       1581.38000       1.57214403    
   1.84103203      0.366203994     -0.606999993       4241.63574       1.57202363    
   1.33877206      0.266297996     -0.606999993       4241.63574       1.57202363    
   1.26109600      0.522363007     -0.606999993       4241.63574       1.57202363    
   1.73421395      0.718334973     -0.606999993       4241.63574       1.57202363    
   1.84103203      0.366203994     -0.606999993       528.580872       1.57205915    
   2.54972792      0.507171988     -0.517000020       528.580872       1.57205915    
   2.59967995       0.00000000     -0.517000020       528.580872       1.57205915    
   1.87709999       0.00000000     -0.606999993       528.580872       1.57205915    
   1.87709999       0.00000000     -0.606999993       1418.12732       1.57195842    
   1.36500001       0.00000000     -0.606999993       1418.12732       1.57195842    
   1.33877206      0.266297996     -0.606999993       1418.12732       1.57195842    
   1.84103203      0.366203994     -0.606999993       1418.12732       1.57195842    
   1.87709999       0.00000000     -0.606999993       496.566071      -1.56920600    
   2.59967995       0.00000000     -0.517000020       496.566071      -1.56920600    
   2.54972792     -0.507171988     -0.517000020       496.566071      -1.56920600    
   1.84103203     -0.366203994     -0.606999993       496.566071      -1.56920600    
   1.84103203     -0.366203994     -0.606999993       1445.42700      -1.56945848    
   1.33877206     -0.266297996     -0.606999993       1445.42700      -1.56945848    
   1.36500001       0.00000000     -0.606999993       1445.42700      -1.56945848    
   1.87709999       0.00000000     -0.606999993       1445.42700      -1.56945848    
   1.84103203     -0.366203994     -0.606999993       1604.69543      -1.56939220    
   2.54972792     -0.507171988     -0.517000020       1604.69543      -1.56939220    
   2.40179110     -0.994853973     -0.517000020       1604.69543      -1.56939220    
   1.73421395     -0.718334973     -0.606999993       1604.69543      -1.56939220    
   1.73421395     -0.718334973     -0.606999993       4311.25488      -1.56953073    
   1.26109600     -0.522363007     -0.606999993       4311.25488      -1.56953073    
   1.33877206     -0.266297996     -0.606999993       4311.25488      -1.56953073    
   1.84103203     -0.366203994     -0.606999993       4311.25488      -1.56953073    
   1.73421395     -0.718334973     -0.606999993       2783.00537      -1.56948078    
   2.40179110     -0.994853973     -0.517000020       2783.00537      -1.56948078    
   2.16155505      -1.44430494     -0.517000020       2783.00537      -1.56948078    
   1.56075203      -1.04286098     -0.606999993       2783.00537      -1.56948078    
   1.56075203      -1.04286098     -0.606999993       7083.77588      -1.56954861    
   1.13495600     -0.758352995     -0.606999993       7083.77588      -1.56954861    
   1.26109600     -0.522363007     -0.606999993       7083.77588      -1.56954861    