 VARIABLES="X" "Y" "Z" "abs(p) (Pa)" "angle(p) (rad)"
ZONE N=   2709,E =    2358, F=FEPOINT, ET=QUADRILATERAL
   0.00000000      -5.48999977     -0.157000005       53.4609489     -0.780667603    
   0.00000000      -4.76741982     -0.246999994       53.4609489     -0.780667603    
  0.930077016      -4.67581606     -0.246999994       53.4609489     -0.780667603    
   1.07104599      -5.38451099     -0.157000005       53.4609489     -0.780667603    
  -1.07104599      -5.38451099     -0.157000005       52.0233955       2.35112286    
 -0.930077016      -4.67581606     -0.246999994       52.0233955       2.35112286    
   0.00000000      -4.76741982     -0.246999994       52.0233955       2.35112286    
   0.00000000      -5.48999977     -0.157000005       52.0233955       2.35112286    
  -2.10093188      -5.07209921     -0.157000005       154.538544       2.35624528    
  -1.82441294      -4.40452194     -0.246999994       154.538544       2.35624528    
 -0.930077016      -4.67581606     -0.246999994       154.538544       2.35624528    
  -1.07104599      -5.38451099     -0.157000005       154.538544       2.35624528    
  -3.05008101      -4.56476784     -0.157000005       250.731903       2.36271262    
  -2.64863706      -3.96396494     -0.246999994       250.731903       2.36271262    
  -1.82441294      -4.40452194     -0.246999994       250.731903       2.36271262    
  -2.10093188      -5.07209921     -0.157000005       250.731903       2.36271262    
  -3.88201594      -3.88201594     -0.157000005       336.786072       2.36474967    
  -3.37107491      -3.37107491     -0.246999994       336.786072       2.36474967    
  -2.64863706      -3.96396494     -0.246999994       336.786072       2.36474967    
  -3.05008101      -4.56476784     -0.157000005       336.786072       2.36474967    
  -4.56476784      -3.05008101     -0.157000005       409.274139       2.36347222    
  -3.96396494      -2.64863706     -0.246999994       409.274139       2.36347222    
  -3.37107491      -3.37107491     -0.246999994       409.274139       2.36347222    
  -3.88201594      -3.88201594     -0.157000005       409.274139       2.36347222    
  -5.07209921      -2.10093188     -0.157000005       469.242554       2.36392426    
  -4.40452194      -1.82441294     -0.246999994       469.242554       2.36392426    
  -3.96396494      -2.64863706     -0.246999994       469.242554       2.36392426    
  -4.56476784      -3.05008101     -0.157000005       469.242554       2.36392426    
  -5.38451099      -1.07104599     -0.157000005       510.333008       2.36283755    
  -4.67581606     -0.930077016     -0.246999994       510.333008       2.36283755    
  -4.40452194      -1.82441294     -0.246999994       510.333008       2.36283755    
  -5.07209921      -2.10093188     -0.157000005       510.333008       2.36283755    
  -5.48999977       0.00000000     -0.157000005       529.506287       2.36132145    
  -4.76741982       0.00000000     -0.246999994       529.506287       2.36132145    
  -4.67581606     -0.930077016     -0.246999994       529.506287       2.36132145    
  -5.38451099      -1.07104599     -0.157000005       529.506287       2.36132145    
  -5.38451099       1.07104599     -0.157000005       529.813599       2.36065030    
  -4.67581606      0.930077016     -0.246999994       529.813599       2.36065030    
  -4.76741982       0.00000000     -0.246999994       529.813599       2.36065030    
  -5.48999977       0.00000000     -0.157000005       529.813599       2.36065030    
  -5.07209921       2.10093188     -0.157000005       510.146942       2.35991526    
  -4.40452194       1.82441294     -0.246999994       510.146942       2.35991526    
  -4.67581606      0.930077016     -0.246999994       510.146942       2.35991526    
  -5.38451099       1.07104599     -0.157000005       510.146942       2.35991526    
  -4.56476784       3.05008101     -0.157000005       470.185852       2.36068583    
  -3.96396494       2.64863706     -0.246999994       470.185852       2.36068583    
  -4.40452194       1.82441294     -0.246999994       470.185852       2.36068583    
  -5.07209921       2.10093188     -0.157000005       470.185852       2.36068583    
  -3.88201594       3.88201594     -0.157000005       413.013031       2.36290240    
  -3.37107491       3.37107491     -0.246999994       413.013031       2.36290240    
  -3.96396494       2.64863706     -0.246999994       413.013031       2.36290240    
  -4.56476784       3.05008101     -0.157000005       413.013031       2.36290240    
  -3.05008101       4.56476784     -0.157000005       338.255646       2.36238551    
  -2.64863706       3.96396494     -0.246999994       338.255646       2.36238551    
  -3.37107491       3.37107491     -0.246999994       338.255646       2.36238551    
  -3.88201594       3.88201594     -0.157000005       338.255646       2.36238551    
  -2.10093188       5.07209921     -0.157000005       252.486420       2.36237836    
  -1.82441294       4.40452194     -0.246999994       252.486420       2.36237836    
  -2.64863706       3.96396494     -0.246999994       252.486420       2.36237836    
  -3.05008101       4.56476784     -0.157000005       252.486420       2.36237836    
  -1.07104599       5.38451099     -0.157000005       156.150238       2.35800672    
 -0.930077016       4.67581606     -0.246999994       156.150238       2.35800672    
  -1.82441294       4.40452194     -0.246999994       156.150238       2.35800672    
  -2.10093188       5.07209921     -0.157000005       156.150238       2.35800672    
   0.00000000       5.48999977     -0.157000005       53.4933701       2.35771465    
   0.00000000       4.76741982     -0.246999994       53.4933701       2.35771465    
 -0.930077016       4.67581606     -0.246999994       53.4933701       2.35771465    
  -1.07104599       5.38451099     -0.157000005       53.4933701       2.35771465    
   1.07104599       5.38451099     -0.157000005       51.9124985     -0.789997697    
  0.930077016       4.67581606     -0.246999994       51.9124985     -0.789997697    
   0.00000000       4.76741982     -0.246999994       51.9124985     -0.789997697    
   0.00000000       5.48999977     -0.157000005       51.9124985     -0.789997697    
   2.10093188       5.07209921     -0.157000005       155.128174     -0.783912420    
   1.82441294       4.40452194     -0.246999994       155.128174     -0.783912420    
  0.930077016       4.67581606     -0.246999994       155.128174     -0.783912420    
   1.07104599       5.38451099     -0.157000005       155.128174     -0.783912420    
   3.05008101       4.56476784     -0.157000005       251.138031     -0.779983640    
   2.64863706       3.96396494     -0.246999994       251.138031     -0.779983640    
   1.82441294       4.40452194     -0.246999994       251.138031     -0.779983640    
   2.10093188       5.07209921     -0.157000005       251.138031     -0.779983640    
   3.88201594       3.88201594     -0.157000005       336.721619     -0.780152202    
   3.37107491       3.37107491     -0.246999994       336.721619     -0.780152202    
   2.64863706       3.96396494     -0.246999994       336.721619     -0.780152202    
   3.05008101       4.56476784     -0.157000005       336.721619     -0.780152202    
   4.56476784       3.05008101     -0.157000005       410.872833     -0.780124724    
   3.96396494       2.64863706     -0.246999994       410.872833     -0.780124724    
   3.37107491       3.37107491     -0.246999994       410.872833     -0.780124724    
   3.88201594       3.88201594     -0.157000005       410.872833     -0.780124724    
   5.07209921       2.10093188     -0.157000005       469.227997     -0.781176567    
   4.40452194       1.82441294     -0.246999994       469.227997     -0.781176567    
   3.96396494       2.64863706     -0.246999994       469.227997     -0.781176567    
   4.56476784       3.05008101     -0.157000005       469.227997     -0.781176567    
   5.38451099       1.07104599     -0.157000005       511.428070     -0.780102849    
   4.67581606      0.930077016     -0.246999994       511.428070     -0.780102849    
   4.40452194       1.82441294     -0.246999994       511.428070     -0.780102849    
   5.07209921       2.10093188     -0.157000005       511.428070     -0.780102849    
   5.48999977       0.00000000     -0.157000005       531.860474     -0.778929651    
   4.76741982       0.00000000     -0.246999994       531.860474     -0.778929651    
   4.67581606      0.930077016     -0.246999994       531.860474     -0.778929651    
   5.38451099       1.07104599     -0.157000005       531.860474     -0.778929651    
   5.38451099      -1.07104599     -0.157000005       531.719727     -0.778253257    
   4.67581606     -0.930077016     -0.246999994       531.719727     -0.778253257    
   4.76741982       0.00000000     -0.246999994       531.719727     -0.778253257    
   5.48999977       0.00000000     -0.157000005       531.719727     -0.778253257    
   5.07209921      -2.10093188     -0.157000005       511.296692     -0.777930439    
   4.40452194      -1.82441294     -0.246999994       511.296692     -0.777930439    
   4.67581606     -0.930077016     -0.246999994       511.296692     -0.777930439    
   5.38451099      -1.07104599     -0.157000005       511.296692     -0.777930439    
   4.56476784      -3.05008101     -0.157000005       470.600067     -0.776539803    
   3.96396494      -2.64863706     -0.246999994       470.600067     -0.776539803    
   4.40452194      -1.82441294     -0.246999994       470.600067     -0.776539803    
   5.07209921      -2.10093188     -0.157000005       470.600067     -0.776539803    
   3.88201594      -3.88201594     -0.157000005       411.965881     -0.775469363    
   3.37107491      -3.37107491     -0.246999994       411.965881     -0.775469363    
   3.96396494      -2.64863706     -0.246999994       411.965881     -0.775469363    
   4.56476784      -3.05008101     -0.157000005       411.965881     -0.775469363    
   3.05008101      -4.56476784     -0.157000005       337.296844     -0.776498616    
   2.64863706      -3.96396494     -0.246999994       337.296844     -0.776498616    
   3.37107491      -3.37107491     -0.246999994       337.296844     -0.776498616    
   3.88201594      -3.88201594     -0.157000005       337.296844     -0.776498616    
   2.10093188      -5.07209921     -0.157000005       252.005829     -0.777097702    
   1.82441294      -4.40452194     -0.246999994       252.005829     -0.777097702    
   2.64863706      -3.96396494     -0.246999994       252.005829     -0.777097702    
   3.05008101      -4.56476784     -0.157000005       252.005829     -0.777097702    
   1.07104599      -5.38451099     -0.157000005       156.371964     -0.780683696    
  0.930077016      -4.67581606     -0.246999994       156.371964     -0.780683696    
   1.82441294      -4.40452194     -0.246999994       156.371964     -0.780683696    
   2.10093188      -5.07209921     -0.157000005       156.371964     -0.780683696    
   0.00000000      -1.87709999     -0.606999993       113.943970      -1.48460162    
   0.00000000      -1.36500001     -0.606999993       113.943970      -1.48460162    
  0.266297996      -1.33877206     -0.606999993       113.943970      -1.48460162    
  0.366203994      -1.84103203     -0.606999993       113.943970      -1.48460162    
   0.00000000      -1.87709999     -0.606999993       73.8771133       1.75695586    
   0.00000000      -2.59967995     -0.517000020       73.8771133       1.75695586    
 -0.507171988      -2.54972792     -0.517000020       73.8771133       1.75695586    
 -0.366203994      -1.84103203     -0.606999993       73.8771133       1.75695586    
 -0.366203994      -1.84103203     -0.606999993       101.438324       1.65513587    
 -0.266297996      -1.33877206     -0.606999993       101.438324       1.65513587    
   0.00000000      -1.36500001     -0.606999993       101.438324       1.65513587    
   0.00000000      -1.87709999     -0.606999993       101.438324       1.65513587    
 -0.366203994      -1.84103203     -0.606999993       222.000687       1.75629866    
 -0.507171988      -2.54972792     -0.517000020       222.000687       1.75629866    
 -0.994853973      -2.40179110     -0.517000020       222.000687       1.75629866    
 -0.718334973      -1.73421395     -0.606999993       222.000687       1.75629866    
 -0.718334973      -1.73421395     -0.606999993       310.864136       1.65573597    
 -0.522363007      -1.26109600     -0.606999993       310.864136       1.65573597    
 -0.266297996      -1.33877206     -0.606999993       310.864136       1.65573597    
 -0.366203994      -1.84103203     -0.606999993       310.864136       1.65573597    
 -0.718334973      -1.73421395     -0.606999993       352.814850       1.75843751    
 -0.994853973      -2.40179110     -0.517000020       352.814850       1.75843751    
  -1.44430494      -2.16155505     -0.517000020       352.814850       1.75843751    
  -1.04286098      -1.56075203     -0.606999993       352.814850       1.75843751    
  -1.04286098      -1.56075203     -0.606999993       503.950653       1.65576923    
 -0.758352995      -1.13495600     -0.606999993       503.950653       1.65576923    
 -0.522363007      -1.26109600     -0.606999993       503.950653       1.65576923    
 -0.718334973      -1.73421395     -0.606999993       503.950653       1.65576923    
  -1.04286098      -1.56075203     -0.606999993       466.708160       1.76011980    
  -1.44430494      -2.16155505     -0.517000020       466.708160       1.76011980    
  -1.83825099      -1.83825099     -0.517000020       466.708160       1.76011980    
  -1.32730997      -1.32730997     -0.606999993       466.708160       1.76011980    
  -1.32730997      -1.32730997     -0.606999993       675.332825       1.65575600    
 -0.965201020     -0.965201020     -0.606999993       675.332825       1.65575600    
 -0.758352995      -1.13495600     -0.606999993       675.332825       1.65575600    
  -1.04286098      -1.56075203     -0.606999993       675.332825       1.65575600    
  -1.32730997      -1.32730997     -0.606999993       566.250610       1.76058173    
  -1.83825099      -1.83825099     -0.517000020       566.250610       1.76058173    
  -2.16155505      -1.44430494     -0.517000020       566.250610       1.76058173    
  -1.56075203      -1.04286098     -0.606999993       566.250610       1.76058173    
  -1.56075203      -1.04286098     -0.606999993       822.034058       1.65574753    
  -1.13495600     -0.758352995     -0.606999993       822.034058       1.65574753    
 -0.965201020     -0.965201020     -0.606999993       822.034058       1.65574753    
  -1.32730997      -1.32730997     -0.606999993       822.034058       1.65574753    
  -1.56075203      -1.04286098     -0.606999993       650.226013       1.75996888    
  -2.16155505      -1.44430494     -0.517000020       650.226013       1.75996888    
  -2.40179110     -0.994853973     -0.517000020       650.226013       1.75996888    
  -1.73421395     -0.718334973     -0.606999993       650.226013       1.75996888    
  -1.73421395     -0.718334973     -0.606999993       940.662170       1.65571773    
  -1.26109600     -0.522363007     -0.606999993       940.662170       1.65571773    
  -1.13495600     -0.758352995     -0.606999993       940.662170       1.65571773    
  -1.56075203      -1.04286098     -0.606999993       940.662170       1.65571773    
  -1.73421395     -0.718334973     -0.606999993       711.831665       1.75909162    
  -2.40179110     -0.994853973     -0.517000020       711.831665       1.75909162    
  -2.54972792     -0.507171988     -0.517000020       711.831665       1.75909162    
  -1.84103203     -0.366203994     -0.606999993       711.831665       1.75909162    
  -1.84103203     -0.366203994     -0.606999993       1025.30212       1.65568852    
  -1.33877206     -0.266297996     -0.606999993       1025.30212       1.65568852    
  -1.26109600     -0.522363007     -0.606999993       1025.30212       1.65568852    
  -1.73421395     -0.718334973     -0.606999993       1025.30212       1.65568852    
  -1.84103203     -0.366203994     -0.606999993       744.845581       1.75845957    
  -2.54972792     -0.507171988     -0.517000020       744.845581       1.75845957    
  -2.59967995       0.00000000     -0.517000020       744.845581       1.75845957    
  -1.87709999       0.00000000     -0.606999993       744.845581       1.75845957    
  -1.87709999       0.00000000     -0.606999993       1070.23291       1.65565765    
  -1.36500001       0.00000000     -0.606999993       1070.23291       1.65565765    
  -1.33877206     -0.266297996     -0.606999993       1070.23291       1.65565765    
  -1.84103203     -0.366203994     -0.606999993       1070.23291       1.65565765    
  -1.87709999       0.00000000     -0.606999993       746.159363       1.75827146    
  -2.59967995       0.00000000     -0.517000020       746.159363       1.75827146    
  -2.54972792      0.507171988     -0.517000020       746.159363       1.75827146    
  -1.84103203      0.366203994     -0.606999993       746.159363       1.75827146    
  -1.84103203      0.366203994     -0.606999993       1071.90137       1.65561640    
  -1.33877206      0.266297996     -0.606999993       1071.90137       1.65561640    
  -1.36500001       0.00000000     -0.606999993       1071.90137       1.65561640    
  -1.87709999       0.00000000     -0.606999993       1071.90137       1.65561640    
  -1.84103203      0.366203994     -0.606999993       715.491943       1.75854778    
  -2.54972792      0.507171988     -0.517000020       715.491943       1.75854778    
  -2.40179110      0.994853973     -0.517000020       715.491943       1.75854778    
  -1.73421395      0.718334973     -0.606999993       715.491943       1.75854778    
  -1.73421395      0.718334973     -0.606999993       1030.02393       1.65556180    
  -1.26109600      0.522363007     -0.606999993       1030.02393       1.65556180    
  -1.33877206      0.266297996     -0.606999993       1030.02393       1.65556180    
  -1.84103203      0.366203994     -0.606999993       1030.02393       1.65556180    
  -1.73421395      0.718334973     -0.606999993       655.277100       1.75915253    
  -2.40179110      0.994853973     -0.517000020       655.277100       1.75915253    
  -2.16155505       1.44430494     -0.517000020       655.277100       1.75915253    
  -1.56075203       1.04286098     -0.606999993       655.277100       1.75915253    
  -1.56075203       1.04286098     -0.606999993       947.730713       1.65549362    
  -1.13495600      0.758352995     -0.606999993       947.730713       1.65549362    
  -1.26109600      0.522363007     -0.606999993       947.730713       1.65549362    
  -1.73421395      0.718334973     -0.606999993       947.730713       1.65549362    
  -1.56075203       1.04286098     -0.606999993       571.407593       1.75961113    
  -2.16155505       1.44430494     -0.517000020       571.407593       1.75961113    
  -1.83825099       1.83825099     -0.517000020       571.407593       1.75961113    
  -1.32730997       1.32730997     -0.606999993       571.407593       1.75961113    
  -1.32730997       1.32730997     -0.606999993       830.536133       1.65542614    
 -0.965201020      0.965201020     -0.606999993       830.536133       1.65542614    
  -1.13495600      0.758352995     -0.606999993       830.536133       1.65542614    
  -1.56075203       1.04286098     -0.606999993       830.536133       1.65542614    
  -1.32730997       1.32730997     -0.606999993       471.355530       1.75902998    
  -1.83825099       1.83825099     -0.517000020       471.355530       1.75902998    
  -1.44430494       2.16155505     -0.517000020       471.355530       1.75902998    
  -1.04286098       1.56075203     -0.606999993       471.355530       1.75902998    
  -1.04286098       1.56075203     -0.606999993       684.603577       1.65536129    
 -0.758352995       1.13495600     -0.606999993       684.603577       1.65536129    
 -0.965201020      0.965201020     -0.606999993       684.603577       1.65536129    
  -1.32730997       1.32730997     -0.606999993       684.603577       1.65536129    
  -1.04286098       1.56075203     -0.606999993       357.437897       1.75701320    
  -1.44430494       2.16155505     -0.517000020       357.437897       1.75701320    
 -0.994853973       2.40179110     -0.517000020       357.437897       1.75701320    
 -0.718334973       1.73421395     -0.606999993       357.437897       1.75701320    
 -0.718334973       1.73421395     -0.606999993       513.977478       1.65530920    
 -0.522363007       1.26109600     -0.606999993       513.977478       1.65530920    
 -0.758352995       1.13495600     -0.606999993       513.977478       1.65530920    
  -1.04286098       1.56075203     -0.606999993       513.977478       1.65530920    
 -0.718334973       1.73421395     -0.606999993       227.503357       1.75379622    
 -0.994853973       2.40179110     -0.517000020       227.503357       1.75379622    
 -0.507171988       2.54972792     -0.517000020       227.503357       1.75379622    
 -0.366203994       1.84103203     -0.606999993       227.503357       1.75379622    
 -0.366203994       1.84103203     -0.606999993       322.029694       1.65515649    
 -0.266297996       1.33877206     -0.606999993       322.029694       1.65515649    
 -0.522363007       1.26109600     -0.606999993       322.029694       1.65515649    
 -0.718334973       1.73421395     -0.606999993       322.029694       1.65515649    
 -0.366203994       1.84103203     -0.606999993       80.8585434       1.74849975    
 -0.507171988       2.54972792     -0.517000020       80.8585434       1.74849975    
   0.00000000       2.59967995     -0.517000020       80.8585434       1.74849975    
   0.00000000       1.87709999     -0.606999993       80.8585434       1.74849975    
   0.00000000       1.87709999     -0.606999993       113.890808       1.65426934    
   0.00000000       1.36500001     -0.606999993       113.890808       1.65426934    
 -0.266297996       1.33877206     -0.606999993       113.890808       1.65426934    
 -0.366203994       1.84103203     -0.606999993       113.890808       1.65426934    
   0.00000000       1.87709999     -0.606999993       72.9371109      -1.38116777    
   0.00000000       2.59967995     -0.517000020       72.9371109      -1.38116777    
  0.507171988       2.54972792     -0.517000020       72.9371109      -1.38116777    
  0.366203994       1.84103203     -0.606999993       72.9371109      -1.38116777    
  0.366203994       1.84103203     -0.606999993       100.485138      -1.48422003    
  0.266297996       1.33877206     -0.606999993       100.485138      -1.48422003    
   0.00000000       1.36500001     -0.606999993       100.485138      -1.48422003    
   0.00000000       1.87709999     -0.606999993       100.485138      -1.48422003    
  0.366203994       1.84103203     -0.606999993       219.940765      -1.38384104    
  0.507171988       2.54972792     -0.517000020       219.940765      -1.38384104    
  0.994853973       2.40179110     -0.517000020       219.940765      -1.38384104    
  0.718334973       1.73421395     -0.606999993       219.940765      -1.38384104    
  0.718334973       1.73421395     -0.606999993       309.187744      -1.48541200    
  0.522363007       1.26109600     -0.606999993       309.187744      -1.48541200    
  0.266297996       1.33877206     -0.606999993       309.187744      -1.48541200    
  0.366203994       1.84103203     -0.606999993       309.187744      -1.48541200    
  0.718334973       1.73421395     -0.606999993       350.510284      -1.38223147    
  0.994853973       2.40179110     -0.517000020       350.510284      -1.38223147    
   1.44430494       2.16155505     -0.517000020       350.510284      -1.38223147    
   1.04286098       1.56075203     -0.606999993       350.510284      -1.38223147    
   1.04286098       1.56075203     -0.606999993       502.260956      -1.48570132    
  0.758352995       1.13495600     -0.606999993       502.260956      -1.48570132    
  0.522363007       1.26109600     -0.606999993       502.260956      -1.48570132    
  0.718334973       1.73421395     -0.606999993       502.260956      -1.48570132    
   1.04286098       1.56075203     -0.606999993       465.315826      -1.38096523    
   1.44430494       2.16155505     -0.517000020       465.315826      -1.38096523    
   1.83825099       1.83825099     -0.517000020       465.315826      -1.38096523    
   1.32730997       1.32730997     -0.606999993       465.315826      -1.38096523    
   1.32730997       1.32730997     -0.606999993       674.468201      -1.48583484    
  0.965201020      0.965201020     -0.606999993       674.468201      -1.48583484    
  0.758352995       1.13495600     -0.606999993       674.468201      -1.48583484    
   1.04286098       1.56075203     -0.606999993       674.468201      -1.48583484    
   1.32730997       1.32730997     -0.606999993       566.458008      -1.38083994    
   1.83825099       1.83825099     -0.517000020       566.458008      -1.38083994    
   2.16155505       1.44430494     -0.517000020       566.458008      -1.38083994    
   1.56075203       1.04286098     -0.606999993       566.458008      -1.38083994    
   1.56075203       1.04286098     -0.606999993       822.345398      -1.48586345    
   1.13495600      0.758352995     -0.606999993       822.345398      -1.48586345    
  0.965201020      0.965201020     -0.606999993       822.345398      -1.48586345    
   1.32730997       1.32730997     -0.606999993       822.345398      -1.48586345    
   1.56075203       1.04286098     -0.606999993       651.559387      -1.38159072    
   2.16155505       1.44430494     -0.517000020       651.559387      -1.38159072    
   2.40179110      0.994853973     -0.517000020       651.559387      -1.38159072    
   1.73421395      0.718334973     -0.606999993       651.559387      -1.38159072    
   1.73421395      0.718334973     -0.606999993       941.493896      -1.48580778    
   1.26109600      0.522363007     -0.606999993       941.493896      -1.48580778    
   1.13495600      0.758352995     -0.606999993       941.493896      -1.48580778    
   1.56075203       1.04286098     -0.606999993       941.493896      -1.48580778    
   1.73421395      0.718334973     -0.606999993       713.107788      -1.38239479    
   2.40179110      0.994853973     -0.517000020       713.107788      -1.38239479    
   2.54972792      0.507171988     -0.517000020       713.107788      -1.38239479    
   1.84103203      0.366203994     -0.606999993       713.107788      -1.38239479    
   1.84103203      0.366203994     -0.606999993       1025.95923      -1.48574412    
   1.33877206      0.266297996     -0.606999993       1025.95923      -1.48574412    
   1.26109600      0.522363007     -0.606999993       1025.95923      -1.48574412    
   1.73421395      0.718334973     -0.606999993       1025.95923      -1.48574412    
   1.84103203      0.366203994     -0.606999993       745.185059      -1.38283956    
   2.54972792      0.507171988     -0.517000020       745.185059      -1.38283956    
   2.59967995       0.00000000     -0.517000020       745.185059      -1.38283956    
   1.87709999       0.00000000     -0.606999993       745.185059      -1.38283956    
   1.87709999       0.00000000     -0.606999993       1070.21436      -1.48570049    
   1.36500001       0.00000000     -0.606999993       1070.21436      -1.48570049    
   1.33877206      0.266297996     -0.606999993       1070.21436      -1.48570049    
   1.84103203      0.366203994     -0.606999993       1070.21436      -1.48570049    
   1.87709999       0.00000000     -0.606999993       745.315247      -1.38281965    
   2.59967995       0.00000000     -0.517000020       745.315247      -1.38281965    
   2.54972792     -0.507171988     -0.517000020       745.315247      -1.38281965    
   1.84103203     -0.366203994     -0.606999993       745.315247      -1.38281965    
   1.84103203     -0.366203994     -0.606999993       1070.98669      -1.48566961    
   1.33877206     -0.266297996     -0.606999993       1070.98669      -1.48566961    
   1.36500001       0.00000000     -0.606999993       1070.98669      -1.48566961    
   1.87709999       0.00000000     -0.606999993       1070.98669      -1.48566961    
   1.84103203     -0.366203994     -0.606999993       713.732605      -1.38237238    
   2.54972792     -0.507171988     -0.517000020       713.732605      -1.38237238    
   2.40179110     -0.994853973     -0.517000020       713.732605      -1.38237238    
   1.73421395     -0.718334973     -0.606999993       713.732605      -1.38237238    
   1.73421395     -0.718334973     -0.606999993       1028.52234      -1.48565149    
   1.26109600     -0.522363007     -0.606999993       1028.52234      -1.48565149    
   1.33877206     -0.266297996     -0.606999993       1028.52234      -1.48565149    
   1.84103203     -0.366203994     -0.606999993       1028.52234      -1.48565149    
   1.73421395     -0.718334973     -0.606999993       653.475830      -1.38170218    
   2.40179110     -0.994853973     -0.517000020       653.475830      -1.38170218    
   2.16155505      -1.44430494     -0.517000020       653.475830      -1.38170218    
   1.56075203      -1.04286098     -0.606999993       653.475830      -1.38170218    
   1.56075203      -1.04286098     -0.606999993       946.338013      -1.48564005    
   1.13495600     -0.758352995     -0.606999993       946.338013      -1.48564005    
   1.26109600     -0.522363007     -0.606999993       946.338013      -1.48564005    