 VARIABLES="X" "Y" "Z" "abs(p) (Pa)" "angle(p) (rad)"
ZONE N=   2709,E =    2358, F=FEPOINT, ET=QUADRILATERAL
   0.00000000      -5.48999977     -0.157000005       2.63734460      -1.21817911    
   0.00000000      -4.76741982     -0.246999994       2.63734460      -1.21817911    
  0.930077016      -4.67581606     -0.246999994       2.63734460      -1.21817911    
   1.07104599      -5.38451099     -0.157000005       2.63734460      -1.21817911    
  -1.07104599      -5.38451099     -0.157000005       2.59372377       1.89769161    
 -0.930077016      -4.67581606     -0.246999994       2.59372377       1.89769161    
   0.00000000      -4.76741982     -0.246999994       2.59372377       1.89769161    
   0.00000000      -5.48999977     -0.157000005       2.59372377       1.89769161    
  -2.10093188      -5.07209921     -0.157000005       5.12941551       1.95749819    
  -1.82441294      -4.40452194     -0.246999994       5.12941551       1.95749819    
 -0.930077016      -4.67581606     -0.246999994       5.12941551       1.95749819    
  -1.07104599      -5.38451099     -0.157000005       5.12941551       1.95749819    
  -3.05008101      -4.56476784     -0.157000005       2.88011837       2.23921967    
  -2.64863706      -3.96396494     -0.246999994       2.88011837       2.23921967    
  -1.82441294      -4.40452194     -0.246999994       2.88011837       2.23921967    
  -2.10093188      -5.07209921     -0.157000005       2.88011837       2.23921967    
  -3.88201594      -3.88201594     -0.157000005       2.07215333      -1.78948569    
  -3.37107491      -3.37107491     -0.246999994       2.07215333      -1.78948569    
  -2.64863706      -3.96396494     -0.246999994       2.07215333      -1.78948569    
  -3.05008101      -4.56476784     -0.157000005       2.07215333      -1.78948569    
  -4.56476784      -3.05008101     -0.157000005       3.82408452      -1.27492881    
  -3.96396494      -2.64863706     -0.246999994       3.82408452      -1.27492881    
  -3.37107491      -3.37107491     -0.246999994       3.82408452      -1.27492881    
  -3.88201594      -3.88201594     -0.157000005       3.82408452      -1.27492881    
  -5.07209921      -2.10093188     -0.157000005       2.54353499     -0.550678670    
  -4.40452194      -1.82441294     -0.246999994       2.54353499     -0.550678670    
  -3.96396494      -2.64863706     -0.246999994       2.54353499     -0.550678670    
  -4.56476784      -3.05008101     -0.157000005       2.54353499     -0.550678670    
  -5.38451099      -1.07104599     -0.157000005       2.78499484      0.550233483    
  -4.67581606     -0.930077016     -0.246999994       2.78499484      0.550233483    
  -4.40452194      -1.82441294     -0.246999994       2.78499484      0.550233483    
  -5.07209921      -2.10093188     -0.157000005       2.78499484      0.550233483    
  -5.48999977       0.00000000     -0.157000005       2.16228676      0.488817960    
  -4.76741982       0.00000000     -0.246999994       2.16228676      0.488817960    
  -4.67581606     -0.930077016     -0.246999994       2.16228676      0.488817960    
  -5.38451099      -1.07104599     -0.157000005       2.16228676      0.488817960    
  -5.38451099       1.07104599     -0.157000005       1.97543502     -0.938321233    
  -4.67581606      0.930077016     -0.246999994       1.97543502     -0.938321233    
  -4.76741982       0.00000000     -0.246999994       1.97543502     -0.938321233    
  -5.48999977       0.00000000     -0.157000005       1.97543502     -0.938321233    
  -5.07209921       2.10093188     -0.157000005       2.75428462      -1.45244503    
  -4.40452194       1.82441294     -0.246999994       2.75428462      -1.45244503    
  -4.67581606      0.930077016     -0.246999994       2.75428462      -1.45244503    
  -5.38451099       1.07104599     -0.157000005       2.75428462      -1.45244503    
  -4.56476784       3.05008101     -0.157000005      0.463106394      -2.48768783    
  -3.96396494       2.64863706     -0.246999994      0.463106394      -2.48768783    
  -4.40452194       1.82441294     -0.246999994      0.463106394      -2.48768783    
  -5.07209921       2.10093188     -0.157000005      0.463106394      -2.48768783    
  -3.88201594       3.88201594     -0.157000005       2.99392557       1.78167248    
  -3.37107491       3.37107491     -0.246999994       2.99392557       1.78167248    
  -3.96396494       2.64863706     -0.246999994       2.99392557       1.78167248    
  -4.56476784       3.05008101     -0.157000005       2.99392557       1.78167248    
  -3.05008101       4.56476784     -0.157000005       2.99231315       1.66924870    
  -2.64863706       3.96396494     -0.246999994       2.99231315       1.66924870    
  -3.37107491       3.37107491     -0.246999994       2.99231315       1.66924870    
  -3.88201594       3.88201594     -0.157000005       2.99231315       1.66924870    
  -2.10093188       5.07209921     -0.157000005      0.927574456      -1.25777149    
  -1.82441294       4.40452194     -0.246999994      0.927574456      -1.25777149    
  -2.64863706       3.96396494     -0.246999994      0.927574456      -1.25777149    
  -3.05008101       4.56476784     -0.157000005      0.927574456      -1.25777149    
  -1.07104599       5.38451099     -0.157000005       3.86105299      -1.42338800    
 -0.930077016       4.67581606     -0.246999994       3.86105299      -1.42338800    
  -1.82441294       4.40452194     -0.246999994       3.86105299      -1.42338800    
  -2.10093188       5.07209921     -0.157000005       3.86105299      -1.42338800    
   0.00000000       5.48999977     -0.157000005       2.01772976      -1.41487622    
   0.00000000       4.76741982     -0.246999994       2.01772976      -1.41487622    
 -0.930077016       4.67581606     -0.246999994       2.01772976      -1.41487622    
  -1.07104599       5.38451099     -0.157000005       2.01772976      -1.41487622    
   1.07104599       5.38451099     -0.157000005       1.97518182       1.69108808    
  0.930077016       4.67581606     -0.246999994       1.97518182       1.69108808    
   0.00000000       4.76741982     -0.246999994       1.97518182       1.69108808    
   0.00000000       5.48999977     -0.157000005       1.97518182       1.69108808    
   2.10093188       5.07209921     -0.157000005       3.87143803       1.70748341    
   1.82441294       4.40452194     -0.246999994       3.87143803       1.70748341    
  0.930077016       4.67581606     -0.246999994       3.87143803       1.70748341    
   1.07104599       5.38451099     -0.157000005       3.87143803       1.70748341    
   3.05008101       4.56476784     -0.157000005      0.901534259       1.84423459    
   2.64863706       3.96396494     -0.246999994      0.901534259       1.84423459    
   1.82441294       4.40452194     -0.246999994      0.901534259       1.84423459    
   2.10093188       5.07209921     -0.157000005      0.901534259       1.84423459    
   3.88201594       3.88201594     -0.157000005       3.04832959      -1.46517658    
   3.37107491       3.37107491     -0.246999994       3.04832959      -1.46517658    
   2.64863706       3.96396494     -0.246999994       3.04832959      -1.46517658    
   3.05008101       4.56476784     -0.157000005       3.04832959      -1.46517658    
   4.56476784       3.05008101     -0.157000005       3.05393553      -1.35904825    
   3.96396494       2.64863706     -0.246999994       3.05393553      -1.35904825    
   3.37107491       3.37107491     -0.246999994       3.05393553      -1.35904825    
   3.88201594       3.88201594     -0.157000005       3.05393553      -1.35904825    
   5.07209921       2.10093188     -0.157000005      0.464444906      0.561571300    
   4.40452194       1.82441294     -0.246999994      0.464444906      0.561571300    
   3.96396494       2.64863706     -0.246999994      0.464444906      0.561571300    
   4.56476784       3.05008101     -0.157000005      0.464444906      0.561571300    
   5.38451099       1.07104599     -0.157000005       2.77045059       1.68324232    
   4.67581606      0.930077016     -0.246999994       2.77045059       1.68324232    
   4.40452194       1.82441294     -0.246999994       2.77045059       1.68324232    
   5.07209921       2.10093188     -0.157000005       2.77045059       1.68324232    
   5.48999977       0.00000000     -0.157000005       2.02072239       2.19871688    
   4.76741982       0.00000000     -0.246999994       2.02072239       2.19871688    
   4.67581606      0.930077016     -0.246999994       2.02072239       2.19871688    
   5.38451099       1.07104599     -0.157000005       2.02072239       2.19871688    
   5.38451099      -1.07104599     -0.157000005       2.21506500      -2.65479302    
   4.67581606     -0.930077016     -0.246999994       2.21506500      -2.65479302    
   4.76741982       0.00000000     -0.246999994       2.21506500      -2.65479302    
   5.48999977       0.00000000     -0.157000005       2.21506500      -2.65479302    
   5.07209921      -2.10093188     -0.157000005       2.82090878      -2.58843684    
   4.40452194      -1.82441294     -0.246999994       2.82090878      -2.58843684    
   4.67581606     -0.930077016     -0.246999994       2.82090878      -2.58843684    
   5.38451099      -1.07104599     -0.157000005       2.82090878      -2.58843684    
   4.56476784      -3.05008101     -0.157000005       2.57149601       2.62175322    
   3.96396494      -2.64863706     -0.246999994       2.57149601       2.62175322    
   4.40452194      -1.82441294     -0.246999994       2.57149601       2.62175322    
   5.07209921      -2.10093188     -0.157000005       2.57149601       2.62175322    
   3.88201594      -3.88201594     -0.157000005       3.83139038       1.90006745    
   3.37107491      -3.37107491     -0.246999994       3.83139038       1.90006745    
   3.96396494      -2.64863706     -0.246999994       3.83139038       1.90006745    
   4.56476784      -3.05008101     -0.157000005       3.83139038       1.90006745    
   3.05008101      -4.56476784     -0.157000005       2.02523637       1.40359366    
   2.64863706      -3.96396494     -0.246999994       2.02523637       1.40359366    
   3.37107491      -3.37107491     -0.246999994       2.02523637       1.40359366    
   3.88201594      -3.88201594     -0.157000005       2.02523637       1.40359366    
   2.10093188      -5.07209921     -0.157000005       2.84095597     -0.910728753    
   1.82441294      -4.40452194     -0.246999994       2.84095597     -0.910728753    
   2.64863706      -3.96396494     -0.246999994       2.84095597     -0.910728753    
   3.05008101      -4.56476784     -0.157000005       2.84095597     -0.910728753    
   1.07104599      -5.38451099     -0.157000005       5.17718220      -1.17074692    
  0.930077016      -4.67581606     -0.246999994       5.17718220      -1.17074692    
   1.82441294      -4.40452194     -0.246999994       5.17718220      -1.17074692    
   2.10093188      -5.07209921     -0.157000005       5.17718220      -1.17074692    
   0.00000000      -1.87709999     -0.606999993       5.93295622      -1.57135260    
   0.00000000      -1.36500001     -0.606999993       5.93295622      -1.57135260    
  0.266297996      -1.33877206     -0.606999993       5.93295622      -1.57135260    
  0.366203994      -1.84103203     -0.606999993       5.93295622      -1.57135260    
   0.00000000      -1.87709999     -0.606999993       11.2762289       1.57029402    
   0.00000000      -2.59967995     -0.517000020       11.2762289       1.57029402    
 -0.507171988      -2.54972792     -0.517000020       11.2762289       1.57029402    
 -0.366203994      -1.84103203     -0.606999993       11.2762289       1.57029402    
 -0.366203994      -1.84103203     -0.606999993      0.410219908       1.50229549    
 -0.266297996      -1.33877206     -0.606999993      0.410219908       1.50229549    
   0.00000000      -1.36500001     -0.606999993      0.410219908       1.50229549    
   0.00000000      -1.87709999     -0.606999993      0.410219908       1.50229549    
 -0.366203994      -1.84103203     -0.606999993       21.8514748       1.57029414    
 -0.507171988      -2.54972792     -0.517000020       21.8514748       1.57029414    
 -0.994853973      -2.40179110     -0.517000020       21.8514748       1.57029414    
 -0.718334973      -1.73421395     -0.606999993       21.8514748       1.57029414    
 -0.718334973      -1.73421395     -0.606999993       1.14517307       1.52135348    
 -0.522363007      -1.26109600     -0.606999993       1.14517307       1.52135348    
 -0.266297996      -1.33877206     -0.606999993       1.14517307       1.52135348    
 -0.366203994      -1.84103203     -0.606999993       1.14517307       1.52135348    
 -0.718334973      -1.73421395     -0.606999993       5.13303852       1.56428552    
 -0.994853973      -2.40179110     -0.517000020       5.13303852       1.56428552    
  -1.44430494      -2.16155505     -0.517000020       5.13303852       1.56428552    
  -1.04286098      -1.56075203     -0.606999993       5.13303852       1.56428552    
  -1.04286098      -1.56075203     -0.606999993       8.84623432      -1.56080949    
 -0.758352995      -1.13495600     -0.606999993       8.84623432      -1.56080949    
 -0.522363007      -1.26109600     -0.606999993       8.84623432      -1.56080949    
 -0.718334973      -1.73421395     -0.606999993       8.84623432      -1.56080949    
  -1.04286098      -1.56075203     -0.606999993       21.4307556      -1.56722605    
  -1.44430494      -2.16155505     -0.517000020       21.4307556      -1.56722605    
  -1.83825099      -1.83825099     -0.517000020       21.4307556      -1.56722605    
  -1.32730997      -1.32730997     -0.606999993       21.4307556      -1.56722605    
  -1.32730997      -1.32730997     -0.606999993       22.0858212      -1.56544089    
 -0.965201020     -0.965201020     -0.606999993       22.0858212      -1.56544089    
 -0.758352995      -1.13495600     -0.606999993       22.0858212      -1.56544089    
  -1.04286098      -1.56075203     -0.606999993       22.0858212      -1.56544089    
  -1.32730997      -1.32730997     -0.606999993       31.0285053      -1.56667757    
  -1.83825099      -1.83825099     -0.517000020       31.0285053      -1.56667757    
  -2.16155505      -1.44430494     -0.517000020       31.0285053      -1.56667757    
  -1.56075203      -1.04286098     -0.606999993       31.0285053      -1.56667757    
  -1.56075203      -1.04286098     -0.606999993       26.9099979      -1.56529331    
  -1.13495600     -0.758352995     -0.606999993       26.9099979      -1.56529331    
 -0.965201020     -0.965201020     -0.606999993       26.9099979      -1.56529331    
  -1.32730997      -1.32730997     -0.606999993       26.9099979      -1.56529331    
  -1.56075203      -1.04286098     -0.606999993       16.7088852      -1.56078291    
  -2.16155505      -1.44430494     -0.517000020       16.7088852      -1.56078291    
  -2.40179110     -0.994853973     -0.517000020       16.7088852      -1.56078291    
  -1.73421395     -0.718334973     -0.606999993       16.7088852      -1.56078291    
  -1.73421395     -0.718334973     -0.606999993       19.8418770      -1.56248963    
  -1.26109600     -0.522363007     -0.606999993       19.8418770      -1.56248963    
  -1.13495600     -0.758352995     -0.606999993       19.8418770      -1.56248963    
  -1.56075203      -1.04286098     -0.606999993       19.8418770      -1.56248963    
  -1.73421395     -0.718334973     -0.606999993       1.94864535       1.47653425    
  -2.40179110     -0.994853973     -0.517000020       1.94864535       1.47653425    
  -2.54972792     -0.507171988     -0.517000020       1.94864535       1.47653425    
  -1.84103203     -0.366203994     -0.606999993       1.94864535       1.47653425    
  -1.84103203     -0.366203994     -0.606999993       8.64553738      -1.55209363    
  -1.33877206     -0.266297996     -0.606999993       8.64553738      -1.55209363    
  -1.26109600     -0.522363007     -0.606999993       8.64553738      -1.55209363    
  -1.73421395     -0.718334973     -0.606999993       8.64553738      -1.55209363    
  -1.84103203     -0.366203994     -0.606999993       3.37204385       1.51969612    
  -2.54972792     -0.507171988     -0.517000020       3.37204385       1.51969612    
  -2.59967995       0.00000000     -0.517000020       3.37204385       1.51969612    
  -1.87709999       0.00000000     -0.606999993       3.37204385       1.51969612    
  -1.87709999       0.00000000     -0.606999993       2.30793500      -1.50966787    
  -1.36500001       0.00000000     -0.606999993       2.30793500      -1.50966787    
  -1.33877206     -0.266297996     -0.606999993       2.30793500      -1.50966787    
  -1.84103203     -0.366203994     -0.606999993       2.30793500      -1.50966787    
  -1.87709999       0.00000000     -0.606999993       9.12653446      -1.55583262    
  -2.59967995       0.00000000     -0.517000020       9.12653446      -1.55583262    
  -2.54972792      0.507171988     -0.517000020       9.12653446      -1.55583262    
  -1.84103203      0.366203994     -0.606999993       9.12653446      -1.55583262    
  -1.84103203      0.366203994     -0.606999993      0.807514250      -1.44138491    
  -1.33877206      0.266297996     -0.606999993      0.807514250      -1.44138491    
  -1.36500001       0.00000000     -0.606999993      0.807514250      -1.44138491    
  -1.87709999       0.00000000     -0.606999993      0.807514250      -1.44138491    
  -1.84103203      0.366203994     -0.606999993       12.6149120      -1.56359410    
  -2.54972792      0.507171988     -0.517000020       12.6149120      -1.56359410    
  -2.40179110      0.994853973     -0.517000020       12.6149120      -1.56359410    
  -1.73421395      0.718334973     -0.606999993       12.6149120      -1.56359410    
  -1.73421395      0.718334973     -0.606999993       3.19874668       1.55124044    
  -1.26109600      0.522363007     -0.606999993       3.19874668       1.55124044    
  -1.33877206      0.266297996     -0.606999993       3.19874668       1.55124044    
  -1.84103203      0.366203994     -0.606999993       3.19874668       1.55124044    
  -1.73421395      0.718334973     -0.606999993       3.96133351       1.55878210    
  -2.40179110      0.994853973     -0.517000020       3.96133351       1.55878210    
  -2.16155505       1.44430494     -0.517000020       3.96133351       1.55878210    
  -1.56075203       1.04286098     -0.606999993       3.96133351       1.55878210    
  -1.56075203       1.04286098     -0.606999993       12.7424488       1.56898010    
  -1.13495600      0.758352995     -0.606999993       12.7424488       1.56898010    
  -1.26109600      0.522363007     -0.606999993       12.7424488       1.56898010    
  -1.73421395      0.718334973     -0.606999993       12.7424488       1.56898010    
  -1.56075203       1.04286098     -0.606999993       23.4528198       1.57006454    
  -2.16155505       1.44430494     -0.517000020       23.4528198       1.57006454    
  -1.83825099       1.83825099     -0.517000020       23.4528198       1.57006454    
  -1.32730997       1.32730997     -0.606999993       23.4528198       1.57006454    
  -1.32730997       1.32730997     -0.606999993       21.1045723       1.57102871    
 -0.965201020      0.965201020     -0.606999993       21.1045723       1.57102871    
  -1.13495600      0.758352995     -0.606999993       21.1045723       1.57102871    
  -1.56075203       1.04286098     -0.606999993       21.1045723       1.57102871    
  -1.32730997       1.32730997     -0.606999993       22.1673717       1.57063651    
  -1.83825099       1.83825099     -0.517000020       22.1673717       1.57063651    
  -1.44430494       2.16155505     -0.517000020       22.1673717       1.57063651    
  -1.04286098       1.56075203     -0.606999993       22.1673717       1.57063651    
  -1.04286098       1.56075203     -0.606999993       19.4312248       1.57176137    
 -0.758352995       1.13495600     -0.606999993       19.4312248       1.57176137    
 -0.965201020      0.965201020     -0.606999993       19.4312248       1.57176137    
  -1.32730997       1.32730997     -0.606999993       19.4312248       1.57176137    
  -1.04286098       1.56075203     -0.606999993      0.395344287       1.56379294    
  -1.44430494       2.16155505     -0.517000020      0.395344287       1.56379294    
 -0.994853973       2.40179110     -0.517000020      0.395344287       1.56379294    
 -0.718334973       1.73421395     -0.606999993      0.395344287       1.56379294    
 -0.718334973       1.73421395     -0.606999993       8.41839600       1.57297325    
 -0.522363007       1.26109600     -0.606999993       8.41839600       1.57297325    
 -0.758352995       1.13495600     -0.606999993       8.41839600       1.57297325    
  -1.04286098       1.56075203     -0.606999993       8.41839600       1.57297325    
 -0.718334973       1.73421395     -0.606999993       17.0136299      -1.57045841    
 -0.994853973       2.40179110     -0.517000020       17.0136299      -1.57045841    
 -0.507171988       2.54972792     -0.517000020       17.0136299      -1.57045841    
 -0.366203994       1.84103203     -0.606999993       17.0136299      -1.57045841    
 -0.366203994       1.84103203     -0.606999993       1.99632955      -1.57421088    
 -0.266297996       1.33877206     -0.606999993       1.99632955      -1.57421088    
 -0.522363007       1.26109600     -0.606999993       1.99632955      -1.57421088    
 -0.718334973       1.73421395     -0.606999993       1.99632955      -1.57421088    
 -0.366203994       1.84103203     -0.606999993       10.8229847      -1.56983840    
 -0.507171988       2.54972792     -0.517000020       10.8229847      -1.56983840    
   0.00000000       2.59967995     -0.517000020       10.8229847      -1.56983840    
   0.00000000       1.87709999     -0.606999993       10.8229847      -1.56983840    
   0.00000000       1.87709999     -0.606999993       3.90305042      -1.56789839    
   0.00000000       1.36500001     -0.606999993       3.90305042      -1.56789839    
 -0.266297996       1.33877206     -0.606999993       3.90305042      -1.56789839    
 -0.366203994       1.84103203     -0.606999993       3.90305042      -1.56789839    
   0.00000000       1.87709999     -0.606999993       8.77908325       1.56943369    
   0.00000000       2.59967995     -0.517000020       8.77908325       1.56943369    
  0.507171988       2.54972792     -0.517000020       8.77908325       1.56943369    
  0.366203994       1.84103203     -0.606999993       8.77908325       1.56943369    
  0.366203994       1.84103203     -0.606999993      0.694093704      -1.52975261    
  0.266297996       1.33877206     -0.606999993      0.694093704      -1.52975261    
   0.00000000       1.36500001     -0.606999993      0.694093704      -1.52975261    
   0.00000000       1.87709999     -0.606999993      0.694093704      -1.52975261    
  0.366203994       1.84103203     -0.606999993       15.1887817       1.56987429    
  0.507171988       2.54972792     -0.517000020       15.1887817       1.56987429    
  0.994853973       2.40179110     -0.517000020       15.1887817       1.56987429    
  0.718334973       1.73421395     -0.606999993       15.1887817       1.56987429    
  0.718334973       1.73421395     -0.606999993       2.09089375      -1.55108333    
  0.522363007       1.26109600     -0.606999993       2.09089375      -1.55108333    
  0.266297996       1.33877206     -0.606999993       2.09089375      -1.55108333    
  0.366203994       1.84103203     -0.606999993       2.09089375      -1.55108333    
  0.718334973       1.73421395     -0.606999993       1.83218241      -1.56289494    
  0.994853973       2.40179110     -0.517000020       1.83218241      -1.56289494    
   1.44430494       2.16155505     -0.517000020       1.83218241      -1.56289494    
   1.04286098       1.56075203     -0.606999993       1.83218241      -1.56289494    
   1.04286098       1.56075203     -0.606999993       11.5211411      -1.56711352    
  0.758352995       1.13495600     -0.606999993       11.5211411      -1.56711352    
  0.522363007       1.26109600     -0.606999993       11.5211411      -1.56711352    
  0.718334973       1.73421395     -0.606999993       11.5211411      -1.56711352    
   1.04286098       1.56075203     -0.606999993       23.1043949      -1.57056546    
   1.44430494       2.16155505     -0.517000020       23.1043949      -1.57056546    
   1.83825099       1.83825099     -0.517000020       23.1043949      -1.57056546    
   1.32730997       1.32730997     -0.606999993       23.1043949      -1.57056546    
   1.32730997       1.32730997     -0.606999993       21.2060242      -1.56933403    
  0.965201020      0.965201020     -0.606999993       21.2060242      -1.56933403    
  0.758352995       1.13495600     -0.606999993       21.2060242      -1.56933403    
   1.04286098       1.56075203     -0.606999993       21.2060242      -1.56933403    
   1.32730997       1.32730997     -0.606999993       23.7972546      -1.57143855    
   1.83825099       1.83825099     -0.517000020       23.7972546      -1.57143855    
   2.16155505       1.44430494     -0.517000020       23.7972546      -1.57143855    
   1.56075203       1.04286098     -0.606999993       23.7972546      -1.57143855    
   1.56075203       1.04286098     -0.606999993       21.3744278      -1.57064021    
   1.13495600      0.758352995     -0.606999993       21.3744278      -1.57064021    
  0.965201020      0.965201020     -0.606999993       21.3744278      -1.57064021    
   1.32730997       1.32730997     -0.606999993       21.3744278      -1.57064021    
   1.56075203       1.04286098     -0.606999993       3.64708424      -1.58541667    
   2.16155505       1.44430494     -0.517000020       3.64708424      -1.58541667    
   2.40179110      0.994853973     -0.517000020       3.64708424      -1.58541667    
   1.73421395      0.718334973     -0.606999993       3.64708424      -1.58541667    
   1.73421395      0.718334973     -0.606999993       11.5781002      -1.57430279    
   1.26109600      0.522363007     -0.606999993       11.5781002      -1.57430279    
   1.13495600      0.758352995     -0.606999993       11.5781002      -1.57430279    
   1.56075203       1.04286098     -0.606999993       11.5781002      -1.57430279    
   1.73421395      0.718334973     -0.606999993       13.5121632       1.57831919    
   2.40179110      0.994853973     -0.517000020       13.5121632       1.57831919    
   2.54972792      0.507171988     -0.517000020       13.5121632       1.57831919    
   1.84103203      0.366203994     -0.606999993       13.5121632       1.57831919    
   1.84103203      0.366203994     -0.606999993      0.903686881      -1.67092049    
   1.33877206      0.266297996     -0.606999993      0.903686881      -1.67092049    
   1.26109600      0.522363007     -0.606999993      0.903686881      -1.67092049    
   1.73421395      0.718334973     -0.606999993      0.903686881      -1.67092049    
   1.84103203      0.366203994     -0.606999993       10.3913126       1.58530736    
   2.54972792      0.507171988     -0.517000020       10.3913126       1.58530736    
   2.59967995       0.00000000     -0.517000020       10.3913126       1.58530736    
   1.87709999       0.00000000     -0.606999993       10.3913126       1.58530736    
   1.87709999       0.00000000     -0.606999993       3.74553466       1.60876405    
   1.36500001       0.00000000     -0.606999993       3.74553466       1.60876405    
   1.33877206      0.266297996     -0.606999993       3.74553466       1.60876405    
   1.84103203      0.366203994     -0.606999993       3.74553466       1.60876405    
   1.87709999       0.00000000     -0.606999993       2.02723312      -1.66413093    
   2.59967995       0.00000000     -0.517000020       2.02723312      -1.66413093    
   2.54972792     -0.507171988     -0.517000020       2.02723312      -1.66413093    
   1.84103203     -0.366203994     -0.606999993       2.02723312      -1.66413093    
   1.84103203     -0.366203994     -0.606999993       5.30386639       1.60456955    
   1.33877206     -0.266297996     -0.606999993       5.30386639       1.60456955    
   1.36500001       0.00000000     -0.606999993       5.30386639       1.60456955    
   1.87709999       0.00000000     -0.606999993       5.30386639       1.60456955    
   1.84103203     -0.366203994     -0.606999993      0.793119609      -1.82865644    
   2.54972792     -0.507171988     -0.517000020      0.793119609      -1.82865644    
   2.40179110     -0.994853973     -0.517000020      0.793119609      -1.82865644    
   1.73421395     -0.718334973     -0.606999993      0.793119609      -1.82865644    
   1.73421395     -0.718334973     -0.606999993       11.0685835       1.58839643    
   1.26109600     -0.522363007     -0.606999993       11.0685835       1.58839643    
   1.33877206     -0.266297996     -0.606999993       11.0685835       1.58839643    
   1.84103203     -0.366203994     -0.606999993       11.0685835       1.58839643    
   1.73421395     -0.718334973     -0.606999993       17.4450817       1.58122289    
   2.40179110     -0.994853973     -0.517000020       17.4450817       1.58122289    
   2.16155505      -1.44430494     -0.517000020       17.4450817       1.58122289    
   1.56075203      -1.04286098     -0.606999993       17.4450817       1.58122289    
   1.56075203      -1.04286098     -0.606999993       21.0936737       1.57969666    
   1.13495600     -0.758352995     -0.606999993       21.0936737       1.57969666    
   1.26109600     -0.522363007     -0.606999993       21.0936737       1.57969666    