 VARIABLES="X" "Y" "Z" "abs(p) (Pa)" "angle(p) (rad)"
ZONE N=   2709,E =    2358, F=FEPOINT, ET=QUADRILATERAL
   0.00000000      -5.48999977     -0.157000005       264.614410      -1.51998019    
   0.00000000      -4.76741982     -0.246999994       264.614410      -1.51998019    
  0.930077016      -4.67581606     -0.246999994       264.614410      -1.51998019    
   1.07104599      -5.38451099     -0.157000005       264.614410      -1.51998019    
  -1.07104599      -5.38451099     -0.157000005       267.876312       1.62749290    
 -0.930077016      -4.67581606     -0.246999994       267.876312       1.62749290    
   0.00000000      -4.76741982     -0.246999994       267.876312       1.62749290    
   0.00000000      -5.48999977     -0.157000005       267.876312       1.62749290    
  -2.10093188      -5.07209921     -0.157000005       797.817566       1.62771213    
  -1.82441294      -4.40452194     -0.246999994       797.817566       1.62771213    
 -0.930077016      -4.67581606     -0.246999994       797.817566       1.62771213    
  -1.07104599      -5.38451099     -0.157000005       797.817566       1.62771213    
  -3.05008101      -4.56476784     -0.157000005       1285.14185       1.62556076    
  -2.64863706      -3.96396494     -0.246999994       1285.14185       1.62556076    
  -1.82441294      -4.40452194     -0.246999994       1285.14185       1.62556076    
  -2.10093188      -5.07209921     -0.157000005       1285.14185       1.62556076    
  -3.88201594      -3.88201594     -0.157000005       1725.74329       1.62302995    
  -3.37107491      -3.37107491     -0.246999994       1725.74329       1.62302995    
  -2.64863706      -3.96396494     -0.246999994       1725.74329       1.62302995    
  -3.05008101      -4.56476784     -0.157000005       1725.74329       1.62302995    
  -4.56476784      -3.05008101     -0.157000005       2121.96875       1.62752807    
  -3.96396494      -2.64863706     -0.246999994       2121.96875       1.62752807    
  -3.37107491      -3.37107491     -0.246999994       2121.96875       1.62752807    
  -3.88201594      -3.88201594     -0.157000005       2121.96875       1.62752807    
  -5.07209921      -2.10093188     -0.157000005       2400.92798       1.62371755    
  -4.40452194      -1.82441294     -0.246999994       2400.92798       1.62371755    
  -3.96396494      -2.64863706     -0.246999994       2400.92798       1.62371755    
  -4.56476784      -3.05008101     -0.157000005       2400.92798       1.62371755    
  -5.38451099      -1.07104599     -0.157000005       2604.45483       1.62324452    
  -4.67581606     -0.930077016     -0.246999994       2604.45483       1.62324452    
  -4.40452194      -1.82441294     -0.246999994       2604.45483       1.62324452    
  -5.07209921      -2.10093188     -0.157000005       2604.45483       1.62324452    
  -5.48999977       0.00000000     -0.157000005       2725.45557       1.62788355    
  -4.76741982       0.00000000     -0.246999994       2725.45557       1.62788355    
  -4.67581606     -0.930077016     -0.246999994       2725.45557       1.62788355    
  -5.38451099      -1.07104599     -0.157000005       2725.45557       1.62788355    
  -5.38451099       1.07104599     -0.157000005       2723.72070       1.62686539    
  -4.67581606      0.930077016     -0.246999994       2723.72070       1.62686539    
  -4.76741982       0.00000000     -0.246999994       2723.72070       1.62686539    
  -5.48999977       0.00000000     -0.157000005       2723.72070       1.62686539    
  -5.07209921       2.10093188     -0.157000005       2619.04956       1.62697995    
  -4.40452194       1.82441294     -0.246999994       2619.04956       1.62697995    
  -4.67581606      0.930077016     -0.246999994       2619.04956       1.62697995    
  -5.38451099       1.07104599     -0.157000005       2619.04956       1.62697995    
  -4.56476784       3.05008101     -0.157000005       2413.00171       1.62785888    
  -3.96396494       2.64863706     -0.246999994       2413.00171       1.62785888    
  -4.40452194       1.82441294     -0.246999994       2413.00171       1.62785888    
  -5.07209921       2.10093188     -0.157000005       2413.00171       1.62785888    
  -3.88201594       3.88201594     -0.157000005       2102.89282       1.62253296    
  -3.37107491       3.37107491     -0.246999994       2102.89282       1.62253296    
  -3.96396494       2.64863706     -0.246999994       2102.89282       1.62253296    
  -4.56476784       3.05008101     -0.157000005       2102.89282       1.62253296    
  -3.05008101       4.56476784     -0.157000005       1734.45398       1.62803257    
  -2.64863706       3.96396494     -0.246999994       1734.45398       1.62803257    
  -3.37107491       3.37107491     -0.246999994       1734.45398       1.62803257    
  -3.88201594       3.88201594     -0.157000005       1734.45398       1.62803257    
  -2.10093188       5.07209921     -0.157000005       1281.84387       1.62235594    
  -1.82441294       4.40452194     -0.246999994       1281.84387       1.62235594    
  -2.64863706       3.96396494     -0.246999994       1281.84387       1.62235594    
  -3.05008101       4.56476784     -0.157000005       1281.84387       1.62235594    
  -1.07104599       5.38451099     -0.157000005       791.489197       1.62655342    
 -0.930077016       4.67581606     -0.246999994       791.489197       1.62655342    
  -1.82441294       4.40452194     -0.246999994       791.489197       1.62655342    
  -2.10093188       5.07209921     -0.157000005       791.489197       1.62655342    
   0.00000000       5.48999977     -0.157000005       265.311890       1.62263489    
   0.00000000       4.76741982     -0.246999994       265.311890       1.62263489    
 -0.930077016       4.67581606     -0.246999994       265.311890       1.62263489    
  -1.07104599       5.38451099     -0.157000005       265.311890       1.62263489    
   1.07104599       5.38451099     -0.157000005       271.277161      -1.50762928    
  0.930077016       4.67581606     -0.246999994       271.277161      -1.50762928    
   0.00000000       4.76741982     -0.246999994       271.277161      -1.50762928    
   0.00000000       5.48999977     -0.157000005       271.277161      -1.50762928    
   2.10093188       5.07209921     -0.157000005       791.979004      -1.51711810    
   1.82441294       4.40452194     -0.246999994       791.979004      -1.51711810    
  0.930077016       4.67581606     -0.246999994       791.979004      -1.51711810    
   1.07104599       5.38451099     -0.157000005       791.979004      -1.51711810    
   3.05008101       4.56476784     -0.157000005       1284.47266      -1.51750600    
   2.64863706       3.96396494     -0.246999994       1284.47266      -1.51750600    
   1.82441294       4.40452194     -0.246999994       1284.47266      -1.51750600    
   2.10093188       5.07209921     -0.157000005       1284.47266      -1.51750600    
   3.88201594       3.88201594     -0.157000005       1738.07349      -1.51390147    
   3.37107491       3.37107491     -0.246999994       1738.07349      -1.51390147    
   2.64863706       3.96396494     -0.246999994       1738.07349      -1.51390147    
   3.05008101       4.56476784     -0.157000005       1738.07349      -1.51390147    
   4.56476784       3.05008101     -0.157000005       2118.59619      -1.51561999    
   3.96396494       2.64863706     -0.246999994       2118.59619      -1.51561999    
   3.37107491       3.37107491     -0.246999994       2118.59619      -1.51561999    
   3.88201594       3.88201594     -0.157000005       2118.59619      -1.51561999    
   5.07209921       2.10093188     -0.157000005       2415.27051      -1.51416183    
   4.40452194       1.82441294     -0.246999994       2415.27051      -1.51416183    
   3.96396494       2.64863706     -0.246999994       2415.27051      -1.51416183    
   4.56476784       3.05008101     -0.157000005       2415.27051      -1.51416183    
   5.38451099       1.07104599     -0.157000005       2605.42358      -1.51769829    
   4.67581606      0.930077016     -0.246999994       2605.42358      -1.51769829    
   4.40452194       1.82441294     -0.246999994       2605.42358      -1.51769829    
   5.07209921       2.10093188     -0.157000005       2605.42358      -1.51769829    
   5.48999977       0.00000000     -0.157000005       2708.88599      -1.51774514    
   4.76741982       0.00000000     -0.246999994       2708.88599      -1.51774514    
   4.67581606      0.930077016     -0.246999994       2708.88599      -1.51774514    
   5.38451099       1.07104599     -0.157000005       2708.88599      -1.51774514    
   5.38451099      -1.07104599     -0.157000005       2708.55225      -1.51752520    
   4.67581606     -0.930077016     -0.246999994       2708.55225      -1.51752520    
   4.76741982       0.00000000     -0.246999994       2708.55225      -1.51752520    
   5.48999977       0.00000000     -0.157000005       2708.55225      -1.51752520    
   5.07209921      -2.10093188     -0.157000005       2604.75854      -1.51796985    
   4.40452194      -1.82441294     -0.246999994       2604.75854      -1.51796985    
   4.67581606     -0.930077016     -0.246999994       2604.75854      -1.51796985    
   5.38451099      -1.07104599     -0.157000005       2604.75854      -1.51796985    
   4.56476784      -3.05008101     -0.157000005       2398.89893      -1.51747918    
   3.96396494      -2.64863706     -0.246999994       2398.89893      -1.51747918    
   4.40452194      -1.82441294     -0.246999994       2398.89893      -1.51747918    
   5.07209921      -2.10093188     -0.157000005       2398.89893      -1.51747918    
   3.88201594      -3.88201594     -0.157000005       2103.37769      -1.51868689    
   3.37107491      -3.37107491     -0.246999994       2103.37769      -1.51868689    
   3.96396494      -2.64863706     -0.246999994       2103.37769      -1.51868689    
   4.56476784      -3.05008101     -0.157000005       2103.37769      -1.51868689    
   3.05008101      -4.56476784     -0.157000005       1734.36060      -1.51384783    
   2.64863706      -3.96396494     -0.246999994       1734.36060      -1.51384783    
   3.37107491      -3.37107491     -0.246999994       1734.36060      -1.51384783    
   3.88201594      -3.88201594     -0.157000005       1734.36060      -1.51384783    
   2.10093188      -5.07209921     -0.157000005       1281.62781      -1.51887035    
   1.82441294      -4.40452194     -0.246999994       1281.62781      -1.51887035    
   2.64863706      -3.96396494     -0.246999994       1281.62781      -1.51887035    
   3.05008101      -4.56476784     -0.157000005       1281.62781      -1.51887035    
   1.07104599      -5.38451099     -0.157000005       788.053589      -1.51842272    
  0.930077016      -4.67581606     -0.246999994       788.053589      -1.51842272    
   1.82441294      -4.40452194     -0.246999994       788.053589      -1.51842272    
   2.10093188      -5.07209921     -0.157000005       788.053589      -1.51842272    
   0.00000000      -1.87709999     -0.606999993       322.461334       1.57370436    
   0.00000000      -1.36500001     -0.606999993       322.461334       1.57370436    
  0.266297996      -1.33877206     -0.606999993       322.461334       1.57370436    
  0.366203994      -1.84103203     -0.606999993       322.461334       1.57370436    
   0.00000000      -1.87709999     -0.606999993       480.603271      -1.56910753    
   0.00000000      -2.59967995     -0.517000020       480.603271      -1.56910753    
 -0.507171988      -2.54972792     -0.517000020       480.603271      -1.56910753    
 -0.366203994      -1.84103203     -0.606999993       480.603271      -1.56910753    
 -0.366203994      -1.84103203     -0.606999993       325.379089      -1.56784105    
 -0.266297996      -1.33877206     -0.606999993       325.379089      -1.56784105    
   0.00000000      -1.36500001     -0.606999993       325.379089      -1.56784105    
   0.00000000      -1.87709999     -0.606999993       325.379089      -1.56784105    
 -0.366203994      -1.84103203     -0.606999993       1424.17017      -1.56917059    
 -0.507171988      -2.54972792     -0.517000020       1424.17017      -1.56917059    
 -0.994853973      -2.40179110     -0.517000020       1424.17017      -1.56917059    
 -0.718334973      -1.73421395     -0.606999993       1424.17017      -1.56917059    
 -0.718334973      -1.73421395     -0.606999993       961.352478      -1.56776547    
 -0.522363007      -1.26109600     -0.606999993       961.352478      -1.56776547    
 -0.266297996      -1.33877206     -0.606999993       961.352478      -1.56776547    
 -0.366203994      -1.84103203     -0.606999993       961.352478      -1.56776547    
 -0.718334973      -1.73421395     -0.606999993       2309.92017      -1.56910694    
 -0.994853973      -2.40179110     -0.517000020       2309.92017      -1.56910694    
  -1.44430494      -2.16155505     -0.517000020       2309.92017      -1.56910694    
  -1.04286098      -1.56075203     -0.606999993       2309.92017      -1.56910694    
  -1.04286098      -1.56075203     -0.606999993       1559.84790      -1.56768417    
 -0.758352995      -1.13495600     -0.606999993       1559.84790      -1.56768417    
 -0.522363007      -1.26109600     -0.606999993       1559.84790      -1.56768417    
 -0.718334973      -1.73421395     -0.606999993       1559.84790      -1.56768417    
  -1.04286098      -1.56075203     -0.606999993       3105.33350      -1.56905866    
  -1.44430494      -2.16155505     -0.517000020       3105.33350      -1.56905866    
  -1.83825099      -1.83825099     -0.517000020       3105.33350      -1.56905866    
  -1.32730997      -1.32730997     -0.606999993       3105.33350      -1.56905866    
  -1.32730997      -1.32730997     -0.606999993       2097.85547      -1.56760871    
 -0.965201020     -0.965201020     -0.606999993       2097.85547      -1.56760871    
 -0.758352995      -1.13495600     -0.606999993       2097.85547      -1.56760871    
  -1.04286098      -1.56075203     -0.606999993       2097.85547      -1.56760871    
  -1.32730997      -1.32730997     -0.606999993       3782.33472      -1.56904972    
  -1.83825099      -1.83825099     -0.517000020       3782.33472      -1.56904972    
  -2.16155505      -1.44430494     -0.517000020       3782.33472      -1.56904972    
  -1.56075203      -1.04286098     -0.606999993       3782.33472      -1.56904972    
  -1.56075203      -1.04286098     -0.606999993       2555.01562      -1.56758547    
  -1.13495600     -0.758352995     -0.606999993       2555.01562      -1.56758547    
 -0.965201020     -0.965201020     -0.606999993       2555.01562      -1.56758547    
  -1.32730997      -1.32730997     -0.606999993       2555.01562      -1.56758547    
  -1.56075203      -1.04286098     -0.606999993       4312.67578      -1.56906068    
  -2.16155505      -1.44430494     -0.517000020       4312.67578      -1.56906068    
  -2.40179110     -0.994853973     -0.517000020       4312.67578      -1.56906068    
  -1.73421395     -0.718334973     -0.606999993       4312.67578      -1.56906068    
  -1.73421395     -0.718334973     -0.606999993       2911.90674      -1.56760252    
  -1.26109600     -0.522363007     -0.606999993       2911.90674      -1.56760252    
  -1.13495600     -0.758352995     -0.606999993       2911.90674      -1.56760252    
  -1.56075203      -1.04286098     -0.606999993       2911.90674      -1.56760252    
  -1.73421395     -0.718334973     -0.606999993       4672.19531      -1.56906545    
  -2.40179110     -0.994853973     -0.517000020       4672.19531      -1.56906545    
  -2.54972792     -0.507171988     -0.517000020       4672.19531      -1.56906545    
  -1.84103203     -0.366203994     -0.606999993       4672.19531      -1.56906545    
  -1.84103203     -0.366203994     -0.606999993       3151.75146      -1.56763101    
  -1.33877206     -0.266297996     -0.606999993       3151.75146      -1.56763101    
  -1.26109600     -0.522363007     -0.606999993       3151.75146      -1.56763101    
  -1.73421395     -0.718334973     -0.606999993       3151.75146      -1.56763101    
  -1.84103203     -0.366203994     -0.606999993       4849.79395      -1.56905711    
  -2.54972792     -0.507171988     -0.517000020       4849.79395      -1.56905711    
  -2.59967995       0.00000000     -0.517000020       4849.79395      -1.56905711    
  -1.87709999       0.00000000     -0.606999993       4849.79395      -1.56905711    
  -1.87709999       0.00000000     -0.606999993       3267.61230      -1.56764126    
  -1.36500001       0.00000000     -0.606999993       3267.61230      -1.56764126    
  -1.33877206     -0.266297996     -0.606999993       3267.61230      -1.56764126    
  -1.84103203     -0.366203994     -0.606999993       3267.61230      -1.56764126    
  -1.87709999       0.00000000     -0.606999993       4844.95215      -1.56904006    
  -2.59967995       0.00000000     -0.517000020       4844.95215      -1.56904006    
  -2.54972792      0.507171988     -0.517000020       4844.95215      -1.56904006    
  -1.84103203      0.366203994     -0.606999993       4844.95215      -1.56904006    
  -1.84103203      0.366203994     -0.606999993       3260.71094      -1.56762660    
  -1.33877206      0.266297996     -0.606999993       3260.71094      -1.56762660    
  -1.36500001       0.00000000     -0.606999993       3260.71094      -1.56762660    
  -1.87709999       0.00000000     -0.606999993       3260.71094      -1.56762660    
  -1.84103203      0.366203994     -0.606999993       4660.07178      -1.56902206    
  -2.54972792      0.507171988     -0.517000020       4660.07178      -1.56902206    
  -2.40179110      0.994853973     -0.517000020       4660.07178      -1.56902206    
  -1.73421395      0.718334973     -0.606999993       4660.07178      -1.56902206    
  -1.73421395      0.718334973     -0.606999993       3134.09937      -1.56759131    
  -1.26109600      0.522363007     -0.606999993       3134.09937      -1.56759131    
  -1.33877206      0.266297996     -0.606999993       3134.09937      -1.56759131    
  -1.84103203      0.366203994     -0.606999993       3134.09937      -1.56759131    
  -1.73421395      0.718334973     -0.606999993       4298.52490      -1.56900752    
  -2.40179110      0.994853973     -0.517000020       4298.52490      -1.56900752    
  -2.16155505       1.44430494     -0.517000020       4298.52490      -1.56900752    
  -1.56075203       1.04286098     -0.606999993       4298.52490      -1.56900752    
  -1.56075203       1.04286098     -0.606999993       2890.73853      -1.56754982    
  -1.13495600      0.758352995     -0.606999993       2890.73853      -1.56754982    
  -1.26109600      0.522363007     -0.606999993       2890.73853      -1.56754982    
  -1.73421395      0.718334973     -0.606999993       2890.73853      -1.56754982    
  -1.56075203       1.04286098     -0.606999993       3769.96240      -1.56900334    
  -2.16155505       1.44430494     -0.517000020       3769.96240      -1.56900334    
  -1.83825099       1.83825099     -0.517000020       3769.96240      -1.56900334    
  -1.32730997       1.32730997     -0.606999993       3769.96240      -1.56900334    
  -1.32730997       1.32730997     -0.606999993       2536.75781      -1.56752717    
 -0.965201020      0.965201020     -0.606999993       2536.75781      -1.56752717    
  -1.13495600      0.758352995     -0.606999993       2536.75781      -1.56752717    
  -1.56075203       1.04286098     -0.606999993       2536.75781      -1.56752717    
  -1.32730997       1.32730997     -0.606999993       3096.24243      -1.56902313    
  -1.83825099       1.83825099     -0.517000020       3096.24243      -1.56902313    
  -1.44430494       2.16155505     -0.517000020       3096.24243      -1.56902313    
  -1.04286098       1.56075203     -0.606999993       3096.24243      -1.56902313    
  -1.04286098       1.56075203     -0.606999993       2084.91553      -1.56754601    
 -0.758352995       1.13495600     -0.606999993       2084.91553      -1.56754601    
 -0.965201020      0.965201020     -0.606999993       2084.91553      -1.56754601    
  -1.32730997       1.32730997     -0.606999993       2084.91553      -1.56754601    
  -1.04286098       1.56075203     -0.606999993       2305.13477      -1.56907499    
  -1.44430494       2.16155505     -0.517000020       2305.13477      -1.56907499    
 -0.994853973       2.40179110     -0.517000020       2305.13477      -1.56907499    
 -0.718334973       1.73421395     -0.606999993       2305.13477      -1.56907499    
 -0.718334973       1.73421395     -0.606999993       1552.47363      -1.56760693    
 -0.522363007       1.26109600     -0.606999993       1552.47363      -1.56760693    
 -0.758352995       1.13495600     -0.606999993       1552.47363      -1.56760693    
  -1.04286098       1.56075203     -0.606999993       1552.47363      -1.56760693    
 -0.718334973       1.73421395     -0.606999993       1423.83948      -1.56913877    
 -0.994853973       2.40179110     -0.517000020       1423.83948      -1.56913877    
 -0.507171988       2.54972792     -0.517000020       1423.83948      -1.56913877    
 -0.366203994       1.84103203     -0.606999993       1423.83948      -1.56913877    
 -0.366203994       1.84103203     -0.606999993       958.659424      -1.56768894    
 -0.266297996       1.33877206     -0.606999993       958.659424      -1.56768894    
 -0.522363007       1.26109600     -0.606999993       958.659424      -1.56768894    
 -0.718334973       1.73421395     -0.606999993       958.659424      -1.56768894    
 -0.366203994       1.84103203     -0.606999993       483.098480      -1.56915700    
 -0.507171988       2.54972792     -0.517000020       483.098480      -1.56915700    
   0.00000000       2.59967995     -0.517000020       483.098480      -1.56915700    
   0.00000000       1.87709999     -0.606999993       483.098480      -1.56915700    
   0.00000000       1.87709999     -0.606999993       324.681061      -1.56765974    
   0.00000000       1.36500001     -0.606999993       324.681061      -1.56765974    
 -0.266297996       1.33877206     -0.606999993       324.681061      -1.56765974    
 -0.366203994       1.84103203     -0.606999993       324.681061      -1.56765974    
   0.00000000       1.87709999     -0.606999993       479.635803       1.57238257    
   0.00000000       2.59967995     -0.517000020       479.635803       1.57238257    
  0.507171988       2.54972792     -0.517000020       479.635803       1.57238257    
  0.366203994       1.84103203     -0.606999993       479.635803       1.57238257    
  0.366203994       1.84103203     -0.606999993       324.670471       1.57373190    
  0.266297996       1.33877206     -0.606999993       324.670471       1.57373190    
   0.00000000       1.36500001     -0.606999993       324.670471       1.57373190    
   0.00000000       1.87709999     -0.606999993       324.670471       1.57373190    
  0.366203994       1.84103203     -0.606999993       1422.97815       1.57247865    
  0.507171988       2.54972792     -0.517000020       1422.97815       1.57247865    
  0.994853973       2.40179110     -0.517000020       1422.97815       1.57247865    
  0.718334973       1.73421395     -0.606999993       1422.97815       1.57247865    
  0.718334973       1.73421395     -0.606999993       962.136597       1.57388091    
  0.522363007       1.26109600     -0.606999993       962.136597       1.57388091    
  0.266297996       1.33877206     -0.606999993       962.136597       1.57388091    
  0.366203994       1.84103203     -0.606999993       962.136597       1.57388091    
  0.718334973       1.73421395     -0.606999993       2308.08911       1.57256091    
  0.994853973       2.40179110     -0.517000020       2308.08911       1.57256091    
   1.44430494       2.16155505     -0.517000020       2308.08911       1.57256091    
   1.04286098       1.56075203     -0.606999993       2308.08911       1.57256091    
   1.04286098       1.56075203     -0.606999993       1560.98987       1.57397306    
  0.758352995       1.13495600     -0.606999993       1560.98987       1.57397306    
  0.522363007       1.26109600     -0.606999993       1560.98987       1.57397306    
  0.718334973       1.73421395     -0.606999993       1560.98987       1.57397306    
   1.04286098       1.56075203     -0.606999993       3102.46436       1.57260072    
   1.44430494       2.16155505     -0.517000020       3102.46436       1.57260072    
   1.83825099       1.83825099     -0.517000020       3102.46436       1.57260072    
   1.32730997       1.32730997     -0.606999993       3102.46436       1.57260072    
   1.32730997       1.32730997     -0.606999993       2097.26343       1.57404351    
  0.965201020      0.965201020     -0.606999993       2097.26343       1.57404351    
  0.758352995       1.13495600     -0.606999993       2097.26343       1.57404351    
   1.04286098       1.56075203     -0.606999993       2097.26343       1.57404351    
   1.32730997       1.32730997     -0.606999993       3777.77612       1.57258677    
   1.83825099       1.83825099     -0.517000020       3777.77612       1.57258677    
   2.16155505       1.44430494     -0.517000020       3777.77612       1.57258677    
   1.56075203       1.04286098     -0.606999993       3777.77612       1.57258677    
   1.56075203       1.04286098     -0.606999993       2549.80688       1.57405531    
   1.13495600      0.758352995     -0.606999993       2549.80688       1.57405531    
  0.965201020      0.965201020     -0.606999993       2549.80688       1.57405531    
   1.32730997       1.32730997     -0.606999993       2549.80688       1.57405531    
   1.56075203       1.04286098     -0.606999993       4306.12256       1.57254016    
   2.16155505       1.44430494     -0.517000020       4306.12256       1.57254016    
   2.40179110      0.994853973     -0.517000020       4306.12256       1.57254016    
   1.73421395      0.718334973     -0.606999993       4306.12256       1.57254016    
   1.73421395      0.718334973     -0.606999993       2902.38989       1.57401180    
   1.26109600      0.522363007     -0.606999993       2902.38989       1.57401180    
   1.13495600      0.758352995     -0.606999993       2902.38989       1.57401180    
   1.56075203       1.04286098     -0.606999993       2902.38989       1.57401180    
   1.73421395      0.718334973     -0.606999993       4665.81494       1.57248521    
   2.40179110      0.994853973     -0.517000020       4665.81494       1.57248521    
   2.54972792      0.507171988     -0.517000020       4665.81494       1.57248521    
   1.84103203      0.366203994     -0.606999993       4665.81494       1.57248521    
   1.84103203      0.366203994     -0.606999993       3143.35278       1.57394838    
   1.33877206      0.266297996     -0.606999993       3143.35278       1.57394838    
   1.26109600      0.522363007     -0.606999993       3143.35278       1.57394838    
   1.73421395      0.718334973     -0.606999993       3143.35278       1.57394838    
   1.84103203      0.366203994     -0.606999993       4847.09912       1.57244086    
   2.54972792      0.507171988     -0.517000020       4847.09912       1.57244086    
   2.59967995       0.00000000     -0.517000020       4847.09912       1.57244086    
   1.87709999       0.00000000     -0.606999993       4847.09912       1.57244086    
   1.87709999       0.00000000     -0.606999993       3264.71558       1.57389581    
   1.36500001       0.00000000     -0.606999993       3264.71558       1.57389581    
   1.33877206      0.266297996     -0.606999993       3264.71558       1.57389581    
   1.84103203      0.366203994     -0.606999993       3264.71558       1.57389581    
   1.87709999       0.00000000     -0.606999993       4847.40869       1.57242167    
   2.59967995       0.00000000     -0.517000020       4847.40869       1.57242167    
   2.54972792     -0.507171988     -0.517000020       4847.40869       1.57242167    
   1.84103203     -0.366203994     -0.606999993       4847.40869       1.57242167    
   1.84103203     -0.366203994     -0.606999993       3264.27295       1.57387555    
   1.33877206     -0.266297996     -0.606999993       3264.27295       1.57387555    
   1.36500001       0.00000000     -0.606999993       3264.27295       1.57387555    
   1.87709999       0.00000000     -0.606999993       3264.27295       1.57387555    
   1.84103203     -0.366203994     -0.606999993       4665.94629       1.57243443    
   2.54972792     -0.507171988     -0.517000020       4665.94629       1.57243443    
   2.40179110     -0.994853973     -0.517000020       4665.94629       1.57243443    
   1.73421395     -0.718334973     -0.606999993       4665.94629       1.57243443    
   1.73421395     -0.718334973     -0.606999993       3141.69775       1.57389224    
   1.26109600     -0.522363007     -0.606999993       3141.69775       1.57389224    
   1.33877206     -0.266297996     -0.606999993       3141.69775       1.57389224    
   1.84103203     -0.366203994     -0.606999993       3141.69775       1.57389224    
   1.73421395     -0.718334973     -0.606999993       4304.52979       1.57247519    
   2.40179110     -0.994853973     -0.517000020       4304.52979       1.57247519    
   2.16155505      -1.44430494     -0.517000020       4304.52979       1.57247519    
   1.56075203      -1.04286098     -0.606999993       4304.52979       1.57247519    
   1.56075203      -1.04286098     -0.606999993       2898.39624       1.57393265    
   1.13495600     -0.758352995     -0.606999993       2898.39624       1.57393265    
   1.26109600     -0.522363007     -0.606999993       2898.39624       1.57393265    