 VARIABLES="X" "Y" "Z" "abs(p) (Pa)" "angle(p) (rad)"
ZONE N=   2709,E =    2358, F=FEPOINT, ET=QUADRILATERAL
   0.00000000      -5.48999977     -0.157000005       447.575806      -1.59300959    
   0.00000000      -4.76741982     -0.246999994       447.575806      -1.59300959    
  0.930077016      -4.67581606     -0.246999994       447.575806      -1.59300959    
   1.07104599      -5.38451099     -0.157000005       447.575806      -1.59300959    
  -1.07104599      -5.38451099     -0.157000005       453.467926       1.55136585    
 -0.930077016      -4.67581606     -0.246999994       453.467926       1.55136585    
   0.00000000      -4.76741982     -0.246999994       453.467926       1.55136585    
   0.00000000      -5.48999977     -0.157000005       453.467926       1.55136585    
  -2.10093188      -5.07209921     -0.157000005       1355.94910       1.55572712    
  -1.82441294      -4.40452194     -0.246999994       1355.94910       1.55572712    
 -0.930077016      -4.67581606     -0.246999994       1355.94910       1.55572712    
  -1.07104599      -5.38451099     -0.157000005       1355.94910       1.55572712    
  -3.05008101      -4.56476784     -0.157000005       2171.76440       1.55121732    
  -2.64863706      -3.96396494     -0.246999994       2171.76440       1.55121732    
  -1.82441294      -4.40452194     -0.246999994       2171.76440       1.55121732    
  -2.10093188      -5.07209921     -0.157000005       2171.76440       1.55121732    
  -3.88201594      -3.88201594     -0.157000005       2918.98657       1.55076480    
  -3.37107491      -3.37107491     -0.246999994       2918.98657       1.55076480    
  -2.64863706      -3.96396494     -0.246999994       2918.98657       1.55076480    
  -3.05008101      -4.56476784     -0.157000005       2918.98657       1.55076480    
  -4.56476784      -3.05008101     -0.157000005       3590.97168       1.55442357    
  -3.96396494      -2.64863706     -0.246999994       3590.97168       1.55442357    
  -3.37107491      -3.37107491     -0.246999994       3590.97168       1.55442357    
  -3.88201594      -3.88201594     -0.157000005       3590.97168       1.55442357    
  -5.07209921      -2.10093188     -0.157000005       4056.22681       1.55136299    
  -4.40452194      -1.82441294     -0.246999994       4056.22681       1.55136299    
  -3.96396494      -2.64863706     -0.246999994       4056.22681       1.55136299    
  -4.56476784      -3.05008101     -0.157000005       4056.22681       1.55136299    
  -5.38451099      -1.07104599     -0.157000005       4402.13867       1.55100608    
  -4.67581606     -0.930077016     -0.246999994       4402.13867       1.55100608    
  -4.40452194      -1.82441294     -0.246999994       4402.13867       1.55100608    
  -5.07209921      -2.10093188     -0.157000005       4402.13867       1.55100608    
  -5.48999977       0.00000000     -0.157000005       4637.95654       1.55561829    
  -4.76741982       0.00000000     -0.246999994       4637.95654       1.55561829    
  -4.67581606     -0.930077016     -0.246999994       4637.95654       1.55561829    
  -5.38451099      -1.07104599     -0.157000005       4637.95654       1.55561829    
  -5.38451099       1.07104599     -0.157000005       4643.57520       1.55599642    
  -4.67581606      0.930077016     -0.246999994       4643.57520       1.55599642    
  -4.76741982       0.00000000     -0.246999994       4643.57520       1.55599642    
  -5.48999977       0.00000000     -0.157000005       4643.57520       1.55599642    
  -5.07209921       2.10093188     -0.157000005       4464.93262       1.55595362    
  -4.40452194       1.82441294     -0.246999994       4464.93262       1.55595362    
  -4.67581606      0.930077016     -0.246999994       4464.93262       1.55595362    
  -5.38451099       1.07104599     -0.157000005       4464.93262       1.55595362    
  -4.56476784       3.05008101     -0.157000005       4112.19629       1.55585587    
  -3.96396494       2.64863706     -0.246999994       4112.19629       1.55585587    
  -4.40452194       1.82441294     -0.246999994       4112.19629       1.55585587    
  -5.07209921       2.10093188     -0.157000005       4112.19629       1.55585587    
  -3.88201594       3.88201594     -0.157000005       3560.19678       1.55142736    
  -3.37107491       3.37107491     -0.246999994       3560.19678       1.55142736    
  -3.96396494       2.64863706     -0.246999994       3560.19678       1.55142736    
  -4.56476784       3.05008101     -0.157000005       3560.19678       1.55142736    
  -3.05008101       4.56476784     -0.157000005       2950.74170       1.55535257    
  -2.64863706       3.96396494     -0.246999994       2950.74170       1.55535257    
  -3.37107491       3.37107491     -0.246999994       2950.74170       1.55535257    
  -3.88201594       3.88201594     -0.157000005       2950.74170       1.55535257    
  -2.10093188       5.07209921     -0.157000005       2170.27637       1.55145991    
  -1.82441294       4.40452194     -0.246999994       2170.27637       1.55145991    
  -2.64863706       3.96396494     -0.246999994       2170.27637       1.55145991    
  -3.05008101       4.56476784     -0.157000005       2170.27637       1.55145991    
  -1.07104599       5.38451099     -0.157000005       1348.43750       1.55503130    
 -0.930077016       4.67581606     -0.246999994       1348.43750       1.55503130    
  -1.82441294       4.40452194     -0.246999994       1348.43750       1.55503130    
  -2.10093188       5.07209921     -0.157000005       1348.43750       1.55503130    
   0.00000000       5.48999977     -0.157000005       448.781708       1.55175865    
   0.00000000       4.76741982     -0.246999994       448.781708       1.55175865    
 -0.930077016       4.67581606     -0.246999994       448.781708       1.55175865    
  -1.07104599       5.38451099     -0.157000005       448.781708       1.55175865    
   1.07104599       5.38451099     -0.157000005       460.439087      -1.58557367    
  0.930077016       4.67581606     -0.246999994       460.439087      -1.58557367    
   0.00000000       4.76741982     -0.246999994       460.439087      -1.58557367    
   0.00000000       5.48999977     -0.157000005       460.439087      -1.58557367    
   2.10093188       5.07209921     -0.157000005       1337.41956      -1.58984160    
   1.82441294       4.40452194     -0.246999994       1337.41956      -1.58984160    
  0.930077016       4.67581606     -0.246999994       1337.41956      -1.58984160    
   1.07104599       5.38451099     -0.157000005       1337.41956      -1.58984160    
   3.05008101       4.56476784     -0.157000005       2171.74219      -1.59063160    
   2.64863706       3.96396494     -0.246999994       2171.74219      -1.59063160    
   1.82441294       4.40452194     -0.246999994       2171.74219      -1.59063160    
   2.10093188       5.07209921     -0.157000005       2171.74219      -1.59063160    
   3.88201594       3.88201594     -0.157000005       2958.55835      -1.58600295    
   3.37107491       3.37107491     -0.246999994       2958.55835      -1.58600295    
   2.64863706       3.96396494     -0.246999994       2958.55835      -1.58600295    
   3.05008101       4.56476784     -0.157000005       2958.55835      -1.58600295    
   4.56476784       3.05008101     -0.157000005       3576.94165      -1.58867276    
   3.96396494       2.64863706     -0.246999994       3576.94165      -1.58867276    
   3.37107491       3.37107491     -0.246999994       3576.94165      -1.58867276    
   3.88201594       3.88201594     -0.157000005       3576.94165      -1.58867276    
   5.07209921       2.10093188     -0.157000005       4107.14160      -1.58597302    
   4.40452194       1.82441294     -0.246999994       4107.14160      -1.58597302    
   3.96396494       2.64863706     -0.246999994       4107.14160      -1.58597302    
   4.56476784       3.05008101     -0.157000005       4107.14160      -1.58597302    
   5.38451099       1.07104599     -0.157000005       4404.78613      -1.59083855    
   4.67581606      0.930077016     -0.246999994       4404.78613      -1.59083855    
   4.40452194       1.82441294     -0.246999994       4404.78613      -1.59083855    
   5.07209921       2.10093188     -0.157000005       4404.78613      -1.59083855    
   5.48999977       0.00000000     -0.157000005       4574.95508      -1.59064853    
   4.76741982       0.00000000     -0.246999994       4574.95508      -1.59064853    
   4.67581606      0.930077016     -0.246999994       4574.95508      -1.59064853    
   5.38451099       1.07104599     -0.157000005       4574.95508      -1.59064853    
   5.38451099      -1.07104599     -0.157000005       4572.45752      -1.59072828    
   4.67581606     -0.930077016     -0.246999994       4572.45752      -1.59072828    
   4.76741982       0.00000000     -0.246999994       4572.45752      -1.59072828    
   5.48999977       0.00000000     -0.157000005       4572.45752      -1.59072828    
   5.07209921      -2.10093188     -0.157000005       4397.30664      -1.59100485    
   4.40452194      -1.82441294     -0.246999994       4397.30664      -1.59100485    
   4.67581606     -0.930077016     -0.246999994       4397.30664      -1.59100485    
   5.38451099      -1.07104599     -0.157000005       4397.30664      -1.59100485    
   4.56476784      -3.05008101     -0.157000005       4052.75537      -1.59058869    
   3.96396494      -2.64863706     -0.246999994       4052.75537      -1.59058869    
   4.40452194      -1.82441294     -0.246999994       4052.75537      -1.59058869    
   5.07209921      -2.10093188     -0.157000005       4052.75537      -1.59058869    
   3.88201594      -3.88201594     -0.157000005       3552.93970      -1.59065998    
   3.37107491      -3.37107491     -0.246999994       3552.93970      -1.59065998    
   3.96396494      -2.64863706     -0.246999994       3552.93970      -1.59065998    
   4.56476784      -3.05008101     -0.157000005       3552.93970      -1.59065998    
   3.05008101      -4.56476784     -0.157000005       2950.39819      -1.58657539    
   2.64863706      -3.96396494     -0.246999994       2950.39819      -1.58657539    
   3.37107491      -3.37107491     -0.246999994       2950.39819      -1.58657539    
   3.88201594      -3.88201594     -0.157000005       2950.39819      -1.58657539    
   2.10093188      -5.07209921     -0.157000005       2169.01343      -1.59009469    
   1.82441294      -4.40452194     -0.246999994       2169.01343      -1.59009469    
   2.64863706      -3.96396494     -0.246999994       2169.01343      -1.59009469    
   3.05008101      -4.56476784     -0.157000005       2169.01343      -1.59009469    
   1.07104599      -5.38451099     -0.157000005       1331.94739      -1.59037340    
  0.930077016      -4.67581606     -0.246999994       1331.94739      -1.59037340    
   1.82441294      -4.40452194     -0.246999994       1331.94739      -1.59037340    
   2.10093188      -5.07209921     -0.157000005       1331.94739      -1.59037340    
   0.00000000      -1.87709999     -0.606999993       242.830963      -1.57074451    
   0.00000000      -1.36500001     -0.606999993       242.830963      -1.57074451    
  0.266297996      -1.33877206     -0.606999993       242.830963      -1.57074451    
  0.366203994      -1.84103203     -0.606999993       242.830963      -1.57074451    
   0.00000000      -1.87709999     -0.606999993       127.702080       1.57190752    
   0.00000000      -2.59967995     -0.517000020       127.702080       1.57190752    
 -0.507171988      -2.54972792     -0.517000020       127.702080       1.57190752    
 -0.366203994      -1.84103203     -0.606999993       127.702080       1.57190752    
 -0.366203994      -1.84103203     -0.606999993       250.017227       1.57176232    
 -0.266297996      -1.33877206     -0.606999993       250.017227       1.57176232    
   0.00000000      -1.36500001     -0.606999993       250.017227       1.57176232    
   0.00000000      -1.87709999     -0.606999993       250.017227       1.57176232    
 -0.366203994      -1.84103203     -0.606999993       376.479919       1.57144332    
 -0.507171988      -2.54972792     -0.517000020       376.479919       1.57144332    
 -0.994853973      -2.40179110     -0.517000020       376.479919       1.57144332    
 -0.718334973      -1.73421395     -0.606999993       376.479919       1.57144332    
 -0.718334973      -1.73421395     -0.606999993       733.022766       1.57137108    
 -0.522363007      -1.26109600     -0.606999993       733.022766       1.57137108    
 -0.266297996      -1.33877206     -0.606999993       733.022766       1.57137108    
 -0.366203994      -1.84103203     -0.606999993       733.022766       1.57137108    
 -0.718334973      -1.73421395     -0.606999993       608.801758       1.57120407    
 -0.994853973      -2.40179110     -0.517000020       608.801758       1.57120407    
  -1.44430494      -2.16155505     -0.517000020       608.801758       1.57120407    
  -1.04286098      -1.56075203     -0.606999993       608.801758       1.57120407    
  -1.04286098      -1.56075203     -0.606999993       1187.62573       1.57131767    
 -0.758352995      -1.13495600     -0.606999993       1187.62573       1.57131767    
 -0.522363007      -1.26109600     -0.606999993       1187.62573       1.57131767    
 -0.718334973      -1.73421395     -0.606999993       1187.62573       1.57131767    
  -1.04286098      -1.56075203     -0.606999993       818.595154       1.57096684    
  -1.44430494      -2.16155505     -0.517000020       818.595154       1.57096684    
  -1.83825099      -1.83825099     -0.517000020       818.595154       1.57096684    
  -1.32730997      -1.32730997     -0.606999993       818.595154       1.57096684    
  -1.32730997      -1.32730997     -0.606999993       1597.07080       1.57124615    
 -0.965201020     -0.965201020     -0.606999993       1597.07080       1.57124615    
 -0.758352995      -1.13495600     -0.606999993       1597.07080       1.57124615    
  -1.04286098      -1.56075203     -0.606999993       1597.07080       1.57124615    
  -1.32730997      -1.32730997     -0.606999993       1000.01807       1.57079148    
  -1.83825099      -1.83825099     -0.517000020       1000.01807       1.57079148    
  -2.16155505      -1.44430494     -0.517000020       1000.01807       1.57079148    
  -1.56075203      -1.04286098     -0.606999993       1000.01807       1.57079148    
  -1.56075203      -1.04286098     -0.606999993       1946.32300       1.57117736    
  -1.13495600     -0.758352995     -0.606999993       1946.32300       1.57117736    
 -0.965201020     -0.965201020     -0.606999993       1946.32300       1.57117736    
  -1.32730997      -1.32730997     -0.606999993       1946.32300       1.57117736    
  -1.56075203      -1.04286098     -0.606999993       1143.79126       1.57072973    
  -2.16155505      -1.44430494     -0.517000020       1143.79126       1.57072973    
  -2.40179110     -0.994853973     -0.517000020       1143.79126       1.57072973    
  -1.73421395     -0.718334973     -0.606999993       1143.79126       1.57072973    
  -1.73421395     -0.718334973     -0.606999993       2221.13330       1.57114124    
  -1.26109600     -0.522363007     -0.606999993       2221.13330       1.57114124    
  -1.13495600     -0.758352995     -0.606999993       2221.13330       1.57114124    
  -1.56075203      -1.04286098     -0.606999993       2221.13330       1.57114124    
  -1.73421395     -0.718334973     -0.606999993       1240.66162       1.57074761    
  -2.40179110     -0.994853973     -0.517000020       1240.66162       1.57074761    
  -2.54972792     -0.507171988     -0.517000020       1240.66162       1.57074761    
  -1.84103203     -0.366203994     -0.606999993       1240.66162       1.57074761    
  -1.84103203     -0.366203994     -0.606999993       2409.23364       1.57111955    
  -1.33877206     -0.266297996     -0.606999993       2409.23364       1.57111955    
  -1.26109600     -0.522363007     -0.606999993       2409.23364       1.57111955    
  -1.73421395     -0.718334973     -0.606999993       2409.23364       1.57111955    
  -1.84103203     -0.366203994     -0.606999993       1287.71826       1.57081580    
  -2.54972792     -0.507171988     -0.517000020       1287.71826       1.57081580    
  -2.59967995       0.00000000     -0.517000020       1287.71826       1.57081580    
  -1.87709999       0.00000000     -0.606999993       1287.71826       1.57081580    
  -1.87709999       0.00000000     -0.606999993       2503.41602       1.57110167    
  -1.36500001       0.00000000     -0.606999993       2503.41602       1.57110167    
  -1.33877206     -0.266297996     -0.606999993       2503.41602       1.57110167    
  -1.84103203     -0.366203994     -0.606999993       2503.41602       1.57110167    
  -1.87709999       0.00000000     -0.606999993       1286.87048       1.57083464    
  -2.59967995       0.00000000     -0.517000020       1286.87048       1.57083464    
  -2.54972792      0.507171988     -0.517000020       1286.87048       1.57083464    
  -1.84103203      0.366203994     -0.606999993       1286.87048       1.57083464    
  -1.84103203      0.366203994     -0.606999993       2501.42822       1.57110357    
  -1.33877206      0.266297996     -0.606999993       2501.42822       1.57110357    
  -1.36500001       0.00000000     -0.606999993       2501.42822       1.57110357    
  -1.87709999       0.00000000     -0.606999993       2501.42822       1.57110357    
  -1.84103203      0.366203994     -0.606999993       1238.95691       1.57076669    
  -2.54972792      0.507171988     -0.517000020       1238.95691       1.57076669    
  -2.40179110      0.994853973     -0.517000020       1238.95691       1.57076669    
  -1.73421395      0.718334973     -0.606999993       1238.95691       1.57076669    
  -1.73421395      0.718334973     -0.606999993       2403.89746       1.57108462    
  -1.26109600      0.522363007     -0.606999993       2403.89746       1.57108462    
  -1.33877206      0.266297996     -0.606999993       2403.89746       1.57108462    
  -1.84103203      0.366203994     -0.606999993       2403.89746       1.57108462    
  -1.73421395      0.718334973     -0.606999993       1142.48889       1.57070613    
  -2.40179110      0.994853973     -0.517000020       1142.48889       1.57070613    
  -2.16155505       1.44430494     -0.517000020       1142.48889       1.57070613    
  -1.56075203       1.04286098     -0.606999993       1142.48889       1.57070613    
  -1.56075203       1.04286098     -0.606999993       2213.87866       1.57104719    
  -1.13495600      0.758352995     -0.606999993       2213.87866       1.57104719    
  -1.26109600      0.522363007     -0.606999993       2213.87866       1.57104719    
  -1.73421395      0.718334973     -0.606999993       2213.87866       1.57104719    
  -1.56075203       1.04286098     -0.606999993       999.356384       1.57066226    
  -2.16155505       1.44430494     -0.517000020       999.356384       1.57066226    
  -1.83825099       1.83825099     -0.517000020       999.356384       1.57066226    
  -1.32730997       1.32730997     -0.606999993       999.356384       1.57066226    
  -1.32730997       1.32730997     -0.606999993       1938.18604       1.57104564    
 -0.965201020      0.965201020     -0.606999993       1938.18604       1.57104564    
  -1.13495600      0.758352995     -0.606999993       1938.18604       1.57104564    
  -1.56075203       1.04286098     -0.606999993       1938.18604       1.57104564    
  -1.32730997       1.32730997     -0.606999993       817.762512       1.57073915    
  -1.83825099       1.83825099     -0.517000020       817.762512       1.57073915    
  -1.44430494       2.16155505     -0.517000020       817.762512       1.57073915    
  -1.04286098       1.56075203     -0.606999993       817.762512       1.57073915    
  -1.04286098       1.56075203     -0.606999993       1588.50403       1.57103288    
 -0.758352995       1.13495600     -0.606999993       1588.50403       1.57103288    
 -0.965201020      0.965201020     -0.606999993       1588.50403       1.57103288    
  -1.32730997       1.32730997     -0.606999993       1588.50403       1.57103288    
  -1.04286098       1.56075203     -0.606999993       607.735107       1.57078934    
  -1.44430494       2.16155505     -0.517000020       607.735107       1.57078934    
 -0.994853973       2.40179110     -0.517000020       607.735107       1.57078934    
 -0.718334973       1.73421395     -0.606999993       607.735107       1.57078934    
 -0.718334973       1.73421395     -0.606999993       1179.21521       1.57105041    
 -0.522363007       1.26109600     -0.606999993       1179.21521       1.57105041    
 -0.758352995       1.13495600     -0.606999993       1179.21521       1.57105041    
  -1.04286098       1.56075203     -0.606999993       1179.21521       1.57105041    
 -0.718334973       1.73421395     -0.606999993       375.619263       1.57081950    
 -0.994853973       2.40179110     -0.517000020       375.619263       1.57081950    
 -0.507171988       2.54972792     -0.517000020       375.619263       1.57081950    
 -0.366203994       1.84103203     -0.606999993       375.619263       1.57081950    
 -0.366203994       1.84103203     -0.606999993       725.452759       1.57109106    
 -0.266297996       1.33877206     -0.606999993       725.452759       1.57109106    
 -0.522363007       1.26109600     -0.606999993       725.452759       1.57109106    
 -0.718334973       1.73421395     -0.606999993       725.452759       1.57109106    
 -0.366203994       1.84103203     -0.606999993       127.494446       1.57105875    
 -0.507171988       2.54972792     -0.517000020       127.494446       1.57105875    
   0.00000000       2.59967995     -0.517000020       127.494446       1.57105875    
   0.00000000       1.87709999     -0.606999993       127.494446       1.57105875    
   0.00000000       1.87709999     -0.606999993       243.414322       1.57131732    
   0.00000000       1.36500001     -0.606999993       243.414322       1.57131732    
 -0.266297996       1.33877206     -0.606999993       243.414322       1.57131732    
 -0.366203994       1.84103203     -0.606999993       243.414322       1.57131732    
   0.00000000       1.87709999     -0.606999993       126.965515      -1.57164657    
   0.00000000       2.59967995     -0.517000020       126.965515      -1.57164657    
  0.507171988       2.54972792     -0.517000020       126.965515      -1.57164657    
  0.366203994       1.84103203     -0.606999993       126.965515      -1.57164657    
  0.366203994       1.84103203     -0.606999993       248.466339      -1.57115495    
  0.266297996       1.33877206     -0.606999993       248.466339      -1.57115495    
   0.00000000       1.36500001     -0.606999993       248.466339      -1.57115495    
   0.00000000       1.87709999     -0.606999993       248.466339      -1.57115495    
  0.366203994       1.84103203     -0.606999993       375.474884      -1.57126760    
  0.507171988       2.54972792     -0.517000020       375.474884      -1.57126760    
  0.994853973       2.40179110     -0.517000020       375.474884      -1.57126760    
  0.718334973       1.73421395     -0.606999993       375.474884      -1.57126760    
  0.718334973       1.73421395     -0.606999993       730.974182      -1.57084692    
  0.522363007       1.26109600     -0.606999993       730.974182      -1.57084692    
  0.266297996       1.33877206     -0.606999993       730.974182      -1.57084692    
  0.366203994       1.84103203     -0.606999993       730.974182      -1.57084692    
  0.718334973       1.73421395     -0.606999993       608.204712      -1.57120955    
  0.994853973       2.40179110     -0.517000020       608.204712      -1.57120955    
   1.44430494       2.16155505     -0.517000020       608.204712      -1.57120955    
   1.04286098       1.56075203     -0.606999993       608.204712      -1.57120955    
   1.04286098       1.56075203     -0.606999993       1185.74609      -1.57074177    
  0.758352995       1.13495600     -0.606999993       1185.74609      -1.57074177    
  0.522363007       1.26109600     -0.606999993       1185.74609      -1.57074177    
  0.718334973       1.73421395     -0.606999993       1185.74609      -1.57074177    
   1.04286098       1.56075203     -0.606999993       819.188293      -1.57121027    
   1.44430494       2.16155505     -0.517000020       819.188293      -1.57121027    
   1.83825099       1.83825099     -0.517000020       819.188293      -1.57121027    
   1.32730997       1.32730997     -0.606999993       819.188293      -1.57121027    
   1.32730997       1.32730997     -0.606999993       1596.05237      -1.57071340    
  0.965201020      0.965201020     -0.606999993       1596.05237      -1.57071340    
  0.758352995       1.13495600     -0.606999993       1596.05237      -1.57071340    
   1.04286098       1.56075203     -0.606999993       1596.05237      -1.57071340    
   1.32730997       1.32730997     -0.606999993       1001.21588      -1.57118928    
   1.83825099       1.83825099     -0.517000020       1001.21588      -1.57118928    
   2.16155505       1.44430494     -0.517000020       1001.21588      -1.57118928    
   1.56075203       1.04286098     -0.606999993       1001.21588      -1.57118928    
   1.56075203       1.04286098     -0.606999993       1946.14722      -1.57067478    
   1.13495600      0.758352995     -0.606999993       1946.14722      -1.57067478    
  0.965201020      0.965201020     -0.606999993       1946.14722      -1.57067478    
   1.32730997       1.32730997     -0.606999993       1946.14722      -1.57067478    
   1.56075203       1.04286098     -0.606999993       1144.25574      -1.57109702    
   2.16155505       1.44430494     -0.517000020       1144.25574      -1.57109702    
   2.40179110      0.994853973     -0.517000020       1144.25574      -1.57109702    
   1.73421395      0.718334973     -0.606999993       1144.25574      -1.57109702    
   1.73421395      0.718334973     -0.606999993       2220.54248      -1.57063639    
   1.26109600      0.522363007     -0.606999993       2220.54248      -1.57063639    
   1.13495600      0.758352995     -0.606999993       2220.54248      -1.57063639    
   1.56075203       1.04286098     -0.606999993       2220.54248      -1.57063639    
   1.73421395      0.718334973     -0.606999993       1239.95374      -1.57092428    
   2.40179110      0.994853973     -0.517000020       1239.95374      -1.57092428    
   2.54972792      0.507171988     -0.517000020       1239.95374      -1.57092428    
   1.84103203      0.366203994     -0.606999993       1239.95374      -1.57092428    
   1.84103203      0.366203994     -0.606999993       2407.69312      -1.57059097    
   1.33877206      0.266297996     -0.606999993       2407.69312      -1.57059097    
   1.26109600      0.522363007     -0.606999993       2407.69312      -1.57059097    
   1.73421395      0.718334973     -0.606999993       2407.69312      -1.57059097    
   1.84103203      0.366203994     -0.606999993       1287.03455      -1.57077324    
   2.54972792      0.507171988     -0.517000020       1287.03455      -1.57077324    
   2.59967995       0.00000000     -0.517000020       1287.03455      -1.57077324    
   1.87709999       0.00000000     -0.606999993       1287.03455      -1.57077324    
   1.87709999       0.00000000     -0.606999993       2502.08008      -1.57053316    
   1.36500001       0.00000000     -0.606999993       2502.08008      -1.57053316    
   1.33877206      0.266297996     -0.606999993       2502.08008      -1.57053316    
   1.84103203      0.366203994     -0.606999993       2502.08008      -1.57053316    
   1.87709999       0.00000000     -0.606999993       1287.02234      -1.57074583    
   2.59967995       0.00000000     -0.517000020       1287.02234      -1.57074583    
   2.54972792     -0.507171988     -0.517000020       1287.02234      -1.57074583    
   1.84103203     -0.366203994     -0.606999993       1287.02234      -1.57074583    
   1.84103203     -0.366203994     -0.606999993       2501.08691      -1.57051170    
   1.33877206     -0.266297996     -0.606999993       2501.08691      -1.57051170    
   1.36500001       0.00000000     -0.606999993       2501.08691      -1.57051170    
   1.87709999       0.00000000     -0.606999993       2501.08691      -1.57051170    
   1.84103203     -0.366203994     -0.606999993       1239.42712      -1.57079840    
   2.54972792     -0.507171988     -0.517000020       1239.42712      -1.57079840    
   2.40179110     -0.994853973     -0.517000020       1239.42712      -1.57079840    
   1.73421395     -0.718334973     -0.606999993       1239.42712      -1.57079840    
   1.73421395     -0.718334973     -0.606999993       2404.53589      -1.57050419    
   1.26109600     -0.522363007     -0.606999993       2404.53589      -1.57050419    
   1.33877206     -0.266297996     -0.606999993       2404.53589      -1.57050419    
   1.84103203     -0.366203994     -0.606999993       2404.53589      -1.57050419    
   1.73421395     -0.718334973     -0.606999993       1142.36426      -1.57084548    
   2.40179110     -0.994853973     -0.517000020       1142.36426      -1.57084548    
   2.16155505      -1.44430494     -0.517000020       1142.36426      -1.57084548    
   1.56075203      -1.04286098     -0.606999993       1142.36426      -1.57084548    
   1.56075203      -1.04286098     -0.606999993       2214.74536      -1.57048476    
   1.13495600     -0.758352995     -0.606999993       2214.74536      -1.57048476    
   1.26109600     -0.522363007     -0.606999993       2214.74536      -1.57048476    