 VARIABLES="X" "Y" "Z" "abs(p) (Pa)" "angle(p) (rad)"
ZONE N=   2709,E =    2358, F=FEPOINT, ET=QUADRILATERAL
   0.00000000      -5.48999977     -0.157000005       206.873322      -1.36409163    
   0.00000000      -4.76741982     -0.246999994       206.873322      -1.36409163    
  0.930077016      -4.67581606     -0.246999994       206.873322      -1.36409163    
   1.07104599      -5.38451099     -0.157000005       206.873322      -1.36409163    
  -1.07104599      -5.38451099     -0.157000005       198.896652       1.77437496    
 -0.930077016      -4.67581606     -0.246999994       198.896652       1.77437496    
   0.00000000      -4.76741982     -0.246999994       198.896652       1.77437496    
   0.00000000      -5.48999977     -0.157000005       198.896652       1.77437496    
  -2.10093188      -5.07209921     -0.157000005       591.792175       1.77657390    
  -1.82441294      -4.40452194     -0.246999994       591.792175       1.77657390    
 -0.930077016      -4.67581606     -0.246999994       591.792175       1.77657390    
  -1.07104599      -5.38451099     -0.157000005       591.792175       1.77657390    
  -3.05008101      -4.56476784     -0.157000005       953.243347       1.77944469    
  -2.64863706      -3.96396494     -0.246999994       953.243347       1.77944469    
  -1.82441294      -4.40452194     -0.246999994       953.243347       1.77944469    
  -2.10093188      -5.07209921     -0.157000005       953.243347       1.77944469    
  -3.88201594      -3.88201594     -0.157000005       1276.94214       1.78060353    
  -3.37107491      -3.37107491     -0.246999994       1276.94214       1.78060353    
  -2.64863706      -3.96396494     -0.246999994       1276.94214       1.78060353    
  -3.05008101      -4.56476784     -0.157000005       1276.94214       1.78060353    
  -4.56476784      -3.05008101     -0.157000005       1554.99487       1.78024936    
  -3.96396494      -2.64863706     -0.246999994       1554.99487       1.78024936    
  -3.37107491      -3.37107491     -0.246999994       1554.99487       1.78024936    
  -3.88201594      -3.88201594     -0.157000005       1554.99487       1.78024936    
  -5.07209921      -2.10093188     -0.157000005       1781.59998       1.78027892    
  -4.40452194      -1.82441294     -0.246999994       1781.59998       1.78027892    
  -3.96396494      -2.64863706     -0.246999994       1781.59998       1.78027892    
  -4.56476784      -3.05008101     -0.157000005       1781.59998       1.78027892    
  -5.38451099      -1.07104599     -0.157000005       1940.38623       1.77976036    
  -4.67581606     -0.930077016     -0.246999994       1940.38623       1.77976036    
  -4.40452194      -1.82441294     -0.246999994       1940.38623       1.77976036    
  -5.07209921      -2.10093188     -0.157000005       1940.38623       1.77976036    
  -5.48999977       0.00000000     -0.157000005       2018.73425       1.77916324    
  -4.76741982       0.00000000     -0.246999994       2018.73425       1.77916324    
  -4.67581606     -0.930077016     -0.246999994       2018.73425       1.77916324    
  -5.38451099      -1.07104599     -0.157000005       2018.73425       1.77916324    
  -5.38451099       1.07104599     -0.157000005       2021.93640       1.77888179    
  -4.67581606      0.930077016     -0.246999994       2021.93640       1.77888179    
  -4.76741982       0.00000000     -0.246999994       2021.93640       1.77888179    
  -5.48999977       0.00000000     -0.157000005       2021.93640       1.77888179    
  -5.07209921       2.10093188     -0.157000005       1948.41113       1.77860439    
  -4.40452194       1.82441294     -0.246999994       1948.41113       1.77860439    
  -4.67581606      0.930077016     -0.246999994       1948.41113       1.77860439    
  -5.38451099       1.07104599     -0.157000005       1948.41113       1.77860439    
  -4.56476784       3.05008101     -0.157000005       1794.08691       1.77898991    
  -3.96396494       2.64863706     -0.246999994       1794.08691       1.77898991    
  -4.40452194       1.82441294     -0.246999994       1794.08691       1.77898991    
  -5.07209921       2.10093188     -0.157000005       1794.08691       1.77898991    
  -3.88201594       3.88201594     -0.157000005       1570.89648       1.77995813    
  -3.37107491       3.37107491     -0.246999994       1570.89648       1.77995813    
  -3.96396494       2.64863706     -0.246999994       1570.89648       1.77995813    
  -4.56476784       3.05008101     -0.157000005       1570.89648       1.77995813    
  -3.05008101       4.56476784     -0.157000005       1288.65735       1.77979398    
  -2.64863706       3.96396494     -0.246999994       1288.65735       1.77979398    
  -3.37107491       3.37107491     -0.246999994       1288.65735       1.77979398    
  -3.88201594       3.88201594     -0.157000005       1288.65735       1.77979398    
  -2.10093188       5.07209921     -0.157000005       962.994263       1.77953625    
  -1.82441294       4.40452194     -0.246999994       962.994263       1.77953625    
  -2.64863706       3.96396494     -0.246999994       962.994263       1.77953625    
  -3.05008101       4.56476784     -0.157000005       962.994263       1.77953625    
  -1.07104599       5.38451099     -0.157000005       600.153442       1.77756262    
 -0.930077016       4.67581606     -0.246999994       600.153442       1.77756262    
  -1.82441294       4.40452194     -0.246999994       600.153442       1.77756262    
  -2.10093188       5.07209921     -0.157000005       600.153442       1.77756262    
   0.00000000       5.48999977     -0.157000005       207.344635       1.77729726    
   0.00000000       4.76741982     -0.246999994       207.344635       1.77729726    
 -0.930077016       4.67581606     -0.246999994       207.344635       1.77729726    
  -1.07104599       5.38451099     -0.157000005       207.344635       1.77729726    
   1.07104599       5.38451099     -0.157000005       198.355057      -1.36750042    
  0.930077016       4.67581606     -0.246999994       198.355057      -1.36750042    
   0.00000000       4.76741982     -0.246999994       198.355057      -1.36750042    
   0.00000000       5.48999977     -0.157000005       198.355057      -1.36750042    
   2.10093188       5.07209921     -0.157000005       591.922119      -1.36447656    
   1.82441294       4.40452194     -0.246999994       591.922119      -1.36447656    
  0.930077016       4.67581606     -0.246999994       591.922119      -1.36447656    
   1.07104599       5.38451099     -0.157000005       591.922119      -1.36447656    
   3.05008101       4.56476784     -0.157000005       954.883118      -1.36251950    
   2.64863706       3.96396494     -0.246999994       954.883118      -1.36251950    
   1.82441294       4.40452194     -0.246999994       954.883118      -1.36251950    
   2.10093188       5.07209921     -0.157000005       954.883118      -1.36251950    
   3.88201594       3.88201594     -0.157000005       1281.23218      -1.36227024    
   3.37107491       3.37107491     -0.246999994       1281.23218      -1.36227024    
   2.64863706       3.96396494     -0.246999994       1281.23218      -1.36227024    
   3.05008101       4.56476784     -0.157000005       1281.23218      -1.36227024    
   4.56476784       3.05008101     -0.157000005       1563.68701      -1.36225224    
   3.96396494       2.64863706     -0.246999994       1563.68701      -1.36225224    
   3.37107491       3.37107491     -0.246999994       1563.68701      -1.36225224    
   3.88201594       3.88201594     -0.157000005       1563.68701      -1.36225224    
   5.07209921       2.10093188     -0.157000005       1789.40149      -1.36278522    
   4.40452194       1.82441294     -0.246999994       1789.40149      -1.36278522    
   3.96396494       2.64863706     -0.246999994       1789.40149      -1.36278522    
   4.56476784       3.05008101     -0.157000005       1789.40149      -1.36278522    
   5.38451099       1.07104599     -0.157000005       1947.44202      -1.36250055    
   4.67581606      0.930077016     -0.246999994       1947.44202      -1.36250055    
   4.40452194       1.82441294     -0.246999994       1947.44202      -1.36250055    
   5.07209921       2.10093188     -0.157000005       1947.44202      -1.36250055    
   5.48999977       0.00000000     -0.157000005       2023.17810      -1.36205781    
   4.76741982       0.00000000     -0.246999994       2023.17810      -1.36205781    
   4.67581606      0.930077016     -0.246999994       2023.17810      -1.36205781    
   5.38451099       1.07104599     -0.157000005       2023.17810      -1.36205781    
   5.38451099      -1.07104599     -0.157000005       2021.53528      -1.36177695    
   4.67581606     -0.930077016     -0.246999994       2021.53528      -1.36177695    
   4.76741982       0.00000000     -0.246999994       2021.53528      -1.36177695    
   5.48999977       0.00000000     -0.157000005       2021.53528      -1.36177695    
   5.07209921      -2.10093188     -0.157000005       1943.27124      -1.36160910    
   4.40452194      -1.82441294     -0.246999994       1943.27124      -1.36160910    
   4.67581606     -0.930077016     -0.246999994       1943.27124      -1.36160910    
   5.38451099      -1.07104599     -0.157000005       1943.27124      -1.36160910    
   4.56476784      -3.05008101     -0.157000005       1786.14539      -1.36098599    
   3.96396494      -2.64863706     -0.246999994       1786.14539      -1.36098599    
   4.40452194      -1.82441294     -0.246999994       1786.14539      -1.36098599    
   5.07209921      -2.10093188     -0.157000005       1786.14539      -1.36098599    
   3.88201594      -3.88201594     -0.157000005       1562.04041      -1.36047316    
   3.37107491      -3.37107491     -0.246999994       1562.04041      -1.36047316    
   3.96396494      -2.64863706     -0.246999994       1562.04041      -1.36047316    
   4.56476784      -3.05008101     -0.157000005       1562.04041      -1.36047316    
   3.05008101      -4.56476784     -0.157000005       1282.42578      -1.36095393    
   2.64863706      -3.96396494     -0.246999994       1282.42578      -1.36095393    
   3.37107491      -3.37107491     -0.246999994       1282.42578      -1.36095393    
   3.88201594      -3.88201594     -0.157000005       1282.42578      -1.36095393    
   2.10093188      -5.07209921     -0.157000005       960.267944      -1.36161053    
   1.82441294      -4.40452194     -0.246999994       960.267944      -1.36161053    
   2.64863706      -3.96396494     -0.246999994       960.267944      -1.36161053    
   3.05008101      -4.56476784     -0.157000005       960.267944      -1.36161053    
   1.07104599      -5.38451099     -0.157000005       599.787537      -1.36350000    
  0.930077016      -4.67581606     -0.246999994       599.787537      -1.36350000    
   1.82441294      -4.40452194     -0.246999994       599.787537      -1.36350000    
   2.10093188      -5.07209921     -0.157000005       599.787537      -1.36350000    
   0.00000000      -1.87709999     -0.606999993       882.115540      -1.55819261    
   0.00000000      -1.36500001     -0.606999993       882.115540      -1.55819261    
  0.266297996      -1.33877206     -0.606999993       882.115540      -1.55819261    
  0.366203994      -1.84103203     -0.606999993       882.115540      -1.55819261    
   0.00000000      -1.87709999     -0.606999993       505.480988       1.60304248    
   0.00000000      -2.59967995     -0.517000020       505.480988       1.60304248    
 -0.507171988      -2.54972792     -0.517000020       505.480988       1.60304248    
 -0.366203994      -1.84103203     -0.606999993       505.480988       1.60304248    
 -0.366203994      -1.84103203     -0.606999993       771.454041       1.58320010    
 -0.266297996      -1.33877206     -0.606999993       771.454041       1.58320010    
   0.00000000      -1.36500001     -0.606999993       771.454041       1.58320010    
   0.00000000      -1.87709999     -0.606999993       771.454041       1.58320010    
 -0.366203994      -1.84103203     -0.606999993       1535.60864       1.60269749    
 -0.507171988      -2.54972792     -0.517000020       1535.60864       1.60269749    
 -0.994853973      -2.40179110     -0.517000020       1535.60864       1.60269749    
 -0.718334973      -1.73421395     -0.606999993       1535.60864       1.60269749    
 -0.718334973      -1.73421395     -0.606999993       2380.99707       1.58324492    
 -0.522363007      -1.26109600     -0.606999993       2380.99707       1.58324492    
 -0.266297996      -1.33877206     -0.606999993       2380.99707       1.58324492    
 -0.366203994      -1.84103203     -0.606999993       2380.99707       1.58324492    
 -0.718334973      -1.73421395     -0.606999993       2446.84399       1.60297620    
 -0.994853973      -2.40179110     -0.517000020       2446.84399       1.60297620    
  -1.44430494      -2.16155505     -0.517000020       2446.84399       1.60297620    
  -1.04286098      -1.56075203     -0.606999993       2446.84399       1.60297620    
  -1.04286098      -1.56075203     -0.606999993       3867.96655       1.58321786    
 -0.758352995      -1.13495600     -0.606999993       3867.96655       1.58321786    
 -0.522363007      -1.26109600     -0.606999993       3867.96655       1.58321786    
 -0.718334973      -1.73421395     -0.606999993       3867.96655       1.58321786    
  -1.04286098      -1.56075203     -0.606999993       3236.78882       1.60324848    
  -1.44430494      -2.16155505     -0.517000020       3236.78882       1.60324848    
  -1.83825099      -1.83825099     -0.517000020       3236.78882       1.60324848    
  -1.32730997      -1.32730997     -0.606999993       3236.78882       1.60324848    
  -1.32730997      -1.32730997     -0.606999993       5187.58154       1.58319616    
 -0.965201020     -0.965201020     -0.606999993       5187.58154       1.58319616    
 -0.758352995      -1.13495600     -0.606999993       5187.58154       1.58319616    
  -1.04286098      -1.56075203     -0.606999993       5187.58154       1.58319616    
  -1.32730997      -1.32730997     -0.606999993       3922.78662       1.60335672    
  -1.83825099      -1.83825099     -0.517000020       3922.78662       1.60335672    
  -2.16155505      -1.44430494     -0.517000020       3922.78662       1.60335672    
  -1.56075203      -1.04286098     -0.606999993       3922.78662       1.60335672    
  -1.56075203      -1.04286098     -0.606999993       6314.59424       1.58319044    
  -1.13495600     -0.758352995     -0.606999993       6314.59424       1.58319044    
 -0.965201020     -0.965201020     -0.606999993       6314.59424       1.58319044    
  -1.32730997      -1.32730997     -0.606999993       6314.59424       1.58319044    
  -1.56075203      -1.04286098     -0.606999993       4500.54639       1.60328901    
  -2.16155505      -1.44430494     -0.517000020       4500.54639       1.60328901    
  -2.40179110     -0.994853973     -0.517000020       4500.54639       1.60328901    
  -1.73421395     -0.718334973     -0.606999993       4500.54639       1.60328901    
  -1.73421395     -0.718334973     -0.606999993       7223.49561       1.58319330    
  -1.26109600     -0.522363007     -0.606999993       7223.49561       1.58319330    
  -1.13495600     -0.758352995     -0.606999993       7223.49561       1.58319330    
  -1.56075203      -1.04286098     -0.606999993       7223.49561       1.58319330    
  -1.73421395     -0.718334973     -0.606999993       4929.59326       1.60314023    
  -2.40179110     -0.994853973     -0.517000020       4929.59326       1.60314023    
  -2.54972792     -0.507171988     -0.517000020       4929.59326       1.60314023    
  -1.84103203     -0.366203994     -0.606999993       4929.59326       1.60314023    
  -1.84103203     -0.366203994     -0.606999993       7872.00439       1.58319890    
  -1.33877206     -0.266297996     -0.606999993       7872.00439       1.58319890    
  -1.26109600     -0.522363007     -0.606999993       7872.00439       1.58319890    
  -1.73421395     -0.718334973     -0.606999993       7872.00439       1.58319890    
  -1.84103203     -0.366203994     -0.606999993       5163.35986       1.60301793    
  -2.54972792     -0.507171988     -0.517000020       5163.35986       1.60301793    
  -2.59967995       0.00000000     -0.517000020       5163.35986       1.60301793    
  -1.87709999       0.00000000     -0.606999993       5163.35986       1.60301793    
  -1.87709999       0.00000000     -0.606999993       8216.99512       1.58320224    
  -1.36500001       0.00000000     -0.606999993       8216.99512       1.58320224    
  -1.33877206     -0.266297996     -0.606999993       8216.99512       1.58320224    
  -1.84103203     -0.366203994     -0.606999993       8216.99512       1.58320224    
  -1.87709999       0.00000000     -0.606999993       5173.51221       1.60298669    
  -2.59967995       0.00000000     -0.517000020       5173.51221       1.60298669    
  -2.54972792      0.507171988     -0.517000020       5173.51221       1.60298669    
  -1.84103203      0.366203994     -0.606999993       5173.51221       1.60298669    
  -1.84103203      0.366203994     -0.606999993       8230.27441       1.58319867    
  -1.33877206      0.266297996     -0.606999993       8230.27441       1.58319867    
  -1.36500001       0.00000000     -0.606999993       8230.27441       1.58319867    
  -1.87709999       0.00000000     -0.606999993       8230.27441       1.58319867    
  -1.84103203      0.366203994     -0.606999993       4956.94678       1.60305655    
  -2.54972792      0.507171988     -0.517000020       4956.94678       1.60305655    
  -2.40179110      0.994853973     -0.517000020       4956.94678       1.60305655    
  -1.73421395      0.718334973     -0.606999993       4956.94678       1.60305655    
  -1.73421395      0.718334973     -0.606999993       7909.55615       1.58318746    
  -1.26109600      0.522363007     -0.606999993       7909.55615       1.58318746    
  -1.33877206      0.266297996     -0.606999993       7909.55615       1.58318746    
  -1.84103203      0.366203994     -0.606999993       7909.55615       1.58318746    
  -1.73421395      0.718334973     -0.606999993       4536.89014       1.60317409    
  -2.40179110      0.994853973     -0.517000020       4536.89014       1.60317409    
  -2.16155505       1.44430494     -0.517000020       4536.89014       1.60317409    
  -1.56075203       1.04286098     -0.606999993       4536.89014       1.60317409    
  -1.56075203       1.04286098     -0.606999993       7279.84570       1.58317101    
  -1.13495600      0.758352995     -0.606999993       7279.84570       1.58317101    
  -1.26109600      0.522363007     -0.606999993       7279.84570       1.58317101    
  -1.73421395      0.718334973     -0.606999993       7279.84570       1.58317101    
  -1.56075203       1.04286098     -0.606999993       3960.22461       1.60322618    
  -2.16155505       1.44430494     -0.517000020       3960.22461       1.60322618    
  -1.83825099       1.83825099     -0.517000020       3960.22461       1.60322618    
  -1.32730997       1.32730997     -0.606999993       3960.22461       1.60322618    
  -1.32730997       1.32730997     -0.606999993       6383.64844       1.58315539    
 -0.965201020      0.965201020     -0.606999993       6383.64844       1.58315539    
  -1.13495600      0.758352995     -0.606999993       6383.64844       1.58315539    
  -1.56075203       1.04286098     -0.606999993       6383.64844       1.58315539    
  -1.32730997       1.32730997     -0.606999993       3273.76538       1.60308635    
  -1.83825099       1.83825099     -0.517000020       3273.76538       1.60308635    
  -1.44430494       2.16155505     -0.517000020       3273.76538       1.60308635    
  -1.04286098       1.56075203     -0.606999993       3273.76538       1.60308635    
  -1.04286098       1.56075203     -0.606999993       5265.29492       1.58315039    
 -0.758352995       1.13495600     -0.606999993       5265.29492       1.58315039    
 -0.965201020      0.965201020     -0.606999993       5265.29492       1.58315039    
  -1.32730997       1.32730997     -0.606999993       5265.29492       1.58315039    
  -1.04286098       1.56075203     -0.606999993       2488.10498       1.60272324    
  -1.44430494       2.16155505     -0.517000020       2488.10498       1.60272324    
 -0.994853973       2.40179110     -0.517000020       2488.10498       1.60272324    
 -0.718334973       1.73421395     -0.606999993       2488.10498       1.60272324    
 -0.718334973       1.73421395     -0.606999993       3954.89795       1.58316159    
 -0.522363007       1.26109600     -0.606999993       3954.89795       1.58316159    
 -0.758352995       1.13495600     -0.606999993       3954.89795       1.58316159    
  -1.04286098       1.56075203     -0.606999993       3954.89795       1.58316159    
 -0.718334973       1.73421395     -0.606999993       1587.02844       1.60219419    
 -0.994853973       2.40179110     -0.517000020       1587.02844       1.60219419    
 -0.507171988       2.54972792     -0.517000020       1587.02844       1.60219419    
 -0.366203994       1.84103203     -0.606999993       1587.02844       1.60219419    
 -0.366203994       1.84103203     -0.606999993       2480.03931       1.58317077    
 -0.266297996       1.33877206     -0.606999993       2480.03931       1.58317077    
 -0.522363007       1.26109600     -0.606999993       2480.03931       1.58317077    
 -0.718334973       1.73421395     -0.606999993       2480.03931       1.58317077    
 -0.366203994       1.84103203     -0.606999993       570.215820       1.60123980    
 -0.507171988       2.54972792     -0.517000020       570.215820       1.60123980    
   0.00000000       2.59967995     -0.517000020       570.215820       1.60123980    
   0.00000000       1.87709999     -0.606999993       570.215820       1.60123980    
   0.00000000       1.87709999     -0.606999993       882.989136       1.58308887    
   0.00000000       1.36500001     -0.606999993       882.989136       1.58308887    
 -0.266297996       1.33877206     -0.606999993       882.989136       1.58308887    
 -0.366203994       1.84103203     -0.606999993       882.989136       1.58308887    
   0.00000000       1.87709999     -0.606999993       496.448120      -1.53804457    
   0.00000000       2.59967995     -0.517000020       496.448120      -1.53804457    
  0.507171988       2.54972792     -0.517000020       496.448120      -1.53804457    
  0.366203994       1.84103203     -0.606999993       496.448120      -1.53804457    
  0.366203994       1.84103203     -0.606999993       761.098755      -1.55815697    
  0.266297996       1.33877206     -0.606999993       761.098755      -1.55815697    
   0.00000000       1.36500001     -0.606999993       761.098755      -1.55815697    
   0.00000000       1.87709999     -0.606999993       761.098755      -1.55815697    
  0.366203994       1.84103203     -0.606999993       1516.60303      -1.53864098    
  0.507171988       2.54972792     -0.517000020       1516.60303      -1.53864098    
  0.994853973       2.40179110     -0.517000020       1516.60303      -1.53864098    
  0.718334973       1.73421395     -0.606999993       1516.60303      -1.53864098    
  0.718334973       1.73421395     -0.606999993       2363.31982      -1.55831313    
  0.522363007       1.26109600     -0.606999993       2363.31982      -1.55831313    
  0.266297996       1.33877206     -0.606999993       2363.31982      -1.55831313    
  0.366203994       1.84103203     -0.606999993       2363.31982      -1.55831313    
  0.718334973       1.73421395     -0.606999993       2423.61450      -1.53842616    
  0.994853973       2.40179110     -0.517000020       2423.61450      -1.53842616    
   1.44430494       2.16155505     -0.517000020       2423.61450      -1.53842616    
   1.04286098       1.56075203     -0.606999993       2423.61450      -1.53842616    
   1.04286098       1.56075203     -0.606999993       3848.45215      -1.55837548    
  0.758352995       1.13495600     -0.606999993       3848.45215      -1.55837548    
  0.522363007       1.26109600     -0.606999993       3848.45215      -1.55837548    
  0.718334973       1.73421395     -0.606999993       3848.45215      -1.55837548    
   1.04286098       1.56075203     -0.606999993       3217.56006      -1.53821254    
   1.44430494       2.16155505     -0.517000020       3217.56006      -1.53821254    
   1.83825099       1.83825099     -0.517000020       3217.56006      -1.53821254    
   1.32730997       1.32730997     -0.606999993       3217.56006      -1.53821254    
   1.32730997       1.32730997     -0.606999993       5173.22070      -1.55841005    
  0.965201020      0.965201020     -0.606999993       5173.22070      -1.55841005    
  0.758352995       1.13495600     -0.606999993       5173.22070      -1.55841005    
   1.04286098       1.56075203     -0.606999993       5173.22070      -1.55841005    
   1.32730997       1.32730997     -0.606999993       3914.13281      -1.53816473    
   1.83825099       1.83825099     -0.517000020       3914.13281      -1.53816473    
   2.16155505       1.44430494     -0.517000020       3914.13281      -1.53816473    
   1.56075203       1.04286098     -0.606999993       3914.13281      -1.53816473    
   1.56075203       1.04286098     -0.606999993       6309.10498      -1.55841601    
   1.13495600      0.758352995     -0.606999993       6309.10498      -1.55841601    
  0.965201020      0.965201020     -0.606999993       6309.10498      -1.55841601    
   1.32730997       1.32730997     -0.606999993       6309.10498      -1.55841601    
   1.56075203       1.04286098     -0.606999993       4502.12158      -1.53827786    
   2.16155505       1.44430494     -0.517000020       4502.12158      -1.53827786    
   2.40179110      0.994853973     -0.517000020       4502.12158      -1.53827786    
   1.73421395      0.718334973     -0.606999993       4502.12158      -1.53827786    
   1.73421395      0.718334973     -0.606999993       7223.02783      -1.55839944    
   1.26109600      0.522363007     -0.606999993       7223.02783      -1.55839944    
   1.13495600      0.758352995     -0.606999993       7223.02783      -1.55839944    
   1.56075203       1.04286098     -0.606999993       7223.02783      -1.55839944    
   1.73421395      0.718334973     -0.606999993       4934.33594      -1.53843951    
   2.40179110      0.994853973     -0.517000020       4934.33594      -1.53843951    
   2.54972792      0.507171988     -0.517000020       4934.33594      -1.53843951    
   1.84103203      0.366203994     -0.606999993       4934.33594      -1.53843951    
   1.84103203      0.366203994     -0.606999993       7872.37500      -1.55838180    
   1.33877206      0.266297996     -0.606999993       7872.37500      -1.55838180    
   1.26109600      0.522363007     -0.606999993       7872.37500      -1.55838180    
   1.73421395      0.718334973     -0.606999993       7872.37500      -1.55838180    
   1.84103203      0.366203994     -0.606999993       5163.80127      -1.53854692    
   2.54972792      0.507171988     -0.517000020       5163.80127      -1.53854692    
   2.59967995       0.00000000     -0.517000020       5163.80127      -1.53854692    
   1.87709999       0.00000000     -0.606999993       5163.80127      -1.53854692    
   1.87709999       0.00000000     -0.606999993       8214.66602      -1.55837202    
   1.36500001       0.00000000     -0.606999993       8214.66602      -1.55837202    
   1.33877206      0.266297996     -0.606999993       8214.66602      -1.55837202    
   1.84103203      0.366203994     -0.606999993       8214.66602      -1.55837202    
   1.87709999       0.00000000     -0.606999993       5166.95605      -1.53855371    
   2.59967995       0.00000000     -0.517000020       5166.95605      -1.53855371    
   2.54972792     -0.507171988     -0.517000020       5166.95605      -1.53855371    
   1.84103203     -0.366203994     -0.606999993       5166.95605      -1.53855371    
   1.84103203     -0.366203994     -0.606999993       8223.42188      -1.55836976    
   1.33877206     -0.266297996     -0.606999993       8223.42188      -1.55836976    
   1.36500001       0.00000000     -0.606999993       8223.42188      -1.55836976    
   1.87709999       0.00000000     -0.606999993       8223.42188      -1.55836976    
   1.84103203     -0.366203994     -0.606999993       4946.37695      -1.53847265    
   2.54972792     -0.507171988     -0.517000020       4946.37695      -1.53847265    
   2.40179110     -0.994853973     -0.517000020       4946.37695      -1.53847265    
   1.73421395     -0.718334973     -0.606999993       4946.37695      -1.53847265    
   1.73421395     -0.718334973     -0.606999993       7900.64453      -1.55837476    
   1.26109600     -0.522363007     -0.606999993       7900.64453      -1.55837476    
   1.33877206     -0.266297996     -0.606999993       7900.64453      -1.55837476    
   1.84103203     -0.366203994     -0.606999993       7900.64453      -1.55837476    
   1.73421395     -0.718334973     -0.606999993       4529.80029      -1.53836977    
   2.40179110     -0.994853973     -0.517000020       4529.80029      -1.53836977    
   2.16155505      -1.44430494     -0.517000020       4529.80029      -1.53836977    
   1.56075203      -1.04286098     -0.606999993       4529.80029      -1.53836977    
   1.56075203      -1.04286098     -0.606999993       7274.13770      -1.55838346    
   1.13495600     -0.758352995     -0.606999993       7274.13770      -1.55838346    
   1.26109600     -0.522363007     -0.606999993       7274.13770      -1.55838346    