 VARIABLES="X" "Y" "Z" "abs(p) (Pa)" "angle(p) (rad)"
ZONE N=   2709,E =    2358, F=FEPOINT, ET=QUADRILATERAL
   0.00000000      -5.48999977     -0.157000005       94.8037186      -1.56946850    
   0.00000000      -4.76741982     -0.246999994       94.8037186      -1.56946850    
  0.930077016      -4.67581606     -0.246999994       94.8037186      -1.56946850    
   1.07104599      -5.38451099     -0.157000005       94.8037186      -1.56946850    
  -1.07104599      -5.38451099     -0.157000005       91.0868988       1.57350683    
 -0.930077016      -4.67581606     -0.246999994       91.0868988       1.57350683    
   0.00000000      -4.76741982     -0.246999994       91.0868988       1.57350683    
   0.00000000      -5.48999977     -0.157000005       91.0868988       1.57350683    
  -2.10093188      -5.07209921     -0.157000005       271.008209       1.57305467    
  -1.82441294      -4.40452194     -0.246999994       271.008209       1.57305467    
 -0.930077016      -4.67581606     -0.246999994       271.008209       1.57305467    
  -1.07104599      -5.38451099     -0.157000005       271.008209       1.57305467    
  -3.05008101      -4.56476784     -0.157000005       434.443146       1.57300019    
  -2.64863706      -3.96396494     -0.246999994       434.443146       1.57300019    
  -1.82441294      -4.40452194     -0.246999994       434.443146       1.57300019    
  -2.10093188      -5.07209921     -0.157000005       434.443146       1.57300019    
  -3.88201594      -3.88201594     -0.157000005       581.361267       1.57297873    
  -3.37107491      -3.37107491     -0.246999994       581.361267       1.57297873    
  -2.64863706      -3.96396494     -0.246999994       581.361267       1.57297873    
  -3.05008101      -4.56476784     -0.157000005       581.361267       1.57297873    
  -4.56476784      -3.05008101     -0.157000005       709.394592       1.57295609    
  -3.96396494      -2.64863706     -0.246999994       709.394592       1.57295609    
  -3.37107491      -3.37107491     -0.246999994       709.394592       1.57295609    
  -3.88201594      -3.88201594     -0.157000005       709.394592       1.57295609    
  -5.07209921      -2.10093188     -0.157000005       811.618896       1.57294726    
  -4.40452194      -1.82441294     -0.246999994       811.618896       1.57294726    
  -3.96396494      -2.64863706     -0.246999994       811.618896       1.57294726    
  -4.56476784      -3.05008101     -0.157000005       811.618896       1.57294726    
  -5.38451099      -1.07104599     -0.157000005       884.573547       1.57293677    
  -4.67581606     -0.930077016     -0.246999994       884.573547       1.57293677    
  -4.40452194      -1.82441294     -0.246999994       884.573547       1.57293677    
  -5.07209921      -2.10093188     -0.157000005       884.573547       1.57293677    
  -5.48999977       0.00000000     -0.157000005       921.845642       1.57293141    
  -4.76741982       0.00000000     -0.246999994       921.845642       1.57293141    
  -4.67581606     -0.930077016     -0.246999994       921.845642       1.57293141    
  -5.38451099      -1.07104599     -0.157000005       921.845642       1.57293141    
  -5.38451099       1.07104599     -0.157000005       923.807190       1.57293165    
  -4.67581606      0.930077016     -0.246999994       923.807190       1.57293165    
  -4.76741982       0.00000000     -0.246999994       923.807190       1.57293165    
  -5.48999977       0.00000000     -0.157000005       923.807190       1.57293165    
  -5.07209921       2.10093188     -0.157000005       890.743652       1.57293463    
  -4.40452194       1.82441294     -0.246999994       890.743652       1.57293463    
  -4.67581606      0.930077016     -0.246999994       890.743652       1.57293463    
  -5.38451099       1.07104599     -0.157000005       890.743652       1.57293463    
  -4.56476784       3.05008101     -0.157000005       819.609985       1.57295203    
  -3.96396494       2.64863706     -0.246999994       819.609985       1.57295203    
  -4.40452194       1.82441294     -0.246999994       819.609985       1.57295203    
  -5.07209921       2.10093188     -0.157000005       819.609985       1.57295203    
  -3.88201594       3.88201594     -0.157000005       716.097473       1.57298338    
  -3.37107491       3.37107491     -0.246999994       716.097473       1.57298338    
  -3.96396494       2.64863706     -0.246999994       716.097473       1.57298338    
  -4.56476784       3.05008101     -0.157000005       716.097473       1.57298338    
  -3.05008101       4.56476784     -0.157000005       588.062256       1.57301569    
  -2.64863706       3.96396494     -0.246999994       588.062256       1.57301569    
  -3.37107491       3.37107491     -0.246999994       588.062256       1.57301569    
  -3.88201594       3.88201594     -0.157000005       588.062256       1.57301569    
  -2.10093188       5.07209921     -0.157000005       439.341766       1.57307291    
  -1.82441294       4.40452194     -0.246999994       439.341766       1.57307291    
  -2.64863706       3.96396494     -0.246999994       439.341766       1.57307291    
  -3.05008101       4.56476784     -0.157000005       439.341766       1.57307291    
  -1.07104599       5.38451099     -0.157000005       275.033020       1.57318997    
 -0.930077016       4.67581606     -0.246999994       275.033020       1.57318997    
  -1.82441294       4.40452194     -0.246999994       275.033020       1.57318997    
  -2.10093188       5.07209921     -0.157000005       275.033020       1.57318997    
   0.00000000       5.48999977     -0.157000005       95.2777328       1.57388723    
   0.00000000       4.76741982     -0.246999994       95.2777328       1.57388723    
 -0.930077016       4.67581606     -0.246999994       95.2777328       1.57388723    
  -1.07104599       5.38451099     -0.157000005       95.2777328       1.57388723    
   1.07104599       5.38451099     -0.157000005       90.5991592      -1.56993270    
  0.930077016       4.67581606     -0.246999994       90.5991592      -1.56993270    
   0.00000000       4.76741982     -0.246999994       90.5991592      -1.56993270    
   0.00000000       5.48999977     -0.157000005       90.5991592      -1.56993270    
   2.10093188       5.07209921     -0.157000005       270.149658      -1.56915021    
   1.82441294       4.40452194     -0.246999994       270.149658      -1.56915021    
  0.930077016       4.67581606     -0.246999994       270.149658      -1.56915021    
   1.07104599       5.38451099     -0.157000005       270.149658      -1.56915021    
   3.05008101       4.56476784     -0.157000005       434.968842      -1.56898105    
   2.64863706       3.96396494     -0.246999994       434.968842      -1.56898105    
   1.82441294       4.40452194     -0.246999994       434.968842      -1.56898105    
   2.10093188       5.07209921     -0.157000005       434.968842      -1.56898105    
   3.88201594       3.88201594     -0.157000005       584.444641      -1.56891453    
   3.37107491       3.37107491     -0.246999994       584.444641      -1.56891453    
   2.64863706       3.96396494     -0.246999994       584.444641      -1.56891453    
   3.05008101       4.56476784     -0.157000005       584.444641      -1.56891453    
   4.56476784       3.05008101     -0.157000005       713.441284      -1.56888175    
   3.96396494       2.64863706     -0.246999994       713.441284      -1.56888175    
   3.37107491       3.37107491     -0.246999994       713.441284      -1.56888175    
   3.88201594       3.88201594     -0.157000005       713.441284      -1.56888175    
   5.07209921       2.10093188     -0.157000005       817.186096      -1.56886768    
   4.40452194       1.82441294     -0.246999994       817.186096      -1.56886768    
   3.96396494       2.64863706     -0.246999994       817.186096      -1.56886768    
   4.56476784       3.05008101     -0.157000005       817.186096      -1.56886768    
   5.38451099       1.07104599     -0.157000005       888.006470      -1.56885242    
   4.67581606      0.930077016     -0.246999994       888.006470      -1.56885242    
   4.40452194       1.82441294     -0.246999994       888.006470      -1.56885242    
   5.07209921       2.10093188     -0.157000005       888.006470      -1.56885242    
   5.48999977       0.00000000     -0.157000005       921.664551      -1.56883907    
   4.76741982       0.00000000     -0.246999994       921.664551      -1.56883907    
   4.67581606      0.930077016     -0.246999994       921.664551      -1.56883907    
   5.38451099       1.07104599     -0.157000005       921.664551      -1.56883907    
   5.38451099      -1.07104599     -0.157000005       920.660706      -1.56883204    
   4.67581606     -0.930077016     -0.246999994       920.660706      -1.56883204    
   4.76741982       0.00000000     -0.246999994       920.660706      -1.56883204    
   5.48999977       0.00000000     -0.157000005       920.660706      -1.56883204    
   5.07209921      -2.10093188     -0.157000005       885.168579      -1.56883061    
   4.40452194      -1.82441294     -0.246999994       885.168579      -1.56883061    
   4.67581606     -0.930077016     -0.246999994       885.168579      -1.56883061    
   5.38451099      -1.07104599     -0.157000005       885.168579      -1.56883061    
   4.56476784      -3.05008101     -0.157000005       812.942688      -1.56882727    
   3.96396494      -2.64863706     -0.246999994       812.942688      -1.56882727    
   4.40452194      -1.82441294     -0.246999994       812.942688      -1.56882727    
   5.07209921      -2.10093188     -0.157000005       812.942688      -1.56882727    
   3.88201594      -3.88201594     -0.157000005       710.770264      -1.56882942    
   3.37107491      -3.37107491     -0.246999994       710.770264      -1.56882942    
   3.96396494      -2.64863706     -0.246999994       710.770264      -1.56882942    
   4.56476784      -3.05008101     -0.157000005       710.770264      -1.56882942    
   3.05008101      -4.56476784     -0.157000005       584.514648      -1.56885242    
   2.64863706      -3.96396494     -0.246999994       584.514648      -1.56885242    
   3.37107491      -3.37107491     -0.246999994       584.514648      -1.56885242    
   3.88201594      -3.88201594     -0.157000005       584.514648      -1.56885242    
   2.10093188      -5.07209921     -0.157000005       437.705170      -1.56889653    
   1.82441294      -4.40452194     -0.246999994       437.705170      -1.56889653    
   2.64863706      -3.96396494     -0.246999994       437.705170      -1.56889653    
   3.05008101      -4.56476784     -0.157000005       437.705170      -1.56889653    
   1.07104599      -5.38451099     -0.157000005       274.213043      -1.56900644    
  0.930077016      -4.67581606     -0.246999994       274.213043      -1.56900644    
   1.82441294      -4.40452194     -0.246999994       274.213043      -1.56900644    
   2.10093188      -5.07209921     -0.157000005       274.213043      -1.56900644    
   0.00000000      -1.87709999     -0.606999993       512.180969      -1.57084751    
   0.00000000      -1.36500001     -0.606999993       512.180969      -1.57084751    
  0.266297996      -1.33877206     -0.606999993       512.180969      -1.57084751    
  0.366203994      -1.84103203     -0.606999993       512.180969      -1.57084751    
   0.00000000      -1.87709999     -0.606999993       286.539398       1.57132983    
   0.00000000      -2.59967995     -0.517000020       286.539398       1.57132983    
 -0.507171988      -2.54972792     -0.517000020       286.539398       1.57132983    
 -0.366203994      -1.84103203     -0.606999993       286.539398       1.57132983    
 -0.366203994      -1.84103203     -0.606999993       438.107819       1.57106543    
 -0.266297996      -1.33877206     -0.606999993       438.107819       1.57106543    
   0.00000000      -1.36500001     -0.606999993       438.107819       1.57106543    
   0.00000000      -1.87709999     -0.606999993       438.107819       1.57106543    
 -0.366203994      -1.84103203     -0.606999993       877.709534       1.57115686    
 -0.507171988      -2.54972792     -0.517000020       877.709534       1.57115686    
 -0.994853973      -2.40179110     -0.517000020       877.709534       1.57115686    
 -0.718334973      -1.73421395     -0.606999993       877.709534       1.57115686    
 -0.718334973      -1.73421395     -0.606999993       1363.82727       1.57094765    
 -0.522363007      -1.26109600     -0.606999993       1363.82727       1.57094765    
 -0.266297996      -1.33877206     -0.606999993       1363.82727       1.57094765    
 -0.366203994      -1.84103203     -0.606999993       1363.82727       1.57094765    
 -0.718334973      -1.73421395     -0.606999993       1402.98157       1.57112777    
 -0.994853973      -2.40179110     -0.517000020       1402.98157       1.57112777    
  -1.44430494      -2.16155505     -0.517000020       1402.98157       1.57112777    
  -1.04286098      -1.56075203     -0.606999993       1402.98157       1.57112777    
  -1.04286098      -1.56075203     -0.606999993       2220.62842       1.57092607    
 -0.758352995      -1.13495600     -0.606999993       2220.62842       1.57092607    
 -0.522363007      -1.26109600     -0.606999993       2220.62842       1.57092607    
 -0.718334973      -1.73421395     -0.606999993       2220.62842       1.57092607    
  -1.04286098      -1.56075203     -0.606999993       1859.80029       1.57111692    
  -1.44430494      -2.16155505     -0.517000020       1859.80029       1.57111692    
  -1.83825099      -1.83825099     -0.517000020       1859.80029       1.57111692    
  -1.32730997      -1.32730997     -0.606999993       1859.80029       1.57111692    
  -1.32730997      -1.32730997     -0.606999993       2982.19751       1.57091689    
 -0.965201020     -0.965201020     -0.606999993       2982.19751       1.57091689    
 -0.758352995      -1.13495600     -0.606999993       2982.19751       1.57091689    
  -1.04286098      -1.56075203     -0.606999993       2982.19751       1.57091689    
  -1.32730997      -1.32730997     -0.606999993       2256.39087       1.57111108    
  -1.83825099      -1.83825099     -0.517000020       2256.39087       1.57111108    
  -2.16155505      -1.44430494     -0.517000020       2256.39087       1.57111108    
  -1.56075203      -1.04286098     -0.606999993       2256.39087       1.57111108    
  -1.56075203      -1.04286098     -0.606999993       3632.87744       1.57091224    
  -1.13495600     -0.758352995     -0.606999993       3632.87744       1.57091224    
 -0.965201020     -0.965201020     -0.606999993       3632.87744       1.57091224    
  -1.32730997      -1.32730997     -0.606999993       3632.87744       1.57091224    
  -1.56075203      -1.04286098     -0.606999993       2589.17139       1.57110667    
  -2.16155505      -1.44430494     -0.517000020       2589.17139       1.57110667    
  -2.40179110     -0.994853973     -0.517000020       2589.17139       1.57110667    
  -1.73421395     -0.718334973     -0.606999993       2589.17139       1.57110667    
  -1.73421395     -0.718334973     -0.606999993       4157.23828       1.57090974    
  -1.26109600     -0.522363007     -0.606999993       4157.23828       1.57090974    
  -1.13495600     -0.758352995     -0.606999993       4157.23828       1.57090974    
  -1.56075203      -1.04286098     -0.606999993       4157.23828       1.57090974    
  -1.73421395     -0.718334973     -0.606999993       2835.19629       1.57110357    
  -2.40179110     -0.994853973     -0.517000020       2835.19629       1.57110357    
  -2.54972792     -0.507171988     -0.517000020       2835.19629       1.57110357    
  -1.84103203     -0.366203994     -0.606999993       2835.19629       1.57110357    
  -1.84103203     -0.366203994     -0.606999993       4530.97852       1.57090843    
  -1.33877206     -0.266297996     -0.606999993       4530.97852       1.57090843    
  -1.26109600     -0.522363007     -0.606999993       4530.97852       1.57090843    
  -1.73421395     -0.718334973     -0.606999993       4530.97852       1.57090843    
  -1.84103203     -0.366203994     -0.606999993       2969.12427       1.57110214    
  -2.54972792     -0.507171988     -0.517000020       2969.12427       1.57110214    
  -2.59967995       0.00000000     -0.517000020       2969.12427       1.57110214    
  -1.87709999       0.00000000     -0.606999993       2969.12427       1.57110214    
  -1.87709999       0.00000000     -0.606999993       4729.99121       1.57090795    
  -1.36500001       0.00000000     -0.606999993       4729.99121       1.57090795    
  -1.33877206     -0.266297996     -0.606999993       4729.99121       1.57090795    
  -1.84103203     -0.366203994     -0.606999993       4729.99121       1.57090795    
  -1.87709999       0.00000000     -0.606999993       2975.53149       1.57110226    
  -2.59967995       0.00000000     -0.517000020       2975.53149       1.57110226    
  -2.54972792      0.507171988     -0.517000020       2975.53149       1.57110226    
  -1.84103203      0.366203994     -0.606999993       2975.53149       1.57110226    
  -1.84103203      0.366203994     -0.606999993       4738.78613       1.57090807    
  -1.33877206      0.266297996     -0.606999993       4738.78613       1.57090807    
  -1.36500001       0.00000000     -0.606999993       4738.78613       1.57090807    
  -1.87709999       0.00000000     -0.606999993       4738.78613       1.57090807    
  -1.84103203      0.366203994     -0.606999993       2852.74048       1.57110417    
  -2.54972792      0.507171988     -0.517000020       2852.74048       1.57110417    
  -2.40179110      0.994853973     -0.517000020       2852.74048       1.57110417    
  -1.73421395      0.718334973     -0.606999993       2852.74048       1.57110417    
  -1.73421395      0.718334973     -0.606999993       4556.00342       1.57090878    
  -1.26109600      0.522363007     -0.606999993       4556.00342       1.57090878    
  -1.33877206      0.266297996     -0.606999993       4556.00342       1.57090878    
  -1.84103203      0.366203994     -0.606999993       4556.00342       1.57090878    
  -1.73421395      0.718334973     -0.606999993       2613.35767       1.57110775    
  -2.40179110      0.994853973     -0.517000020       2613.35767       1.57110775    
  -2.16155505       1.44430494     -0.517000020       2613.35767       1.57110775    
  -1.56075203       1.04286098     -0.606999993       2613.35767       1.57110775    
  -1.56075203       1.04286098     -0.606999993       4195.45654       1.57091022    
  -1.13495600      0.758352995     -0.606999993       4195.45654       1.57091022    
  -1.26109600      0.522363007     -0.606999993       4195.45654       1.57091022    
  -1.73421395      0.718334973     -0.606999993       4195.45654       1.57091022    
  -1.56075203       1.04286098     -0.606999993       2282.76221       1.57111347    
  -2.16155505       1.44430494     -0.517000020       2282.76221       1.57111347    
  -1.83825099       1.83825099     -0.517000020       2282.76221       1.57111347    
  -1.32730997       1.32730997     -0.606999993       2282.76221       1.57111347    
  -1.32730997       1.32730997     -0.606999993       3680.63208       1.57091284    
 -0.965201020      0.965201020     -0.606999993       3680.63208       1.57091284    
  -1.13495600      0.758352995     -0.606999993       3680.63208       1.57091284    
  -1.56075203       1.04286098     -0.606999993       3680.63208       1.57091284    
  -1.32730997       1.32730997     -0.606999993       1887.08923       1.57112050    
  -1.83825099       1.83825099     -0.517000020       1887.08923       1.57112050    
  -1.44430494       2.16155505     -0.517000020       1887.08923       1.57112050    
  -1.04286098       1.56075203     -0.606999993       1887.08923       1.57112050    
  -1.04286098       1.56075203     -0.606999993       3036.72778       1.57091784    
 -0.758352995       1.13495600     -0.606999993       3036.72778       1.57091784    
 -0.965201020      0.965201020     -0.606999993       3036.72778       1.57091784    
  -1.32730997       1.32730997     -0.606999993       3036.72778       1.57091784    
  -1.04286098       1.56075203     -0.606999993       1433.37830       1.57113290    
  -1.44430494       2.16155505     -0.517000020       1433.37830       1.57113290    
 -0.994853973       2.40179110     -0.517000020       1433.37830       1.57113290    
 -0.718334973       1.73421395     -0.606999993       1433.37830       1.57113290    
 -0.718334973       1.73421395     -0.606999993       2281.68408       1.57092738    
 -0.522363007       1.26109600     -0.606999993       2281.68408       1.57092738    
 -0.758352995       1.13495600     -0.606999993       2281.68408       1.57092738    
  -1.04286098       1.56075203     -0.606999993       2281.68408       1.57092738    
 -0.718334973       1.73421395     -0.606999993       914.095703       1.57116365    
 -0.994853973       2.40179110     -0.517000020       914.095703       1.57116365    
 -0.507171988       2.54972792     -0.517000020       914.095703       1.57116365    
 -0.366203994       1.84103203     -0.606999993       914.095703       1.57116365    
 -0.366203994       1.84103203     -0.606999993       1432.35730       1.57094955    
 -0.266297996       1.33877206     -0.606999993       1432.35730       1.57094955    
 -0.522363007       1.26109600     -0.606999993       1432.35730       1.57094955    
 -0.718334973       1.73421395     -0.606999993       1432.35730       1.57094955    
 -0.366203994       1.84103203     -0.606999993       330.347687       1.57132137    
 -0.507171988       2.54972792     -0.517000020       330.347687       1.57132137    
   0.00000000       2.59967995     -0.517000020       330.347687       1.57132137    
   0.00000000       1.87709999     -0.606999993       330.347687       1.57132137    
   0.00000000       1.87709999     -0.606999993       513.674011       1.57105339    
   0.00000000       1.36500001     -0.606999993       513.674011       1.57105339    
 -0.266297996       1.33877206     -0.606999993       513.674011       1.57105339    
 -0.366203994       1.84103203     -0.606999993       513.674011       1.57105339    
   0.00000000       1.87709999     -0.606999993       281.083435      -1.57081699    
   0.00000000       2.59967995     -0.517000020       281.083435      -1.57081699    
  0.507171988       2.54972792     -0.517000020       281.083435      -1.57081699    
  0.366203994       1.84103203     -0.606999993       281.083435      -1.57081699    
  0.366203994       1.84103203     -0.606999993       431.757080      -1.57089245    
  0.266297996       1.33877206     -0.606999993       431.757080      -1.57089245    
   0.00000000       1.36500001     -0.606999993       431.757080      -1.57089245    
   0.00000000       1.87709999     -0.606999993       431.757080      -1.57089245    
  0.366203994       1.84103203     -0.606999993       867.022217      -1.57061565    
  0.507171988       2.54972792     -0.517000020       867.022217      -1.57061565    
  0.994853973       2.40179110     -0.517000020       867.022217      -1.57061565    
  0.718334973       1.73421395     -0.606999993       867.022217      -1.57061565    
  0.718334973       1.73421395     -0.606999993       1353.84937      -1.57076216    
  0.522363007       1.26109600     -0.606999993       1353.84937      -1.57076216    
  0.266297996       1.33877206     -0.606999993       1353.84937      -1.57076216    
  0.366203994       1.84103203     -0.606999993       1353.84937      -1.57076216    
  0.718334973       1.73421395     -0.606999993       1390.21606      -1.57057714    
  0.994853973       2.40179110     -0.517000020       1390.21606      -1.57057714    
   1.44430494       2.16155505     -0.517000020       1390.21606      -1.57057714    
   1.04286098       1.56075203     -0.606999993       1390.21606      -1.57057714    
   1.04286098       1.56075203     -0.606999993       2209.95288      -1.57073891    
  0.758352995       1.13495600     -0.606999993       2209.95288      -1.57073891    
  0.522363007       1.26109600     -0.606999993       2209.95288      -1.57073891    
  0.718334973       1.73421395     -0.606999993       2209.95288      -1.57073891    
   1.04286098       1.56075203     -0.606999993       1849.38123      -1.57056057    
   1.44430494       2.16155505     -0.517000020       1849.38123      -1.57056057    
   1.83825099       1.83825099     -0.517000020       1849.38123      -1.57056057    
   1.32730997       1.32730997     -0.606999993       1849.38123      -1.57056057    
   1.32730997       1.32730997     -0.606999993       2974.50952      -1.57072973    
  0.965201020      0.965201020     -0.606999993       2974.50952      -1.57072973    
  0.758352995       1.13495600     -0.606999993       2974.50952      -1.57072973    
   1.04286098       1.56075203     -0.606999993       2974.50952      -1.57072973    
   1.32730997       1.32730997     -0.606999993       2251.73340      -1.57055140    
   1.83825099       1.83825099     -0.517000020       2251.73340      -1.57055140    
   2.16155505       1.44430494     -0.517000020       2251.73340      -1.57055140    
   1.56075203       1.04286098     -0.606999993       2251.73340      -1.57055140    
   1.56075203       1.04286098     -0.606999993       3630.09985      -1.57072473    
   1.13495600      0.758352995     -0.606999993       3630.09985      -1.57072473    
  0.965201020      0.965201020     -0.606999993       3630.09985      -1.57072473    
   1.32730997       1.32730997     -0.606999993       3630.09985      -1.57072473    
   1.56075203       1.04286098     -0.606999993       2589.84302      -1.57054710    
   2.16155505       1.44430494     -0.517000020       2589.84302      -1.57054710    
   2.40179110      0.994853973     -0.517000020       2589.84302      -1.57054710    
   1.73421395      0.718334973     -0.606999993       2589.84302      -1.57054710    
   1.73421395      0.718334973     -0.606999993       4156.90869      -1.57072139    
   1.26109600      0.522363007     -0.606999993       4156.90869      -1.57072139    
   1.13495600      0.758352995     -0.606999993       4156.90869      -1.57072139    
   1.56075203       1.04286098     -0.606999993       4156.90869      -1.57072139    
   1.73421395      0.718334973     -0.606999993       2837.32764      -1.57054484    
   2.40179110      0.994853973     -0.517000020       2837.32764      -1.57054484    
   2.54972792      0.507171988     -0.517000020       2837.32764      -1.57054484    
   1.84103203      0.366203994     -0.606999993       2837.32764      -1.57054484    
   1.84103203      0.366203994     -0.606999993       4530.73535      -1.57071948    
   1.33877206      0.266297996     -0.606999993       4530.73535      -1.57071948    
   1.26109600      0.522363007     -0.606999993       4530.73535      -1.57071948    
   1.73421395      0.718334973     -0.606999993       4530.73535      -1.57071948    
   1.84103203      0.366203994     -0.606999993       2968.72241      -1.57054365    
   2.54972792      0.507171988     -0.517000020       2968.72241      -1.57054365    
   2.59967995       0.00000000     -0.517000020       2968.72241      -1.57054365    
   1.87709999       0.00000000     -0.606999993       2968.72241      -1.57054365    
   1.87709999       0.00000000     -0.606999993       4727.97607      -1.57071841    
   1.36500001       0.00000000     -0.606999993       4727.97607      -1.57071841    
   1.33877206      0.266297996     -0.606999993       4727.97607      -1.57071841    
   1.84103203      0.366203994     -0.606999993       4727.97607      -1.57071841    
   1.87709999       0.00000000     -0.606999993       2971.19849      -1.57054329    
   2.59967995       0.00000000     -0.517000020       2971.19849      -1.57054329    
   2.54972792     -0.507171988     -0.517000020       2971.19849      -1.57054329    
   1.84103203     -0.366203994     -0.606999993       2971.19849      -1.57054329    
   1.84103203     -0.366203994     -0.606999993       4734.08398      -1.57071817    
   1.33877206     -0.266297996     -0.606999993       4734.08398      -1.57071817    
   1.36500001       0.00000000     -0.606999993       4734.08398      -1.57071817    
   1.87709999       0.00000000     -0.606999993       4734.08398      -1.57071817    
   1.84103203     -0.366203994     -0.606999993       2846.08301      -1.57054365    
   2.54972792     -0.507171988     -0.517000020       2846.08301      -1.57054365    
   2.40179110     -0.994853973     -0.517000020       2846.08301      -1.57054365    
   1.73421395     -0.718334973     -0.606999993       2846.08301      -1.57054365    
   1.73421395     -0.718334973     -0.606999993       4549.98389      -1.57071877    
   1.26109600     -0.522363007     -0.606999993       4549.98389      -1.57071877    
   1.33877206     -0.266297996     -0.606999993       4549.98389      -1.57071877    
   1.84103203     -0.366203994     -0.606999993       4549.98389      -1.57071877    
   1.73421395     -0.718334973     -0.606999993       2608.36255      -1.57054484    
   2.40179110     -0.994853973     -0.517000020       2608.36255      -1.57054484    
   2.16155505      -1.44430494     -0.517000020       2608.36255      -1.57054484    
   1.56075203      -1.04286098     -0.606999993       2608.36255      -1.57054484    
   1.56075203      -1.04286098     -0.606999993       4190.87939      -1.57072031    
   1.13495600     -0.758352995     -0.606999993       4190.87939      -1.57072031    
   1.26109600     -0.522363007     -0.606999993       4190.87939      -1.57072031    