 VARIABLES="X" "Y" "Z" "abs(p) (Pa)" "angle(p) (rad)"
ZONE N=   2709,E =    2358, F=FEPOINT, ET=QUADRILATERAL
   0.00000000      -5.48999977     -0.157000005       1150.38330      -1.55809569    
   0.00000000      -4.76741982     -0.246999994       1150.38330      -1.55809569    
  0.930077016      -4.67581606     -0.246999994       1150.38330      -1.55809569    
   1.07104599      -5.38451099     -0.157000005       1150.38330      -1.55809569    
  -1.07104599      -5.38451099     -0.157000005       1150.93225      -1.55809128    
 -0.930077016      -4.67581606     -0.246999994       1150.93225      -1.55809128    
   0.00000000      -4.76741982     -0.246999994       1150.93225      -1.55809128    
   0.00000000      -5.48999977     -0.157000005       1150.93225      -1.55809128    
  -2.10093188      -5.07209921     -0.157000005       1108.35803      -1.55816114    
  -1.82441294      -4.40452194     -0.246999994       1108.35803      -1.55816114    
 -0.930077016      -4.67581606     -0.246999994       1108.35803      -1.55816114    
  -1.07104599      -5.38451099     -0.157000005       1108.35803      -1.55816114    
  -3.05008101      -4.56476784     -0.157000005       1022.36188      -1.55822980    
  -2.64863706      -3.96396494     -0.246999994       1022.36188      -1.55822980    
  -1.82441294      -4.40452194     -0.246999994       1022.36188      -1.55822980    
  -2.10093188      -5.07209921     -0.157000005       1022.36188      -1.55822980    
  -3.88201594      -3.88201594     -0.157000005       901.189697      -1.55844295    
  -3.37107491      -3.37107491     -0.246999994       901.189697      -1.55844295    
  -2.64863706      -3.96396494     -0.246999994       901.189697      -1.55844295    
  -3.05008101      -4.56476784     -0.157000005       901.189697      -1.55844295    
  -4.56476784      -3.05008101     -0.157000005       744.643921      -1.55881548    
  -3.96396494      -2.64863706     -0.246999994       744.643921      -1.55881548    
  -3.37107491      -3.37107491     -0.246999994       744.643921      -1.55881548    
  -3.88201594      -3.88201594     -0.157000005       744.643921      -1.55881548    
  -5.07209921      -2.10093188     -0.157000005       553.928589      -1.55932868    
  -4.40452194      -1.82441294     -0.246999994       553.928589      -1.55932868    
  -3.96396494      -2.64863706     -0.246999994       553.928589      -1.55932868    
  -4.56476784      -3.05008101     -0.157000005       553.928589      -1.55932868    
  -5.38451099      -1.07104599     -0.157000005       341.214142      -1.56060648    
  -4.67581606     -0.930077016     -0.246999994       341.214142      -1.56060648    
  -4.40452194      -1.82441294     -0.246999994       341.214142      -1.56060648    
  -5.07209921      -2.10093188     -0.157000005       341.214142      -1.56060648    
  -5.48999977       0.00000000     -0.157000005       118.248795      -1.56725216    
  -4.76741982       0.00000000     -0.246999994       118.248795      -1.56725216    
  -4.67581606     -0.930077016     -0.246999994       118.248795      -1.56725216    
  -5.38451099      -1.07104599     -0.157000005       118.248795      -1.56725216    
  -5.38451099       1.07104599     -0.157000005       107.392265       1.59586191    
  -4.67581606      0.930077016     -0.246999994       107.392265       1.59586191    
  -4.76741982       0.00000000     -0.246999994       107.392265       1.59586191    
  -5.48999977       0.00000000     -0.157000005       107.392265       1.59586191    
  -5.07209921       2.10093188     -0.157000005       331.100830       1.58815908    
  -4.40452194       1.82441294     -0.246999994       331.100830       1.58815908    
  -4.67581606      0.930077016     -0.246999994       331.100830       1.58815908    
  -5.38451099       1.07104599     -0.157000005       331.100830       1.58815908    
  -4.56476784       3.05008101     -0.157000005       546.147278       1.58661354    
  -3.96396494       2.64863706     -0.246999994       546.147278       1.58661354    
  -4.40452194       1.82441294     -0.246999994       546.147278       1.58661354    
  -5.07209921       2.10093188     -0.157000005       546.147278       1.58661354    
  -3.88201594       3.88201594     -0.157000005       739.940979       1.58601236    
  -3.37107491       3.37107491     -0.246999994       739.940979       1.58601236    
  -3.96396494       2.64863706     -0.246999994       739.940979       1.58601236    
  -4.56476784       3.05008101     -0.157000005       739.940979       1.58601236    
  -3.05008101       4.56476784     -0.157000005       902.583191       1.58570719    
  -2.64863706       3.96396494     -0.246999994       902.583191       1.58570719    
  -3.37107491       3.37107491     -0.246999994       902.583191       1.58570719    
  -3.88201594       3.88201594     -0.157000005       902.583191       1.58570719    
  -2.10093188       5.07209921     -0.157000005       1025.94604       1.58563030    
  -1.82441294       4.40452194     -0.246999994       1025.94604       1.58563030    
  -2.64863706       3.96396494     -0.246999994       1025.94604       1.58563030    
  -3.05008101       4.56476784     -0.157000005       1025.94604       1.58563030    
  -1.07104599       5.38451099     -0.157000005       1113.43018       1.58552957    
 -0.930077016       4.67581606     -0.246999994       1113.43018       1.58552957    
  -1.82441294       4.40452194     -0.246999994       1113.43018       1.58552957    
  -2.10093188       5.07209921     -0.157000005       1113.43018       1.58552957    
   0.00000000       5.48999977     -0.157000005       1157.93738       1.58552146    
   0.00000000       4.76741982     -0.246999994       1157.93738       1.58552146    
 -0.930077016       4.67581606     -0.246999994       1157.93738       1.58552146    
  -1.07104599       5.38451099     -0.157000005       1157.93738       1.58552146    
   1.07104599       5.38451099     -0.157000005       1159.03772       1.58550048    
  0.930077016       4.67581606     -0.246999994       1159.03772       1.58550048    
   0.00000000       4.76741982     -0.246999994       1159.03772       1.58550048    
   0.00000000       5.48999977     -0.157000005       1159.03772       1.58550048    
   2.10093188       5.07209921     -0.157000005       1114.22266       1.58558118    
   1.82441294       4.40452194     -0.246999994       1114.22266       1.58558118    
  0.930077016       4.67581606     -0.246999994       1114.22266       1.58558118    
   1.07104599       5.38451099     -0.157000005       1114.22266       1.58558118    
   3.05008101       4.56476784     -0.157000005       1028.28125       1.58567071    
   2.64863706       3.96396494     -0.246999994       1028.28125       1.58567071    
   1.82441294       4.40452194     -0.246999994       1028.28125       1.58567071    
   2.10093188       5.07209921     -0.157000005       1028.28125       1.58567071    
   3.88201594       3.88201594     -0.157000005       905.856750       1.58575678    
   3.37107491       3.37107491     -0.246999994       905.856750       1.58575678    
   2.64863706       3.96396494     -0.246999994       905.856750       1.58575678    
   3.05008101       4.56476784     -0.157000005       905.856750       1.58575678    
   4.56476784       3.05008101     -0.157000005       744.293152       1.58605921    
   3.96396494       2.64863706     -0.246999994       744.293152       1.58605921    
   3.37107491       3.37107491     -0.246999994       744.293152       1.58605921    
   3.88201594       3.88201594     -0.157000005       744.293152       1.58605921    
   5.07209921       2.10093188     -0.157000005       550.585754       1.58672285    
   4.40452194       1.82441294     -0.246999994       550.585754       1.58672285    
   3.96396494       2.64863706     -0.246999994       550.585754       1.58672285    
   4.56476784       3.05008101     -0.157000005       550.585754       1.58672285    
   5.38451099       1.07104599     -0.157000005       335.697266       1.58838141    
   4.67581606      0.930077016     -0.246999994       335.697266       1.58838141    
   4.40452194       1.82441294     -0.246999994       335.697266       1.58838141    
   5.07209921       2.10093188     -0.157000005       335.697266       1.58838141    
   5.48999977       0.00000000     -0.157000005       112.244614       1.59617352    
   4.76741982       0.00000000     -0.246999994       112.244614       1.59617352    
   4.67581606      0.930077016     -0.246999994       112.244614       1.59617352    
   5.38451099       1.07104599     -0.157000005       112.244614       1.59617352    
   5.38451099      -1.07104599     -0.157000005       113.294136      -1.56842387    
   4.67581606     -0.930077016     -0.246999994       113.294136      -1.56842387    
   4.76741982       0.00000000     -0.246999994       113.294136      -1.56842387    
   5.48999977       0.00000000     -0.157000005       113.294136      -1.56842387    
   5.07209921      -2.10093188     -0.157000005       336.459320      -1.56089401    
   4.40452194      -1.82441294     -0.246999994       336.459320      -1.56089401    
   4.67581606     -0.930077016     -0.246999994       336.459320      -1.56089401    
   5.38451099      -1.07104599     -0.157000005       336.459320      -1.56089401    
   4.56476784      -3.05008101     -0.157000005       549.468384      -1.55947018    
   3.96396494      -2.64863706     -0.246999994       549.468384      -1.55947018    
   4.40452194      -1.82441294     -0.246999994       549.468384      -1.55947018    
   5.07209921      -2.10093188     -0.157000005       549.468384      -1.55947018    
   3.88201594      -3.88201594     -0.157000005       740.189453      -1.55887282    
   3.37107491      -3.37107491     -0.246999994       740.189453      -1.55887282    
   3.96396494      -2.64863706     -0.246999994       740.189453      -1.55887282    
   4.56476784      -3.05008101     -0.157000005       740.189453      -1.55887282    
   3.05008101      -4.56476784     -0.157000005       898.733093      -1.55853605    
   2.64863706      -3.96396494     -0.246999994       898.733093      -1.55853605    
   3.37107491      -3.37107491     -0.246999994       898.733093      -1.55853605    
   3.88201594      -3.88201594     -0.157000005       898.733093      -1.55853605    
   2.10093188      -5.07209921     -0.157000005       1020.04907      -1.55826926    
   1.82441294      -4.40452194     -0.246999994       1020.04907      -1.55826926    
   2.64863706      -3.96396494     -0.246999994       1020.04907      -1.55826926    
   3.05008101      -4.56476784     -0.157000005       1020.04907      -1.55826926    
   1.07104599      -5.38451099     -0.157000005       1106.18481      -1.55815065    
  0.930077016      -4.67581606     -0.246999994       1106.18481      -1.55815065    
   1.82441294      -4.40452194     -0.246999994       1106.18481      -1.55815065    
   2.10093188      -5.07209921     -0.157000005       1106.18481      -1.55815065    
   0.00000000      -1.87709999     -0.606999993       5714.50781      -1.57031548    
   0.00000000      -1.36500001     -0.606999993       5714.50781      -1.57031548    
  0.266297996      -1.33877206     -0.606999993       5714.50781      -1.57031548    
  0.366203994      -1.84103203     -0.606999993       5714.50781      -1.57031548    
   0.00000000      -1.87709999     -0.606999993       3552.77490      -1.56918836    
   0.00000000      -2.59967995     -0.517000020       3552.77490      -1.56918836    
 -0.507171988      -2.54972792     -0.517000020       3552.77490      -1.56918836    
 -0.366203994      -1.84103203     -0.606999993       3552.77490      -1.56918836    
 -0.366203994      -1.84103203     -0.606999993       5722.40625      -1.57031488    
 -0.266297996      -1.33877206     -0.606999993       5722.40625      -1.57031488    
   0.00000000      -1.36500001     -0.606999993       5722.40625      -1.57031488    
   0.00000000      -1.87709999     -0.606999993       5722.40625      -1.57031488    
 -0.366203994      -1.84103203     -0.606999993       3440.98560      -1.56920433    
 -0.507171988      -2.54972792     -0.517000020       3440.98560      -1.56920433    
 -0.994853973      -2.40179110     -0.517000020       3440.98560      -1.56920433    
 -0.718334973      -1.73421395     -0.606999993       3440.98560      -1.56920433    
 -0.718334973      -1.73421395     -0.606999993       5526.50635      -1.57032049    
 -0.522363007      -1.26109600     -0.606999993       5526.50635      -1.57032049    
 -0.266297996      -1.33877206     -0.606999993       5526.50635      -1.57032049    
 -0.366203994      -1.84103203     -0.606999993       5526.50635      -1.57032049    
 -0.718334973      -1.73421395     -0.606999993       3208.92529      -1.56923711    
 -0.994853973      -2.40179110     -0.517000020       3208.92529      -1.56923711    
  -1.44430494      -2.16155505     -0.517000020       3208.92529      -1.56923711    
  -1.04286098      -1.56075203     -0.606999993       3208.92529      -1.56923711    
  -1.04286098      -1.56075203     -0.606999993       5125.31934      -1.57033420    
 -0.758352995      -1.13495600     -0.606999993       5125.31934      -1.57033420    
 -0.522363007      -1.26109600     -0.606999993       5125.31934      -1.57033420    
 -0.718334973      -1.73421395     -0.606999993       5125.31934      -1.57033420    
  -1.04286098      -1.56075203     -0.606999993       2847.12793      -1.56929028    
  -1.44430494      -2.16155505     -0.517000020       2847.12793      -1.56929028    
  -1.83825099      -1.83825099     -0.517000020       2847.12793      -1.56929028    
  -1.32730997      -1.32730997     -0.606999993       2847.12793      -1.56929028    
  -1.32730997      -1.32730997     -0.606999993       4520.23975      -1.57036150    
 -0.965201020     -0.965201020     -0.606999993       4520.23975      -1.57036150    
 -0.758352995      -1.13495600     -0.606999993       4520.23975      -1.57036150    
  -1.04286098      -1.56075203     -0.606999993       4520.23975      -1.57036150    
  -1.32730997      -1.32730997     -0.606999993       2350.97607      -1.56937706    
  -1.83825099      -1.83825099     -0.517000020       2350.97607      -1.56937706    
  -2.16155505      -1.44430494     -0.517000020       2350.97607      -1.56937706    
  -1.56075203      -1.04286098     -0.606999993       2350.97607      -1.56937706    
  -1.56075203      -1.04286098     -0.606999993       3725.68481      -1.57041371    
  -1.13495600     -0.758352995     -0.606999993       3725.68481      -1.57041371    
 -0.965201020     -0.965201020     -0.606999993       3725.68481      -1.57041371    
  -1.32730997      -1.32730997     -0.606999993       3725.68481      -1.57041371    
  -1.56075203      -1.04286098     -0.606999993       1739.00220      -1.56954014    
  -2.16155505      -1.44430494     -0.517000020       1739.00220      -1.56954014    
  -2.40179110     -0.994853973     -0.517000020       1739.00220      -1.56954014    
  -1.73421395     -0.718334973     -0.606999993       1739.00220      -1.56954014    
  -1.73421395     -0.718334973     -0.606999993       2776.27295      -1.57051885    
  -1.26109600     -0.522363007     -0.606999993       2776.27295      -1.57051885    
  -1.13495600     -0.758352995     -0.606999993       2776.27295      -1.57051885    
  -1.56075203      -1.04286098     -0.606999993       2776.27295      -1.57051885    
  -1.73421395     -0.718334973     -0.606999993       1063.48804      -1.56994176    
  -2.40179110     -0.994853973     -0.517000020       1063.48804      -1.56994176    
  -2.54972792     -0.507171988     -0.517000020       1063.48804      -1.56994176    
  -1.84103203     -0.366203994     -0.606999993       1063.48804      -1.56994176    
  -1.84103203     -0.366203994     -0.606999993       1722.71155      -1.57077050    
  -1.33877206     -0.266297996     -0.606999993       1722.71155      -1.57077050    
  -1.26109600     -0.522363007     -0.606999993       1722.71155      -1.57077050    
  -1.73421395     -0.718334973     -0.606999993       1722.71155      -1.57077050    
  -1.84103203     -0.366203994     -0.606999993       375.857788      -1.57189178    
  -2.54972792     -0.507171988     -0.517000020       375.857788      -1.57189178    
  -2.59967995       0.00000000     -0.517000020       375.857788      -1.57189178    
  -1.87709999       0.00000000     -0.606999993       375.857788      -1.57189178    
  -1.87709999       0.00000000     -0.606999993       616.483521      -1.57194841    
  -1.36500001       0.00000000     -0.606999993       616.483521      -1.57194841    
  -1.33877206     -0.266297996     -0.606999993       616.483521      -1.57194841    
  -1.84103203     -0.366203994     -0.606999993       616.483521      -1.57194841    
  -1.87709999       0.00000000     -0.606999993       302.855621       1.57651758    
  -2.59967995       0.00000000     -0.517000020       302.855621       1.57651758    
  -2.54972792      0.507171988     -0.517000020       302.855621       1.57651758    
  -1.84103203      0.366203994     -0.606999993       302.855621       1.57651758    
  -1.84103203      0.366203994     -0.606999993       502.174500       1.57371998    
  -1.33877206      0.266297996     -0.606999993       502.174500       1.57371998    
  -1.36500001       0.00000000     -0.606999993       502.174500       1.57371998    
  -1.87709999       0.00000000     -0.606999993       502.174500       1.57371998    
  -1.84103203      0.366203994     -0.606999993       981.086304       1.57389879    
  -2.54972792      0.507171988     -0.517000020       981.086304       1.57389879    
  -2.40179110      0.994853973     -0.517000020       981.086304       1.57389879    
  -1.73421395      0.718334973     -0.606999993       981.086304       1.57389879    
  -1.73421395      0.718334973     -0.606999993       1604.89282       1.57217777    
  -1.26109600      0.522363007     -0.606999993       1604.89282       1.57217777    
  -1.33877206      0.266297996     -0.606999993       1604.89282       1.57217777    
  -1.84103203      0.366203994     -0.606999993       1604.89282       1.57217777    
  -1.73421395      0.718334973     -0.606999993       1650.49109       1.57341015    
  -2.40179110      0.994853973     -0.517000020       1650.49109       1.57341015    
  -2.16155505       1.44430494     -0.517000020       1650.49109       1.57341015    
  -1.56075203       1.04286098     -0.606999993       1650.49109       1.57341015    
  -1.56075203       1.04286098     -0.606999993       2657.62573       1.57190144    
  -1.13495600      0.758352995     -0.606999993       2657.62573       1.57190144    
  -1.26109600      0.522363007     -0.606999993       2657.62573       1.57190144    
  -1.73421395      0.718334973     -0.606999993       2657.62573       1.57190144    
  -1.56075203       1.04286098     -0.606999993       2269.39844       1.57320952    
  -2.16155505       1.44430494     -0.517000020       2269.39844       1.57320952    
  -1.83825099       1.83825099     -0.517000020       2269.39844       1.57320952    
  -1.32730997       1.32730997     -0.606999993       2269.39844       1.57320952    
  -1.32730997       1.32730997     -0.606999993       3614.10181       1.57179081    
 -0.965201020      0.965201020     -0.606999993       3614.10181       1.57179081    
  -1.13495600      0.758352995     -0.606999993       3614.10181       1.57179081    
  -1.56075203       1.04286098     -0.606999993       3614.10181       1.57179081    
  -1.32730997       1.32730997     -0.606999993       2782.87622       1.57311273    
  -1.83825099       1.83825099     -0.517000020       2782.87622       1.57311273    
  -1.44430494       2.16155505     -0.517000020       2782.87622       1.57311273    
  -1.04286098       1.56075203     -0.606999993       2782.87622       1.57311273    
  -1.04286098       1.56075203     -0.606999993       4423.15137       1.57173383    
 -0.758352995       1.13495600     -0.606999993       4423.15137       1.57173383    
 -0.965201020      0.965201020     -0.606999993       4423.15137       1.57173383    
  -1.32730997       1.32730997     -0.606999993       4423.15137       1.57173383    
  -1.04286098       1.56075203     -0.606999993       3163.49170       1.57306719    
  -1.44430494       2.16155505     -0.517000020       3163.49170       1.57306719    
 -0.994853973       2.40179110     -0.517000020       3163.49170       1.57306719    
 -0.718334973       1.73421395     -0.606999993       3163.49170       1.57306719    
 -0.718334973       1.73421395     -0.606999993       5047.83496       1.57170093    
 -0.522363007       1.26109600     -0.606999993       5047.83496       1.57170093    
 -0.758352995       1.13495600     -0.606999993       5047.83496       1.57170093    
  -1.04286098       1.56075203     -0.606999993       5047.83496       1.57170093    
 -0.718334973       1.73421395     -0.606999993       3411.17310       1.57304668    
 -0.994853973       2.40179110     -0.517000020       3411.17310       1.57304668    
 -0.507171988       2.54972792     -0.517000020       3411.17310       1.57304668    
 -0.366203994       1.84103203     -0.606999993       3411.17310       1.57304668    
 -0.366203994       1.84103203     -0.606999993       5469.68213       1.57168186    
 -0.266297996       1.33877206     -0.606999993       5469.68213       1.57168186    
 -0.522363007       1.26109600     -0.606999993       5469.68213       1.57168186    
 -0.718334973       1.73421395     -0.606999993       5469.68213       1.57168186    
 -0.366203994       1.84103203     -0.606999993       3535.23511       1.57303870    
 -0.507171988       2.54972792     -0.517000020       3535.23511       1.57303870    
   0.00000000       2.59967995     -0.517000020       3535.23511       1.57303870    
   0.00000000       1.87709999     -0.606999993       3535.23511       1.57303870    
   0.00000000       1.87709999     -0.606999993       5684.81592       1.57167292    
   0.00000000       1.36500001     -0.606999993       5684.81592       1.57167292    
 -0.266297996       1.33877206     -0.606999993       5684.81592       1.57167292    
 -0.366203994       1.84103203     -0.606999993       5684.81592       1.57167292    
   0.00000000       1.87709999     -0.606999993       3540.29419       1.57303703    
   0.00000000       2.59967995     -0.517000020       3540.29419       1.57303703    
  0.507171988       2.54972792     -0.517000020       3540.29419       1.57303703    
  0.366203994       1.84103203     -0.606999993       3540.29419       1.57303703    
  0.366203994       1.84103203     -0.606999993       5693.28027       1.57167220    
  0.266297996       1.33877206     -0.606999993       5693.28027       1.57167220    
   0.00000000       1.36500001     -0.606999993       5693.28027       1.57167220    
   0.00000000       1.87709999     -0.606999993       5693.28027       1.57167220    
  0.366203994       1.84103203     -0.606999993       3426.15234       1.57304192    
  0.507171988       2.54972792     -0.517000020       3426.15234       1.57304192    
  0.994853973       2.40179110     -0.517000020       3426.15234       1.57304192    
  0.718334973       1.73421395     -0.606999993       3426.15234       1.57304192    
  0.718334973       1.73421395     -0.606999993       5494.74170       1.57167983    
  0.522363007       1.26109600     -0.606999993       5494.74170       1.57167983    
  0.266297996       1.33877206     -0.606999993       5494.74170       1.57167983    
  0.366203994       1.84103203     -0.606999993       5494.74170       1.57167983    
  0.718334973       1.73421395     -0.606999993       3188.02563       1.57305825    
  0.994853973       2.40179110     -0.517000020       3188.02563       1.57305825    
   1.44430494       2.16155505     -0.517000020       3188.02563       1.57305825    
   1.04286098       1.56075203     -0.606999993       3188.02563       1.57305825    
   1.04286098       1.56075203     -0.606999993       5088.48730       1.57169700    
  0.758352995       1.13495600     -0.606999993       5088.48730       1.57169700    
  0.522363007       1.26109600     -0.606999993       5088.48730       1.57169700    
  0.718334973       1.73421395     -0.606999993       5088.48730       1.57169700    
   1.04286098       1.56075203     -0.606999993       2816.20679       1.57309830    
   1.44430494       2.16155505     -0.517000020       2816.20679       1.57309830    
   1.83825099       1.83825099     -0.517000020       2816.20679       1.57309830    
   1.32730997       1.32730997     -0.606999993       2816.20679       1.57309830    
   1.32730997       1.32730997     -0.606999993       4477.96191       1.57172751    
  0.965201020      0.965201020     -0.606999993       4477.96191       1.57172751    
  0.758352995       1.13495600     -0.606999993       4477.96191       1.57172751    
   1.04286098       1.56075203     -0.606999993       4477.96191       1.57172751    
   1.32730997       1.32730997     -0.606999993       2310.11230       1.57318628    
   1.83825099       1.83825099     -0.517000020       2310.11230       1.57318628    
   2.16155505       1.44430494     -0.517000020       2310.11230       1.57318628    
   1.56075203       1.04286098     -0.606999993       2310.11230       1.57318628    
   1.56075203       1.04286098     -0.606999993       3680.54614       1.57178092    
   1.13495600      0.758352995     -0.606999993       3680.54614       1.57178092    
  0.965201020      0.965201020     -0.606999993       3680.54614       1.57178092    
   1.32730997       1.32730997     -0.606999993       3680.54614       1.57178092    
   1.56075203       1.04286098     -0.606999993       1696.43835       1.57337046    
   2.16155505       1.44430494     -0.517000020       1696.43835       1.57337046    
   2.40179110      0.994853973     -0.517000020       1696.43835       1.57337046    
   1.73421395      0.718334973     -0.606999993       1696.43835       1.57337046    
   1.73421395      0.718334973     -0.606999993       2731.86475       1.57188463    
   1.26109600      0.522363007     -0.606999993       2731.86475       1.57188463    
   1.13495600      0.758352995     -0.606999993       2731.86475       1.57188463    
   1.56075203       1.04286098     -0.606999993       2731.86475       1.57188463    
   1.73421395      0.718334973     -0.606999993       1029.97974       1.57380831    
   2.40179110      0.994853973     -0.517000020       1029.97974       1.57380831    
   2.54972792      0.507171988     -0.517000020       1029.97974       1.57380831    
   1.84103203      0.366203994     -0.606999993       1029.97974       1.57380831    
   1.84103203      0.366203994     -0.606999993       1683.62280       1.57213879    
   1.33877206      0.266297996     -0.606999993       1683.62280       1.57213879    
   1.26109600      0.522363007     -0.606999993       1683.62280       1.57213879    
   1.73421395      0.718334973     -0.606999993       1683.62280       1.57213879    
   1.84103203      0.366203994     -0.606999993       352.779968       1.57588696    
   2.54972792      0.507171988     -0.517000020       352.779968       1.57588696    
   2.59967995       0.00000000     -0.517000020       352.779968       1.57588696    
   1.87709999       0.00000000     -0.606999993       352.779968       1.57588696    
   1.87709999       0.00000000     -0.606999993       582.722778       1.57339764    
   1.36500001       0.00000000     -0.606999993       582.722778       1.57339764    
   1.33877206      0.266297996     -0.606999993       582.722778       1.57339764    
   1.84103203      0.366203994     -0.606999993       582.722778       1.57339764    
   1.87709999       0.00000000     -0.606999993       326.556000      -1.57225525    
   2.59967995       0.00000000     -0.517000020       326.556000      -1.57225525    
   2.54972792     -0.507171988     -0.517000020       326.556000      -1.57225525    
   1.84103203     -0.366203994     -0.606999993       326.556000      -1.57225525    
   1.84103203     -0.366203994     -0.606999993       537.086304      -1.57221317    
   1.33877206     -0.266297996     -0.606999993       537.086304      -1.57221317    
   1.36500001       0.00000000     -0.606999993       537.086304      -1.57221317    
   1.87709999       0.00000000     -0.606999993       537.086304      -1.57221317    
   1.84103203     -0.366203994     -0.606999993       1016.39496      -1.56996417    
   2.54972792     -0.507171988     -0.517000020       1016.39496      -1.56996417    
   2.40179110     -0.994853973     -0.517000020       1016.39496      -1.56996417    
   1.73421395     -0.718334973     -0.606999993       1016.39496      -1.56996417    
   1.73421395     -0.718334973     -0.606999993       1647.45667      -1.57080054    
   1.26109600     -0.522363007     -0.606999993       1647.45667      -1.57080054    
   1.33877206     -0.266297996     -0.606999993       1647.45667      -1.57080054    
   1.84103203     -0.366203994     -0.606999993       1647.45667      -1.57080054    
   1.73421395     -0.718334973     -0.606999993       1695.75916      -1.56954277    
   2.40179110     -0.994853973     -0.517000020       1695.75916      -1.56954277    
   2.16155505      -1.44430494     -0.517000020       1695.75916      -1.56954277    
   1.56075203      -1.04286098     -0.606999993       1695.75916      -1.56954277    
   1.56075203      -1.04286098     -0.606999993       2708.09521      -1.57053041    
   1.13495600     -0.758352995     -0.606999993       2708.09521      -1.57053041    
   1.26109600     -0.522363007     -0.606999993       2708.09521      -1.57053041    