 VARIABLES="X" "Y" "Z" "abs(p) (Pa)" "angle(p) (rad)"
ZONE N=   2709,E =    2358, F=FEPOINT, ET=QUADRILATERAL
   0.00000000      -5.48999977     -0.157000005       408.964844      -1.55521917    
   0.00000000      -4.76741982     -0.246999994       408.964844      -1.55521917    
  0.930077016      -4.67581606     -0.246999994       408.964844      -1.55521917    
   1.07104599      -5.38451099     -0.157000005       408.964844      -1.55521917    
  -1.07104599      -5.38451099     -0.157000005       410.019226      -1.55728352    
 -0.930077016      -4.67581606     -0.246999994       410.019226      -1.55728352    
   0.00000000      -4.76741982     -0.246999994       410.019226      -1.55728352    
   0.00000000      -5.48999977     -0.157000005       410.019226      -1.55728352    
  -2.10093188      -5.07209921     -0.157000005       408.089325      -1.56040442    
  -1.82441294      -4.40452194     -0.246999994       408.089325      -1.56040442    
 -0.930077016      -4.67581606     -0.246999994       408.089325      -1.56040442    
  -1.07104599      -5.38451099     -0.157000005       408.089325      -1.56040442    
  -3.05008101      -4.56476784     -0.157000005       360.204468      -1.55863166    
  -2.64863706      -3.96396494     -0.246999994       360.204468      -1.55863166    
  -1.82441294      -4.40452194     -0.246999994       360.204468      -1.55863166    
  -2.10093188      -5.07209921     -0.157000005       360.204468      -1.55863166    
  -3.88201594      -3.88201594     -0.157000005       320.531494      -1.55497563    
  -3.37107491      -3.37107491     -0.246999994       320.531494      -1.55497563    
  -2.64863706      -3.96396494     -0.246999994       320.531494      -1.55497563    
  -3.05008101      -4.56476784     -0.157000005       320.531494      -1.55497563    
  -4.56476784      -3.05008101     -0.157000005       278.538879      -1.55241477    
  -3.96396494      -2.64863706     -0.246999994       278.538879      -1.55241477    
  -3.37107491      -3.37107491     -0.246999994       278.538879      -1.55241477    
  -3.88201594      -3.88201594     -0.157000005       278.538879      -1.55241477    
  -5.07209921      -2.10093188     -0.157000005       199.407181      -1.55002773    
  -4.40452194      -1.82441294     -0.246999994       199.407181      -1.55002773    
  -3.96396494      -2.64863706     -0.246999994       199.407181      -1.55002773    
  -4.56476784      -3.05008101     -0.157000005       199.407181      -1.55002773    
  -5.38451099      -1.07104599     -0.157000005       118.825211      -1.55973804    
  -4.67581606     -0.930077016     -0.246999994       118.825211      -1.55973804    
  -4.40452194      -1.82441294     -0.246999994       118.825211      -1.55973804    
  -5.07209921      -2.10093188     -0.157000005       118.825211      -1.55973804    
  -5.48999977       0.00000000     -0.157000005       40.4826965      -1.57440495    
  -4.76741982       0.00000000     -0.246999994       40.4826965      -1.57440495    
  -4.67581606     -0.930077016     -0.246999994       40.4826965      -1.57440495    
  -5.38451099      -1.07104599     -0.157000005       40.4826965      -1.57440495    
  -5.38451099       1.07104599     -0.157000005       39.2308311       1.56431258    
  -4.67581606      0.930077016     -0.246999994       39.2308311       1.56431258    
  -4.76741982       0.00000000     -0.246999994       39.2308311       1.56431258    
  -5.48999977       0.00000000     -0.157000005       39.2308311       1.56431258    
  -5.07209921       2.10093188     -0.157000005       121.784775       1.57098854    
  -4.40452194       1.82441294     -0.246999994       121.784775       1.57098854    
  -4.67581606      0.930077016     -0.246999994       121.784775       1.57098854    
  -5.38451099       1.07104599     -0.157000005       121.784775       1.57098854    
  -4.56476784       3.05008101     -0.157000005       205.999054       1.58059168    
  -3.96396494       2.64863706     -0.246999994       205.999054       1.58059168    
  -4.40452194       1.82441294     -0.246999994       205.999054       1.58059168    
  -5.07209921       2.10093188     -0.157000005       205.999054       1.58059168    
  -3.88201594       3.88201594     -0.157000005       273.058655       1.58600318    
  -3.37107491       3.37107491     -0.246999994       273.058655       1.58600318    
  -3.96396494       2.64863706     -0.246999994       273.058655       1.58600318    
  -4.56476784       3.05008101     -0.157000005       273.058655       1.58600318    
  -3.05008101       4.56476784     -0.157000005       339.821899       1.58335650    
  -2.64863706       3.96396494     -0.246999994       339.821899       1.58335650    
  -3.37107491       3.37107491     -0.246999994       339.821899       1.58335650    
  -3.88201594       3.88201594     -0.157000005       339.821899       1.58335650    
  -2.10093188       5.07209921     -0.157000005       366.422577       1.58349240    
  -1.82441294       4.40452194     -0.246999994       366.422577       1.58349240    
  -2.64863706       3.96396494     -0.246999994       366.422577       1.58349240    
  -3.05008101       4.56476784     -0.157000005       366.422577       1.58349240    
  -1.07104599       5.38451099     -0.157000005       412.813873       1.58158088    
 -0.930077016       4.67581606     -0.246999994       412.813873       1.58158088    
  -1.82441294       4.40452194     -0.246999994       412.813873       1.58158088    
  -2.10093188       5.07209921     -0.157000005       412.813873       1.58158088    
   0.00000000       5.48999977     -0.157000005       418.331055       1.58272278    
   0.00000000       4.76741982     -0.246999994       418.331055       1.58272278    
 -0.930077016       4.67581606     -0.246999994       418.331055       1.58272278    
  -1.07104599       5.38451099     -0.157000005       418.331055       1.58272278    
   1.07104599       5.38451099     -0.157000005       430.599152       1.58219814    
  0.930077016       4.67581606     -0.246999994       430.599152       1.58219814    
   0.00000000       4.76741982     -0.246999994       430.599152       1.58219814    
   0.00000000       5.48999977     -0.157000005       430.599152       1.58219814    
   2.10093188       5.07209921     -0.157000005       399.411499       1.58403599    
   1.82441294       4.40452194     -0.246999994       399.411499       1.58403599    
  0.930077016       4.67581606     -0.246999994       399.411499       1.58403599    
   1.07104599       5.38451099     -0.157000005       399.411499       1.58403599    
   3.05008101       4.56476784     -0.157000005       364.712128       1.58365810    
   2.64863706       3.96396494     -0.246999994       364.712128       1.58365810    
   1.82441294       4.40452194     -0.246999994       364.712128       1.58365810    
   2.10093188       5.07209921     -0.157000005       364.712128       1.58365810    
   3.88201594       3.88201594     -0.157000005       338.615204       1.58357882    
   3.37107491       3.37107491     -0.246999994       338.615204       1.58357882    
   2.64863706       3.96396494     -0.246999994       338.615204       1.58357882    
   3.05008101       4.56476784     -0.157000005       338.615204       1.58357882    
   4.56476784       3.05008101     -0.157000005       276.439911       1.58862364    
   3.96396494       2.64863706     -0.246999994       276.439911       1.58862364    
   3.37107491       3.37107491     -0.246999994       276.439911       1.58862364    
   3.88201594       3.88201594     -0.157000005       276.439911       1.58862364    
   5.07209921       2.10093188     -0.157000005       203.325241       1.58700776    
   4.40452194       1.82441294     -0.246999994       203.325241       1.58700776    
   3.96396494       2.64863706     -0.246999994       203.325241       1.58700776    
   4.56476784       3.05008101     -0.157000005       203.325241       1.58700776    
   5.38451099       1.07104599     -0.157000005       115.493965       1.57497728    
   4.67581606      0.930077016     -0.246999994       115.493965       1.57497728    
   4.40452194       1.82441294     -0.246999994       115.493965       1.57497728    
   5.07209921       2.10093188     -0.157000005       115.493965       1.57497728    
   5.48999977       0.00000000     -0.157000005       36.4240913       1.55221546    
   4.76741982       0.00000000     -0.246999994       36.4240913       1.55221546    
   4.67581606      0.930077016     -0.246999994       36.4240913       1.55221546    
   5.38451099       1.07104599     -0.157000005       36.4240913       1.55221546    
   5.38451099      -1.07104599     -0.157000005       40.1356316      -1.57248938    
   4.67581606     -0.930077016     -0.246999994       40.1356316      -1.57248938    
   4.76741982       0.00000000     -0.246999994       40.1356316      -1.57248938    
   5.48999977       0.00000000     -0.157000005       40.1356316      -1.57248938    
   5.07209921      -2.10093188     -0.157000005       119.830727      -1.56305623    
   4.40452194      -1.82441294     -0.246999994       119.830727      -1.56305623    
   4.67581606     -0.930077016     -0.246999994       119.830727      -1.56305623    
   5.38451099      -1.07104599     -0.157000005       119.830727      -1.56305623    
   4.56476784      -3.05008101     -0.157000005       199.840485      -1.55238426    
   3.96396494      -2.64863706     -0.246999994       199.840485      -1.55238426    
   4.40452194      -1.82441294     -0.246999994       199.840485      -1.55238426    
   5.07209921      -2.10093188     -0.157000005       199.840485      -1.55238426    
   3.88201594      -3.88201594     -0.157000005       270.721100      -1.55315673    
   3.37107491      -3.37107491     -0.246999994       270.721100      -1.55315673    
   3.96396494      -2.64863706     -0.246999994       270.721100      -1.55315673    
   4.56476784      -3.05008101     -0.157000005       270.721100      -1.55315673    
   3.05008101      -4.56476784     -0.157000005       332.882019      -1.55939376    
   2.64863706      -3.96396494     -0.246999994       332.882019      -1.55939376    
   3.37107491      -3.37107491     -0.246999994       332.882019      -1.55939376    
   3.88201594      -3.88201594     -0.157000005       332.882019      -1.55939376    
   2.10093188      -5.07209921     -0.157000005       359.919891      -1.55869746    
   1.82441294      -4.40452194     -0.246999994       359.919891      -1.55869746    
   2.64863706      -3.96396494     -0.246999994       359.919891      -1.55869746    
   3.05008101      -4.56476784     -0.157000005       359.919891      -1.55869746    
   1.07104599      -5.38451099     -0.157000005       393.651794      -1.55597937    
  0.930077016      -4.67581606     -0.246999994       393.651794      -1.55597937    
   1.82441294      -4.40452194     -0.246999994       393.651794      -1.55597937    
   2.10093188      -5.07209921     -0.157000005       393.651794      -1.55597937    
   0.00000000      -1.87709999     -0.606999993       14743.2705      -1.56944156    
   0.00000000      -1.36500001     -0.606999993       14743.2705      -1.56944156    
  0.266297996      -1.33877206     -0.606999993       14743.2705      -1.56944156    
  0.366203994      -1.84103203     -0.606999993       14743.2705      -1.56944156    
   0.00000000      -1.87709999     -0.606999993       5707.04932      -1.56935239    
   0.00000000      -2.59967995     -0.517000020       5707.04932      -1.56935239    
 -0.507171988      -2.54972792     -0.517000020       5707.04932      -1.56935239    
 -0.366203994      -1.84103203     -0.606999993       5707.04932      -1.56935239    
 -0.366203994      -1.84103203     -0.606999993       14748.8311      -1.56944454    
 -0.266297996      -1.33877206     -0.606999993       14748.8311      -1.56944454    
   0.00000000      -1.36500001     -0.606999993       14748.8311      -1.56944454    
   0.00000000      -1.87709999     -0.606999993       14748.8311      -1.56944454    
 -0.366203994      -1.84103203     -0.606999993       5593.37988      -1.56941557    
 -0.507171988      -2.54972792     -0.517000020       5593.37988      -1.56941557    
 -0.994853973      -2.40179110     -0.517000020       5593.37988      -1.56941557    
 -0.718334973      -1.73421395     -0.606999993       5593.37988      -1.56941557    
 -0.718334973      -1.73421395     -0.606999993       14270.7949      -1.56946933    
 -0.522363007      -1.26109600     -0.606999993       14270.7949      -1.56946933    
 -0.266297996      -1.33877206     -0.606999993       14270.7949      -1.56946933    
 -0.366203994      -1.84103203     -0.606999993       14270.7949      -1.56946933    
 -0.718334973      -1.73421395     -0.606999993       5304.68115      -1.56949639    
 -0.994853973      -2.40179110     -0.517000020       5304.68115      -1.56949639    
  -1.44430494      -2.16155505     -0.517000020       5304.68115      -1.56949639    
  -1.04286098      -1.56075203     -0.606999993       5304.68115      -1.56949639    
  -1.04286098      -1.56075203     -0.606999993       13271.1475      -1.56950533    
 -0.758352995      -1.13495600     -0.606999993       13271.1475      -1.56950533    
 -0.522363007      -1.26109600     -0.606999993       13271.1475      -1.56950533    
 -0.718334973      -1.73421395     -0.606999993       13271.1475      -1.56950533    
  -1.04286098      -1.56075203     -0.606999993       4759.06885      -1.56955206    
  -1.44430494      -2.16155505     -0.517000020       4759.06885      -1.56955206    
  -1.83825099      -1.83825099     -0.517000020       4759.06885      -1.56955206    
  -1.32730997      -1.32730997     -0.606999993       4759.06885      -1.56955206    
  -1.32730997      -1.32730997     -0.606999993       11712.6523      -1.56954038    
 -0.965201020     -0.965201020     -0.606999993       11712.6523      -1.56954038    
 -0.758352995      -1.13495600     -0.606999993       11712.6523      -1.56954038    
  -1.04286098      -1.56075203     -0.606999993       11712.6523      -1.56954038    
  -1.32730997      -1.32730997     -0.606999993       3909.65234      -1.56956375    
  -1.83825099      -1.83825099     -0.517000020       3909.65234      -1.56956375    
  -2.16155505      -1.44430494     -0.517000020       3909.65234      -1.56956375    
  -1.56075203      -1.04286098     -0.606999993       3909.65234      -1.56956375    
  -1.56075203      -1.04286098     -0.606999993       9617.94336      -1.56956124    
  -1.13495600     -0.758352995     -0.606999993       9617.94336      -1.56956124    
 -0.965201020     -0.965201020     -0.606999993       9617.94336      -1.56956124    
  -1.32730997      -1.32730997     -0.606999993       9617.94336      -1.56956124    
  -1.56075203      -1.04286098     -0.606999993       2807.11328      -1.56952691    
  -2.16155505      -1.44430494     -0.517000020       2807.11328      -1.56952691    
  -2.40179110     -0.994853973     -0.517000020       2807.11328      -1.56952691    
  -1.73421395     -0.718334973     -0.606999993       2807.11328      -1.56952691    
  -1.73421395     -0.718334973     -0.606999993       7096.70801      -1.56956542    
  -1.26109600     -0.522363007     -0.606999993       7096.70801      -1.56956542    
  -1.13495600     -0.758352995     -0.606999993       7096.70801      -1.56956542    
  -1.56075203      -1.04286098     -0.606999993       7096.70801      -1.56956542    
  -1.73421395     -0.718334973     -0.606999993       1628.65491      -1.56946576    
  -2.40179110     -0.994853973     -0.517000020       1628.65491      -1.56946576    
  -2.54972792     -0.507171988     -0.517000020       1628.65491      -1.56946576    
  -1.84103203     -0.366203994     -0.606999993       1628.65491      -1.56946576    
  -1.84103203     -0.366203994     -0.606999993       4322.88623      -1.56955886    
  -1.33877206     -0.266297996     -0.606999993       4322.88623      -1.56955886    
  -1.26109600     -0.522363007     -0.606999993       4322.88623      -1.56955886    
  -1.73421395     -0.718334973     -0.606999993       4322.88623      -1.56955886    
  -1.84103203     -0.366203994     -0.606999993       519.969482      -1.56942427    
  -2.54972792     -0.507171988     -0.517000020       519.969482      -1.56942427    
  -2.59967995       0.00000000     -0.517000020       519.969482      -1.56942427    
  -1.87709999       0.00000000     -0.606999993       519.969482      -1.56942427    
  -1.87709999       0.00000000     -0.606999993       1455.54126      -1.56953490    
  -1.36500001       0.00000000     -0.606999993       1455.54126      -1.56953490    
  -1.33877206     -0.266297996     -0.606999993       1455.54126      -1.56953490    
  -1.84103203     -0.366203994     -0.606999993       1455.54126      -1.56953490    
  -1.87709999       0.00000000     -0.606999993       505.880524       1.57224452    
  -2.59967995       0.00000000     -0.517000020       505.880524       1.57224452    
  -2.54972792      0.507171988     -0.517000020       505.880524       1.57224452    
  -1.84103203      0.366203994     -0.606999993       505.880524       1.57224452    
  -1.84103203      0.366203994     -0.606999993       1409.52441       1.57202399    
  -1.33877206      0.266297996     -0.606999993       1409.52441       1.57202399    
  -1.36500001       0.00000000     -0.606999993       1409.52441       1.57202399    
  -1.87709999       0.00000000     -0.606999993       1409.52441       1.57202399    
  -1.84103203      0.366203994     -0.606999993       1559.36145       1.57218385    
  -2.54972792      0.507171988     -0.517000020       1559.36145       1.57218385    
  -2.40179110      0.994853973     -0.517000020       1559.36145       1.57218385    
  -1.73421395      0.718334973     -0.606999993       1559.36145       1.57218385    
  -1.73421395      0.718334973     -0.606999993       4233.73096       1.57204139    
  -1.26109600      0.522363007     -0.606999993       4233.73096       1.57204139    
  -1.33877206      0.266297996     -0.606999993       4233.73096       1.57204139    
  -1.84103203      0.366203994     -0.606999993       4233.73096       1.57204139    
  -1.73421395      0.718334973     -0.606999993       2681.29980       1.57212734    
  -2.40179110      0.994853973     -0.517000020       2681.29980       1.57212734    
  -2.16155505       1.44430494     -0.517000020       2681.29980       1.57212734    
  -1.56075203       1.04286098     -0.606999993       2681.29980       1.57212734    
  -1.56075203       1.04286098     -0.606999993       6951.61426       1.57204711    
  -1.13495600      0.758352995     -0.606999993       6951.61426       1.57204711    
  -1.26109600      0.522363007     -0.606999993       6951.61426       1.57204711    
  -1.73421395      0.718334973     -0.606999993       6951.61426       1.57204711    
  -1.56075203       1.04286098     -0.606999993       3772.40527       1.57207894    
  -2.16155505       1.44430494     -0.517000020       3772.40527       1.57207894    
  -1.83825099       1.83825099     -0.517000020       3772.40527       1.57207894    
  -1.32730997       1.32730997     -0.606999993       3772.40527       1.57207894    
  -1.32730997       1.32730997     -0.606999993       9435.37402       1.57205641    
 -0.965201020      0.965201020     -0.606999993       9435.37402       1.57205641    
  -1.13495600      0.758352995     -0.606999993       9435.37402       1.57205641    
  -1.56075203       1.04286098     -0.606999993       9435.37402       1.57205641    
  -1.32730997       1.32730997     -0.606999993       4650.79102       1.57207751    
  -1.83825099       1.83825099     -0.517000020       4650.79102       1.57207751    
  -1.44430494       2.16155505     -0.517000020       4650.79102       1.57207751    
  -1.04286098       1.56075203     -0.606999993       4650.79102       1.57207751    
  -1.04286098       1.56075203     -0.606999993       11518.7529       1.57207787    
 -0.758352995       1.13495600     -0.606999993       11518.7529       1.57207787    
 -0.965201020      0.965201020     -0.606999993       11518.7529       1.57207787    
  -1.32730997       1.32730997     -0.606999993       11518.7529       1.57207787    
  -1.04286098       1.56075203     -0.606999993       5230.07812       1.57211947    
  -1.44430494       2.16155505     -0.517000020       5230.07812       1.57211947    
 -0.994853973       2.40179110     -0.517000020       5230.07812       1.57211947    
 -0.718334973       1.73421395     -0.606999993       5230.07812       1.57211947    
 -0.718334973       1.73421395     -0.606999993       13085.5479       1.57211030    
 -0.522363007       1.26109600     -0.606999993       13085.5479       1.57211030    
 -0.758352995       1.13495600     -0.606999993       13085.5479       1.57211030    
  -1.04286098       1.56075203     -0.606999993       13085.5479       1.57211030    
 -0.718334973       1.73421395     -0.606999993       5539.59180       1.57219005    
 -0.994853973       2.40179110     -0.517000020       5539.59180       1.57219005    
 -0.507171988       2.54972792     -0.517000020       5539.59180       1.57219005    
 -0.366203994       1.84103203     -0.606999993       5539.59180       1.57219005    
 -0.366203994       1.84103203     -0.606999993       14099.4219       1.57214403    
 -0.266297996       1.33877206     -0.606999993       14099.4219       1.57214403    
 -0.522363007       1.26109600     -0.606999993       14099.4219       1.57214403    
 -0.718334973       1.73421395     -0.606999993       14099.4219       1.57214403    
 -0.366203994       1.84103203     -0.606999993       5664.00098       1.57224703    
 -0.507171988       2.54972792     -0.517000020       5664.00098       1.57224703    
   0.00000000       2.59967995     -0.517000020       5664.00098       1.57224703    
   0.00000000       1.87709999     -0.606999993       5664.00098       1.57224703    
   0.00000000       1.87709999     -0.606999993       14589.9121       1.57216668    
   0.00000000       1.36500001     -0.606999993       14589.9121       1.57216668    
 -0.266297996       1.33877206     -0.606999993       14589.9121       1.57216668    
 -0.366203994       1.84103203     -0.606999993       14589.9121       1.57216668    
   0.00000000       1.87709999     -0.606999993       5666.08203       1.57224786    
   0.00000000       2.59967995     -0.517000020       5666.08203       1.57224786    
  0.507171988       2.54972792     -0.517000020       5666.08203       1.57224786    
  0.366203994       1.84103203     -0.606999993       5666.08203       1.57224786    
  0.366203994       1.84103203     -0.606999993       14591.1582       1.57216525    
  0.266297996       1.33877206     -0.606999993       14591.1582       1.57216525    
   0.00000000       1.36500001     -0.606999993       14591.1582       1.57216525    
   0.00000000       1.87709999     -0.606999993       14591.1582       1.57216525    
  0.366203994       1.84103203     -0.606999993       5545.86865       1.57219148    
  0.507171988       2.54972792     -0.517000020       5545.86865       1.57219148    
  0.994853973       2.40179110     -0.517000020       5545.86865       1.57219148    
  0.718334973       1.73421395     -0.606999993       5545.86865       1.57219148    
  0.718334973       1.73421395     -0.606999993       14103.1797       1.57213950    
  0.522363007       1.26109600     -0.606999993       14103.1797       1.57213950    
  0.266297996       1.33877206     -0.606999993       14103.1797       1.57213950    
  0.366203994       1.84103203     -0.606999993       14103.1797       1.57213950    
  0.718334973       1.73421395     -0.606999993       5240.77539       1.57211924    
  0.994853973       2.40179110     -0.517000020       5240.77539       1.57211924    
   1.44430494       2.16155505     -0.517000020       5240.77539       1.57211924    
   1.04286098       1.56075203     -0.606999993       5240.77539       1.57211924    
   1.04286098       1.56075203     -0.606999993       13091.4326       1.57210600    
  0.758352995       1.13495600     -0.606999993       13091.4326       1.57210600    
  0.522363007       1.26109600     -0.606999993       13091.4326       1.57210600    
  0.718334973       1.73421395     -0.606999993       13091.4326       1.57210600    
   1.04286098       1.56075203     -0.606999993       4666.05908       1.57208037    
   1.44430494       2.16155505     -0.517000020       4666.05908       1.57208037    
   1.83825099       1.83825099     -0.517000020       4666.05908       1.57208037    
   1.32730997       1.32730997     -0.606999993       4666.05908       1.57208037    
   1.32730997       1.32730997     -0.606999993       11526.9658       1.57207334    
  0.965201020      0.965201020     -0.606999993       11526.9658       1.57207334    
  0.758352995       1.13495600     -0.606999993       11526.9658       1.57207334    
   1.04286098       1.56075203     -0.606999993       11526.9658       1.57207334    
   1.32730997       1.32730997     -0.606999993       3791.52905       1.57208347    
   1.83825099       1.83825099     -0.517000020       3791.52905       1.57208347    
   2.16155505       1.44430494     -0.517000020       3791.52905       1.57208347    
   1.56075203       1.04286098     -0.606999993       3791.52905       1.57208347    
   1.56075203       1.04286098     -0.606999993       9444.98828       1.57205153    
   1.13495600      0.758352995     -0.606999993       9444.98828       1.57205153    
  0.965201020      0.965201020     -0.606999993       9444.98828       1.57205153    
   1.32730997       1.32730997     -0.606999993       9444.98828       1.57205153    
   1.56075203       1.04286098     -0.606999993       2702.57544       1.57213557    
   2.16155505       1.44430494     -0.517000020       2702.57544       1.57213557    
   2.40179110      0.994853973     -0.517000020       2702.57544       1.57213557    
   1.73421395      0.718334973     -0.606999993       2702.57544       1.57213557    
   1.73421395      0.718334973     -0.606999993       6960.38867       1.57204211    
   1.26109600      0.522363007     -0.606999993       6960.38867       1.57204211    
   1.13495600      0.758352995     -0.606999993       6960.38867       1.57204211    
   1.56075203       1.04286098     -0.606999993       6960.38867       1.57204211    
   1.73421395      0.718334973     -0.606999993       1581.39319       1.57219136    
   2.40179110      0.994853973     -0.517000020       1581.39319       1.57219136    
   2.54972792      0.507171988     -0.517000020       1581.39319       1.57219136    
   1.84103203      0.366203994     -0.606999993       1581.39319       1.57219136    
   1.84103203      0.366203994     -0.606999993       4241.73096       1.57203364    
   1.33877206      0.266297996     -0.606999993       4241.73096       1.57203364    
   1.26109600      0.522363007     -0.606999993       4241.73096       1.57203364    
   1.73421395      0.718334973     -0.606999993       4241.73096       1.57203364    
   1.84103203      0.366203994     -0.606999993       528.620605       1.57224095    
   2.54972792      0.507171988     -0.517000020       528.620605       1.57224095    
   2.59967995       0.00000000     -0.517000020       528.620605       1.57224095    
   1.87709999       0.00000000     -0.606999993       528.620605       1.57224095    
   1.87709999       0.00000000     -0.606999993       1418.24841       1.57200158    
   1.36500001       0.00000000     -0.606999993       1418.24841       1.57200158    
   1.33877206      0.266297996     -0.606999993       1418.24841       1.57200158    
   1.84103203      0.366203994     -0.606999993       1418.24841       1.57200158    
   1.87709999       0.00000000     -0.606999993       496.563599      -1.56940472    
   2.59967995       0.00000000     -0.517000020       496.563599      -1.56940472    
   2.54972792     -0.507171988     -0.517000020       496.563599      -1.56940472    
   1.84103203     -0.366203994     -0.606999993       496.563599      -1.56940472    
   1.84103203     -0.366203994     -0.606999993       1445.34253      -1.56950772    
   1.33877206     -0.266297996     -0.606999993       1445.34253      -1.56950772    
   1.36500001       0.00000000     -0.606999993       1445.34253      -1.56950772    
   1.87709999       0.00000000     -0.606999993       1445.34253      -1.56950772    
   1.84103203     -0.366203994     -0.606999993       1604.67456      -1.56945372    
   2.54972792     -0.507171988     -0.517000020       1604.67456      -1.56945372    
   2.40179110     -0.994853973     -0.517000020       1604.67456      -1.56945372    
   1.73421395     -0.718334973     -0.606999993       1604.67456      -1.56945372    
   1.73421395     -0.718334973     -0.606999993       4311.08936      -1.56954646    
   1.26109600     -0.522363007     -0.606999993       4311.08936      -1.56954646    
   1.33877206     -0.266297996     -0.606999993       4311.08936      -1.56954646    
   1.84103203     -0.366203994     -0.606999993       4311.08936      -1.56954646    
   1.73421395     -0.718334973     -0.606999993       2782.98315      -1.56950998    
   2.40179110     -0.994853973     -0.517000020       2782.98315      -1.56950998    
   2.16155505      -1.44430494     -0.517000020       2782.98315      -1.56950998    
   1.56075203      -1.04286098     -0.606999993       2782.98315      -1.56950998    
   1.56075203      -1.04286098     -0.606999993       7083.61426      -1.56955671    
   1.13495600     -0.758352995     -0.606999993       7083.61426      -1.56955671    
   1.26109600     -0.522363007     -0.606999993       7083.61426      -1.56955671    