 VARIABLES="X" "Y" "Z" "abs(p) (Pa)" "angle(p) (rad)"
ZONE N=   2709,E =    2358, F=FEPOINT, ET=QUADRILATERAL
   0.00000000      -5.48999977     -0.157000005       3.23254395       1.57616591    
   0.00000000      -4.76741982     -0.246999994       3.23254395       1.57616591    
  0.930077016      -4.67581606     -0.246999994       3.23254395       1.57616591    
   1.07104599      -5.38451099     -0.157000005       3.23254395       1.57616591    
  -1.07104599      -5.38451099     -0.157000005       3.35119295       1.55624843    
 -0.930077016      -4.67581606     -0.246999994       3.35119295       1.55624843    
   0.00000000      -4.76741982     -0.246999994       3.35119295       1.55624843    
   0.00000000      -5.48999977     -0.157000005       3.35119295       1.55624843    
  -2.10093188      -5.07209921     -0.157000005       5.61722755       1.55565310    
  -1.82441294      -4.40452194     -0.246999994       5.61722755       1.55565310    
 -0.930077016      -4.67581606     -0.246999994       5.61722755       1.55565310    
  -1.07104599      -5.38451099     -0.157000005       5.61722755       1.55565310    
  -3.05008101      -4.56476784     -0.157000005       3.39408755       1.59377301    
  -2.64863706      -3.96396494     -0.246999994       3.39408755       1.59377301    
  -1.82441294      -4.40452194     -0.246999994       3.39408755       1.59377301    
  -2.10093188      -5.07209921     -0.157000005       3.39408755       1.59377301    
  -3.88201594      -3.88201594     -0.157000005       3.05062795       1.54054427    
  -3.37107491      -3.37107491     -0.246999994       3.05062795       1.54054427    
  -2.64863706      -3.96396494     -0.246999994       3.05062795       1.54054427    
  -3.05008101      -4.56476784     -0.157000005       3.05062795       1.54054427    
  -4.56476784      -3.05008101     -0.157000005       1.05942822      -1.42287922    
  -3.96396494      -2.64863706     -0.246999994       1.05942822      -1.42287922    
  -3.37107491      -3.37107491     -0.246999994       1.05942822      -1.42287922    
  -3.88201594      -3.88201594     -0.157000005       1.05942822      -1.42287922    
  -5.07209921      -2.10093188     -0.157000005       3.54419708       1.59567428    
  -4.40452194      -1.82441294     -0.246999994       3.54419708       1.59567428    
  -3.96396494      -2.64863706     -0.246999994       3.54419708       1.59567428    
  -4.56476784      -3.05008101     -0.157000005       3.54419708       1.59567428    
  -5.38451099      -1.07104599     -0.157000005       3.24960065       1.52672720    
  -4.67581606     -0.930077016     -0.246999994       3.24960065       1.52672720    
  -4.40452194      -1.82441294     -0.246999994       3.24960065       1.52672720    
  -5.07209921      -2.10093188     -0.157000005       3.24960065       1.52672720    
  -5.48999977       0.00000000     -0.157000005       6.09772682       1.57379329    
  -4.76741982       0.00000000     -0.246999994       6.09772682       1.57379329    
  -4.67581606     -0.930077016     -0.246999994       6.09772682       1.57379329    
  -5.38451099      -1.07104599     -0.157000005       6.09772682       1.57379329    
  -5.38451099       1.07104599     -0.157000005       6.01514292       1.59269702    
  -4.67581606      0.930077016     -0.246999994       6.01514292       1.59269702    
  -4.76741982       0.00000000     -0.246999994       6.01514292       1.59269702    
  -5.48999977       0.00000000     -0.157000005       6.01514292       1.59269702    
  -5.07209921       2.10093188     -0.157000005       6.07227898       1.54981172    
  -4.40452194       1.82441294     -0.246999994       6.07227898       1.54981172    
  -4.67581606      0.930077016     -0.246999994       6.07227898       1.54981172    
  -5.38451099       1.07104599     -0.157000005       6.07227898       1.54981172    
  -4.56476784       3.05008101     -0.157000005       6.18833542       1.58764422    
  -3.96396494       2.64863706     -0.246999994       6.18833542       1.58764422    
  -4.40452194       1.82441294     -0.246999994       6.18833542       1.58764422    
  -5.07209921       2.10093188     -0.157000005       6.18833542       1.58764422    
  -3.88201594       3.88201594     -0.157000005       3.52881360       1.55683827    
  -3.37107491       3.37107491     -0.246999994       3.52881360       1.55683827    
  -3.96396494       2.64863706     -0.246999994       3.52881360       1.55683827    
  -4.56476784       3.05008101     -0.157000005       3.52881360       1.55683827    
  -3.05008101       4.56476784     -0.157000005       5.89395618       1.56028318    
  -2.64863706       3.96396494     -0.246999994       5.89395618       1.56028318    
  -3.37107491       3.37107491     -0.246999994       5.89395618       1.56028318    
  -3.88201594       3.88201594     -0.157000005       5.89395618       1.56028318    
  -2.10093188       5.07209921     -0.157000005       3.54545164       1.57429707    
  -1.82441294       4.40452194     -0.246999994       3.54545164       1.57429707    
  -2.64863706       3.96396494     -0.246999994       3.54545164       1.57429707    
  -3.05008101       4.56476784     -0.157000005       3.54545164       1.57429707    
  -1.07104599       5.38451099     -0.157000005       5.83577585       1.55513620    
 -0.930077016       4.67581606     -0.246999994       5.83577585       1.55513620    
  -1.82441294       4.40452194     -0.246999994       5.83577585       1.55513620    
  -2.10093188       5.07209921     -0.157000005       5.83577585       1.55513620    
   0.00000000       5.48999977     -0.157000005       3.52072287       1.56388462    
   0.00000000       4.76741982     -0.246999994       3.52072287       1.56388462    
 -0.930077016       4.67581606     -0.246999994       3.52072287       1.56388462    
  -1.07104599       5.38451099     -0.157000005       3.52072287       1.56388462    
   1.07104599       5.38451099     -0.157000005       5.92557859       1.58012092    
  0.930077016       4.67581606     -0.246999994       5.92557859       1.58012092    
   0.00000000       4.76741982     -0.246999994       5.92557859       1.58012092    
   0.00000000       5.48999977     -0.157000005       5.92557859       1.58012092    
   2.10093188       5.07209921     -0.157000005       3.43944407       1.54475617    
   1.82441294       4.40452194     -0.246999994       3.43944407       1.54475617    
  0.930077016       4.67581606     -0.246999994       3.43944407       1.54475617    
   1.07104599       5.38451099     -0.157000005       3.43944407       1.54475617    
   3.05008101       4.56476784     -0.157000005       3.36188650       1.57833469    
   2.64863706       3.96396494     -0.246999994       3.36188650       1.57833469    
   1.82441294       4.40452194     -0.246999994       3.36188650       1.57833469    
   2.10093188       5.07209921     -0.157000005       3.36188650       1.57833469    
   3.88201594       3.88201594     -0.157000005       5.86060333       1.55958652    
   3.37107491       3.37107491     -0.246999994       5.86060333       1.55958652    
   2.64863706       3.96396494     -0.246999994       5.86060333       1.55958652    
   3.05008101       4.56476784     -0.157000005       5.86060333       1.55958652    
   4.56476784       3.05008101     -0.157000005       3.79695344       1.54931319    
   3.96396494       2.64863706     -0.246999994       3.79695344       1.54931319    
   3.37107491       3.37107491     -0.246999994       3.79695344       1.54931319    
   3.88201594       3.88201594     -0.157000005       3.79695344       1.54931319    
   5.07209921       2.10093188     -0.157000005       6.43310452       1.60071218    
   4.40452194       1.82441294     -0.246999994       6.43310452       1.60071218    
   3.96396494       2.64863706     -0.246999994       6.43310452       1.60071218    
   4.56476784       3.05008101     -0.157000005       6.43310452       1.60071218    
   5.38451099       1.07104599     -0.157000005       3.43837738       1.54252875    
   4.67581606      0.930077016     -0.246999994       3.43837738       1.54252875    
   4.40452194       1.82441294     -0.246999994       3.43837738       1.54252875    
   5.07209921       2.10093188     -0.157000005       3.43837738       1.54252875    
   5.48999977       0.00000000     -0.157000005       3.34578037       1.56232369    
   4.76741982       0.00000000     -0.246999994       3.34578037       1.56232369    
   4.67581606      0.930077016     -0.246999994       3.34578037       1.56232369    
   5.38451099       1.07104599     -0.157000005       3.34578037       1.56232369    
   5.38451099      -1.07104599     -0.157000005       3.21206737       1.57250202    
   4.67581606     -0.930077016     -0.246999994       3.21206737       1.57250202    
   4.76741982       0.00000000     -0.246999994       3.21206737       1.57250202    
   5.48999977       0.00000000     -0.157000005       3.21206737       1.57250202    
   5.07209921      -2.10093188     -0.157000005       3.20062423       1.54665220    
   4.40452194      -1.82441294     -0.246999994       3.20062423       1.54665220    
   4.67581606     -0.930077016     -0.246999994       3.20062423       1.54665220    
   5.38451099      -1.07104599     -0.157000005       3.20062423       1.54665220    
   4.56476784      -3.05008101     -0.157000005       3.30527234       1.57135975    
   3.96396494      -2.64863706     -0.246999994       3.30527234       1.57135975    
   4.40452194      -1.82441294     -0.246999994       3.30527234       1.57135975    
   5.07209921      -2.10093188     -0.157000005       3.30527234       1.57135975    
   3.88201594      -3.88201594     -0.157000005       3.26128173       1.55462873    
   3.37107491      -3.37107491     -0.246999994       3.26128173       1.55462873    
   3.96396494      -2.64863706     -0.246999994       3.26128173       1.55462873    
   4.56476784      -3.05008101     -0.157000005       3.26128173       1.55462873    
   3.05008101      -4.56476784     -0.157000005       5.75700855       1.57256818    
   2.64863706      -3.96396494     -0.246999994       5.75700855       1.57256818    
   3.37107491      -3.37107491     -0.246999994       5.75700855       1.57256818    
   3.88201594      -3.88201594     -0.157000005       5.75700855       1.57256818    
   2.10093188      -5.07209921     -0.157000005       3.48623729       1.56955361    
   1.82441294      -4.40452194     -0.246999994       3.48623729       1.56955361    
   2.64863706      -3.96396494     -0.246999994       3.48623729       1.56955361    
   3.05008101      -4.56476784     -0.157000005       3.48623729       1.56955361    
   1.07104599      -5.38451099     -0.157000005       3.23514962       1.54407036    
  0.930077016      -4.67581606     -0.246999994       3.23514962       1.54407036    
   1.82441294      -4.40452194     -0.246999994       3.23514962       1.54407036    
   2.10093188      -5.07209921     -0.157000005       3.23514962       1.54407036    
   0.00000000      -1.87709999     -0.606999993       3.22330165      -1.57233274    
   0.00000000      -1.36500001     -0.606999993       3.22330165      -1.57233274    
  0.266297996      -1.33877206     -0.606999993       3.22330165      -1.57233274    
  0.366203994      -1.84103203     -0.606999993       3.22330165      -1.57233274    
   0.00000000      -1.87709999     -0.606999993      0.246384963      -1.58422613    
   0.00000000      -2.59967995     -0.517000020      0.246384963      -1.58422613    
 -0.507171988      -2.54972792     -0.517000020      0.246384963      -1.58422613    
 -0.366203994      -1.84103203     -0.606999993      0.246384963      -1.58422613    
 -0.366203994      -1.84103203     -0.606999993       3.20123959      -1.57232094    
 -0.266297996      -1.33877206     -0.606999993       3.20123959      -1.57232094    
   0.00000000      -1.36500001     -0.606999993       3.20123959      -1.57232094    
   0.00000000      -1.87709999     -0.606999993       3.20123959      -1.57232094    
 -0.366203994      -1.84103203     -0.606999993      0.231543586      -1.58376122    
 -0.507171988      -2.54972792     -0.517000020      0.231543586      -1.58376122    
 -0.994853973      -2.40179110     -0.517000020      0.231543586      -1.58376122    
 -0.718334973      -1.73421395     -0.606999993      0.231543586      -1.58376122    
 -0.718334973      -1.73421395     -0.606999993       3.17202973      -1.57236624    
 -0.522363007      -1.26109600     -0.606999993       3.17202973      -1.57236624    
 -0.266297996      -1.33877206     -0.606999993       3.17202973      -1.57236624    
 -0.366203994      -1.84103203     -0.606999993       3.17202973      -1.57236624    
 -0.718334973      -1.73421395     -0.606999993      0.220578402      -1.58157694    
 -0.994853973      -2.40179110     -0.517000020      0.220578402      -1.58157694    
  -1.44430494      -2.16155505     -0.517000020      0.220578402      -1.58157694    
  -1.04286098      -1.56075203     -0.606999993      0.220578402      -1.58157694    
  -1.04286098      -1.56075203     -0.606999993       3.14981031      -1.57241929    
 -0.758352995      -1.13495600     -0.606999993       3.14981031      -1.57241929    
 -0.522363007      -1.26109600     -0.606999993       3.14981031      -1.57241929    
 -0.718334973      -1.73421395     -0.606999993       3.14981031      -1.57241929    
  -1.04286098      -1.56075203     -0.606999993      0.215327665      -1.58052456    
  -1.44430494      -2.16155505     -0.517000020      0.215327665      -1.58052456    
  -1.83825099      -1.83825099     -0.517000020      0.215327665      -1.58052456    
  -1.32730997      -1.32730997     -0.606999993      0.215327665      -1.58052456    
  -1.32730997      -1.32730997     -0.606999993       3.13946581      -1.57228470    
 -0.965201020     -0.965201020     -0.606999993       3.13946581      -1.57228470    
 -0.758352995      -1.13495600     -0.606999993       3.13946581      -1.57228470    
  -1.04286098      -1.56075203     -0.606999993       3.13946581      -1.57228470    
  -1.32730997      -1.32730997     -0.606999993      0.214254871      -1.58154285    
  -1.83825099      -1.83825099     -0.517000020      0.214254871      -1.58154285    
  -2.16155505      -1.44430494     -0.517000020      0.214254871      -1.58154285    
  -1.56075203      -1.04286098     -0.606999993      0.214254871      -1.58154285    
  -1.56075203      -1.04286098     -0.606999993       3.13423419      -1.57229996    
  -1.13495600     -0.758352995     -0.606999993       3.13423419      -1.57229996    
 -0.965201020     -0.965201020     -0.606999993       3.13423419      -1.57229996    
  -1.32730997      -1.32730997     -0.606999993       3.13423419      -1.57229996    
  -1.56075203      -1.04286098     -0.606999993      0.208754122      -1.58472121    
  -2.16155505      -1.44430494     -0.517000020      0.208754122      -1.58472121    
  -2.40179110     -0.994853973     -0.517000020      0.208754122      -1.58472121    
  -1.73421395     -0.718334973     -0.606999993      0.208754122      -1.58472121    
  -1.73421395     -0.718334973     -0.606999993       3.11443520      -1.57236433    
  -1.26109600     -0.522363007     -0.606999993       3.11443520      -1.57236433    
  -1.13495600     -0.758352995     -0.606999993       3.11443520      -1.57236433    
  -1.56075203      -1.04286098     -0.606999993       3.11443520      -1.57236433    
  -1.73421395     -0.718334973     -0.606999993      0.204222396      -1.58689308    
  -2.40179110     -0.994853973     -0.517000020      0.204222396      -1.58689308    
  -2.54972792     -0.507171988     -0.517000020      0.204222396      -1.58689308    
  -1.84103203     -0.366203994     -0.606999993      0.204222396      -1.58689308    
  -1.84103203     -0.366203994     -0.606999993       3.10074544      -1.57225478    
  -1.33877206     -0.266297996     -0.606999993       3.10074544      -1.57225478    
  -1.26109600     -0.522363007     -0.606999993       3.10074544      -1.57225478    
  -1.73421395     -0.718334973     -0.606999993       3.10074544      -1.57225478    
  -1.84103203     -0.366203994     -0.606999993      0.206061170      -1.58659661    
  -2.54972792     -0.507171988     -0.517000020      0.206061170      -1.58659661    
  -2.59967995       0.00000000     -0.517000020      0.206061170      -1.58659661    
  -1.87709999       0.00000000     -0.606999993      0.206061170      -1.58659661    
  -1.87709999       0.00000000     -0.606999993       3.10716820      -1.57224381    
  -1.36500001       0.00000000     -0.606999993       3.10716820      -1.57224381    
  -1.33877206     -0.266297996     -0.606999993       3.10716820      -1.57224381    
  -1.84103203     -0.366203994     -0.606999993       3.10716820      -1.57224381    
  -1.87709999       0.00000000     -0.606999993      0.218841627      -1.58572721    
  -2.59967995       0.00000000     -0.517000020      0.218841627      -1.58572721    
  -2.54972792      0.507171988     -0.517000020      0.218841627      -1.58572721    
  -1.84103203      0.366203994     -0.606999993      0.218841627      -1.58572721    
  -1.84103203      0.366203994     -0.606999993       3.13454890      -1.57219613    
  -1.33877206      0.266297996     -0.606999993       3.13454890      -1.57219613    
  -1.36500001       0.00000000     -0.606999993       3.13454890      -1.57219613    
  -1.87709999       0.00000000     -0.606999993       3.13454890      -1.57219613    
  -1.84103203      0.366203994     -0.606999993      0.239219874      -1.58646274    
  -2.54972792      0.507171988     -0.517000020      0.239219874      -1.58646274    
  -2.40179110      0.994853973     -0.517000020      0.239219874      -1.58646274    
  -1.73421395      0.718334973     -0.606999993      0.239219874      -1.58646274    
  -1.73421395      0.718334973     -0.606999993       3.17271495      -1.57226002    
  -1.26109600      0.522363007     -0.606999993       3.17271495      -1.57226002    
  -1.33877206      0.266297996     -0.606999993       3.17271495      -1.57226002    
  -1.84103203      0.366203994     -0.606999993       3.17271495      -1.57226002    
  -1.73421395      0.718334973     -0.606999993      0.259197533      -1.58639920    
  -2.40179110      0.994853973     -0.517000020      0.259197533      -1.58639920    
  -2.16155505       1.44430494     -0.517000020      0.259197533      -1.58639920    
  -1.56075203       1.04286098     -0.606999993      0.259197533      -1.58639920    
  -1.56075203       1.04286098     -0.606999993       3.20928192      -1.57239366    
  -1.13495600      0.758352995     -0.606999993       3.20928192      -1.57239366    
  -1.26109600      0.522363007     -0.606999993       3.20928192      -1.57239366    
  -1.73421395      0.718334973     -0.606999993       3.20928192      -1.57239366    
  -1.56075203       1.04286098     -0.606999993      0.269644707      -1.58444881    
  -2.16155505       1.44430494     -0.517000020      0.269644707      -1.58444881    
  -1.83825099       1.83825099     -0.517000020      0.269644707      -1.58444881    
  -1.32730997       1.32730997     -0.606999993      0.269644707      -1.58444881    
  -1.32730997       1.32730997     -0.606999993       3.23229432      -1.57226777    
 -0.965201020      0.965201020     -0.606999993       3.23229432      -1.57226777    
  -1.13495600      0.758352995     -0.606999993       3.23229432      -1.57226777    
  -1.56075203       1.04286098     -0.606999993       3.23229432      -1.57226777    
  -1.32730997       1.32730997     -0.606999993      0.270317227      -1.58373141    
  -1.83825099       1.83825099     -0.517000020      0.270317227      -1.58373141    
  -1.44430494       2.16155505     -0.517000020      0.270317227      -1.58373141    
  -1.04286098       1.56075203     -0.606999993      0.270317227      -1.58373141    
  -1.04286098       1.56075203     -0.606999993       3.23520756      -1.57225943    
 -0.758352995       1.13495600     -0.606999993       3.23520756      -1.57225943    
 -0.965201020      0.965201020     -0.606999993       3.23520756      -1.57225943    
  -1.32730997       1.32730997     -0.606999993       3.23520756      -1.57225943    
  -1.04286098       1.56075203     -0.606999993      0.261381626      -1.58369231    
  -1.44430494       2.16155505     -0.517000020      0.261381626      -1.58369231    
 -0.994853973       2.40179110     -0.517000020      0.261381626      -1.58369231    
 -0.718334973       1.73421395     -0.606999993      0.261381626      -1.58369231    
 -0.718334973       1.73421395     -0.606999993       3.21922851      -1.57224178    
 -0.522363007       1.26109600     -0.606999993       3.21922851      -1.57224178    
 -0.758352995       1.13495600     -0.606999993       3.21922851      -1.57224178    
  -1.04286098       1.56075203     -0.606999993       3.21922851      -1.57224178    
 -0.718334973       1.73421395     -0.606999993      0.247949138      -1.58326483    
 -0.994853973       2.40179110     -0.517000020      0.247949138      -1.58326483    
 -0.507171988       2.54972792     -0.517000020      0.247949138      -1.58326483    
 -0.366203994       1.84103203     -0.606999993      0.247949138      -1.58326483    
 -0.366203994       1.84103203     -0.606999993       3.18662524      -1.57207370    
 -0.266297996       1.33877206     -0.606999993       3.18662524      -1.57207370    
 -0.522363007       1.26109600     -0.606999993       3.18662524      -1.57207370    
 -0.718334973       1.73421395     -0.606999993       3.18662524      -1.57207370    
 -0.366203994       1.84103203     -0.606999993      0.232778266      -1.58394599    
 -0.507171988       2.54972792     -0.517000020      0.232778266      -1.58394599    
   0.00000000       2.59967995     -0.517000020      0.232778266      -1.58394599    
   0.00000000       1.87709999     -0.606999993      0.232778266      -1.58394599    
   0.00000000       1.87709999     -0.606999993       3.14914632      -1.57208884    
   0.00000000       1.36500001     -0.606999993       3.14914632      -1.57208884    
 -0.266297996       1.33877206     -0.606999993       3.14914632      -1.57208884    
 -0.366203994       1.84103203     -0.606999993       3.14914632      -1.57208884    
   0.00000000       1.87709999     -0.606999993      0.214817628      -1.58489799    
   0.00000000       2.59967995     -0.517000020      0.214817628      -1.58489799    
  0.507171988       2.54972792     -0.517000020      0.214817628      -1.58489799    
  0.366203994       1.84103203     -0.606999993      0.214817628      -1.58489799    
  0.366203994       1.84103203     -0.606999993       3.11035705      -1.57205212    
  0.266297996       1.33877206     -0.606999993       3.11035705      -1.57205212    
   0.00000000       1.36500001     -0.606999993       3.11035705      -1.57205212    
   0.00000000       1.87709999     -0.606999993       3.11035705      -1.57205212    
  0.366203994       1.84103203     -0.606999993      0.201599464      -1.58456409    
  0.507171988       2.54972792     -0.517000020      0.201599464      -1.58456409    
  0.994853973       2.40179110     -0.517000020      0.201599464      -1.58456409    
  0.718334973       1.73421395     -0.606999993      0.201599464      -1.58456409    
  0.718334973       1.73421395     -0.606999993       3.08471084      -1.57200277    
  0.522363007       1.26109600     -0.606999993       3.08471084      -1.57200277    
  0.266297996       1.33877206     -0.606999993       3.08471084      -1.57200277    
  0.366203994       1.84103203     -0.606999993       3.08471084      -1.57200277    
  0.718334973       1.73421395     -0.606999993      0.200350165      -1.58408892    
  0.994853973       2.40179110     -0.517000020      0.200350165      -1.58408892    
   1.44430494       2.16155505     -0.517000020      0.200350165      -1.58408892    
   1.04286098       1.56075203     -0.606999993      0.200350165      -1.58408892    
   1.04286098       1.56075203     -0.606999993       3.08598042      -1.57210040    
  0.758352995       1.13495600     -0.606999993       3.08598042      -1.57210040    
  0.522363007       1.26109600     -0.606999993       3.08598042      -1.57210040    
  0.718334973       1.73421395     -0.606999993       3.08598042      -1.57210040    
   1.04286098       1.56075203     -0.606999993      0.211708114      -1.58490634    
   1.44430494       2.16155505     -0.517000020      0.211708114      -1.58490634    
   1.83825099       1.83825099     -0.517000020      0.211708114      -1.58490634    
   1.32730997       1.32730997     -0.606999993      0.211708114      -1.58490634    
   1.32730997       1.32730997     -0.606999993       3.11375976      -1.57206082    
  0.965201020      0.965201020     -0.606999993       3.11375976      -1.57206082    
  0.758352995       1.13495600     -0.606999993       3.11375976      -1.57206082    
   1.04286098       1.56075203     -0.606999993       3.11375976      -1.57206082    
   1.32730997       1.32730997     -0.606999993      0.231889963      -1.58621943    
   1.83825099       1.83825099     -0.517000020      0.231889963      -1.58621943    
   2.16155505       1.44430494     -0.517000020      0.231889963      -1.58621943    
   1.56075203       1.04286098     -0.606999993      0.231889963      -1.58621943    
   1.56075203       1.04286098     -0.606999993       3.15701485      -1.57215035    
   1.13495600      0.758352995     -0.606999993       3.15701485      -1.57215035    
  0.965201020      0.965201020     -0.606999993       3.15701485      -1.57215035    
   1.32730997       1.32730997     -0.606999993       3.15701485      -1.57215035    
   1.56075203       1.04286098     -0.606999993      0.240729749      -1.58657706    
   2.16155505       1.44430494     -0.517000020      0.240729749      -1.58657706    
   2.40179110      0.994853973     -0.517000020      0.240729749      -1.58657706    
   1.73421395      0.718334973     -0.606999993      0.240729749      -1.58657706    
   1.73421395      0.718334973     -0.606999993       3.18305063      -1.57226086    
   1.26109600      0.522363007     -0.606999993       3.18305063      -1.57226086    
   1.13495600      0.758352995     -0.606999993       3.18305063      -1.57226086    
   1.56075203       1.04286098     -0.606999993       3.18305063      -1.57226086    
   1.73421395      0.718334973     -0.606999993      0.234300807      -1.58525479    
   2.40179110      0.994853973     -0.517000020      0.234300807      -1.58525479    
   2.54972792      0.507171988     -0.517000020      0.234300807      -1.58525479    
   1.84103203      0.366203994     -0.606999993      0.234300807      -1.58525479    
   1.84103203      0.366203994     -0.606999993       3.16425633      -1.57222402    
   1.33877206      0.266297996     -0.606999993       3.16425633      -1.57222402    
   1.26109600      0.522363007     -0.606999993       3.16425633      -1.57222402    
   1.73421395      0.718334973     -0.606999993       3.16425633      -1.57222402    
   1.84103203      0.366203994     -0.606999993      0.220691726      -1.58452654    
   2.54972792      0.507171988     -0.517000020      0.220691726      -1.58452654    
   2.59967995       0.00000000     -0.517000020      0.220691726      -1.58452654    
   1.87709999       0.00000000     -0.606999993      0.220691726      -1.58452654    
   1.87709999       0.00000000     -0.606999993       3.13745356      -1.57229125    
   1.36500001       0.00000000     -0.606999993       3.13745356      -1.57229125    
   1.33877206      0.266297996     -0.606999993       3.13745356      -1.57229125    
   1.84103203      0.366203994     -0.606999993       3.13745356      -1.57229125    
   1.87709999       0.00000000     -0.606999993      0.214172557      -1.58371055    
   2.59967995       0.00000000     -0.517000020      0.214172557      -1.58371055    
   2.54972792     -0.507171988     -0.517000020      0.214172557      -1.58371055    
   1.84103203     -0.366203994     -0.606999993      0.214172557      -1.58371055    
   1.84103203     -0.366203994     -0.606999993       3.12697959      -1.57228887    
   1.33877206     -0.266297996     -0.606999993       3.12697959      -1.57228887    
   1.36500001       0.00000000     -0.606999993       3.12697959      -1.57228887    
   1.87709999       0.00000000     -0.606999993       3.12697959      -1.57228887    
   1.84103203     -0.366203994     -0.606999993      0.218018234      -1.58360159    
   2.54972792     -0.507171988     -0.517000020      0.218018234      -1.58360159    
   2.40179110     -0.994853973     -0.517000020      0.218018234      -1.58360159    
   1.73421395     -0.718334973     -0.606999993      0.218018234      -1.58360159    
   1.73421395     -0.718334973     -0.606999993       3.13575673      -1.57228541    
   1.26109600     -0.522363007     -0.606999993       3.13575673      -1.57228541    
   1.33877206     -0.266297996     -0.606999993       3.13575673      -1.57228541    
   1.84103203     -0.366203994     -0.606999993       3.13575673      -1.57228541    
   1.73421395     -0.718334973     -0.606999993      0.227908015      -1.58367419    
   2.40179110     -0.994853973     -0.517000020      0.227908015      -1.58367419    
   2.16155505      -1.44430494     -0.517000020      0.227908015      -1.58367419    
   1.56075203      -1.04286098     -0.606999993      0.227908015      -1.58367419    
   1.56075203      -1.04286098     -0.606999993       3.15750575      -1.57229435    
   1.13495600     -0.758352995     -0.606999993       3.15750575      -1.57229435    
   1.26109600     -0.522363007     -0.606999993       3.15750575      -1.57229435    