 VARIABLES="X" "Y" "Z" "abs(p) (Pa)" "angle(p) (rad)"
ZONE N=   2709,E =    2358, F=FEPOINT, ET=QUADRILATERAL
   0.00000000      -5.48999977     -0.157000005       1.43995667     -0.943501472    
   0.00000000      -4.76741982     -0.246999994       1.43995667     -0.943501472    
  0.930077016      -4.67581606     -0.246999994       1.43995667     -0.943501472    
   1.07104599      -5.38451099     -0.157000005       1.43995667     -0.943501472    
  -1.07104599      -5.38451099     -0.157000005       1.49697125       2.12722754    
 -0.930077016      -4.67581606     -0.246999994       1.49697125       2.12722754    
   0.00000000      -4.76741982     -0.246999994       1.49697125       2.12722754    
   0.00000000      -5.48999977     -0.157000005       1.49697125       2.12722754    
  -2.10093188      -5.07209921     -0.157000005       2.88164163       2.10616207    
  -1.82441294      -4.40452194     -0.246999994       2.88164163       2.10616207    
 -0.930077016      -4.67581606     -0.246999994       2.88164163       2.10616207    
  -1.07104599      -5.38451099     -0.157000005       2.88164163       2.10616207    
  -3.05008101      -4.56476784     -0.157000005       1.37618709       2.06534767    
  -2.64863706      -3.96396494     -0.246999994       1.37618709       2.06534767    
  -1.82441294      -4.40452194     -0.246999994       1.37618709       2.06534767    
  -2.10093188      -5.07209921     -0.157000005       1.37618709       2.06534767    
  -3.88201594      -3.88201594     -0.157000005       1.23206913     -0.827751637    
  -3.37107491      -3.37107491     -0.246999994       1.23206913     -0.827751637    
  -2.64863706      -3.96396494     -0.246999994       1.23206913     -0.827751637    
  -3.05008101      -4.56476784     -0.157000005       1.23206913     -0.827751637    
  -4.56476784      -3.05008101     -0.157000005       2.39295363      -1.05471015    
  -3.96396494      -2.64863706     -0.246999994       2.39295363      -1.05471015    
  -3.37107491      -3.37107491     -0.246999994       2.39295363      -1.05471015    
  -3.88201594      -3.88201594     -0.157000005       2.39295363      -1.05471015    
  -5.07209921      -2.10093188     -0.157000005       1.27146721      -1.32600486    
  -4.40452194      -1.82441294     -0.246999994       1.27146721      -1.32600486    
  -3.96396494      -2.64863706     -0.246999994       1.27146721      -1.32600486    
  -4.56476784      -3.05008101     -0.157000005       1.27146721      -1.32600486    
  -5.38451099      -1.07104599     -0.157000005      0.687111557      -3.01981163    
  -4.67581606     -0.930077016     -0.246999994      0.687111557      -3.01981163    
  -4.40452194      -1.82441294     -0.246999994      0.687111557      -3.01981163    
  -5.07209921      -2.10093188     -0.157000005      0.687111557      -3.01981163    
  -5.48999977       0.00000000     -0.157000005      0.561146319      -2.43065429    
  -4.76741982       0.00000000     -0.246999994      0.561146319      -2.43065429    
  -4.67581606     -0.930077016     -0.246999994      0.561146319      -2.43065429    
  -5.38451099      -1.07104599     -0.157000005      0.561146319      -2.43065429    
  -5.38451099       1.07104599     -0.157000005       1.71241188      -1.18166852    
  -4.67581606      0.930077016     -0.246999994       1.71241188      -1.18166852    
  -4.76741982       0.00000000     -0.246999994       1.71241188      -1.18166852    
  -5.48999977       0.00000000     -0.157000005       1.71241188      -1.18166852    
  -5.07209921       2.10093188     -0.157000005       2.28629351      -1.05423570    
  -4.40452194       1.82441294     -0.246999994       2.28629351      -1.05423570    
  -4.67581606      0.930077016     -0.246999994       2.28629351      -1.05423570    
  -5.38451099       1.07104599     -0.157000005       2.28629351      -1.05423570    
  -4.56476784       3.05008101     -0.157000005      0.524846733      -1.04366517    
  -3.96396494       2.64863706     -0.246999994      0.524846733      -1.04366517    
  -4.40452194       1.82441294     -0.246999994      0.524846733      -1.04366517    
  -5.07209921       2.10093188     -0.157000005      0.524846733      -1.04366517    
  -3.88201594       3.88201594     -0.157000005       1.72820032       2.20949721    
  -3.37107491       3.37107491     -0.246999994       1.72820032       2.20949721    
  -3.96396494       2.64863706     -0.246999994       1.72820032       2.20949721    
  -4.56476784       3.05008101     -0.157000005       1.72820032       2.20949721    
  -3.05008101       4.56476784     -0.157000005       2.00838327       2.10671878    
  -2.64863706       3.96396494     -0.246999994       2.00838327       2.10671878    
  -3.37107491       3.37107491     -0.246999994       2.00838327       2.10671878    
  -3.88201594       3.88201594     -0.157000005       2.00838327       2.10671878    
  -2.10093188       5.07209921     -0.157000005      0.522968888      -1.11726415    
  -1.82441294       4.40452194     -0.246999994      0.522968888      -1.11726415    
  -2.64863706       3.96396494     -0.246999994      0.522968888      -1.11726415    
  -3.05008101       4.56476784     -0.157000005      0.522968888      -1.11726415    
  -1.07104599       5.38451099     -0.157000005       2.53058982      -1.07281506    
 -0.930077016       4.67581606     -0.246999994       2.53058982      -1.07281506    
  -1.82441294       4.40452194     -0.246999994       2.53058982      -1.07281506    
  -2.10093188       5.07209921     -0.157000005       2.53058982      -1.07281506    
   0.00000000       5.48999977     -0.157000005       1.25496352     -0.921127081    
   0.00000000       4.76741982     -0.246999994       1.25496352     -0.921127081    
 -0.930077016       4.67581606     -0.246999994       1.25496352     -0.921127081    
  -1.07104599       5.38451099     -0.157000005       1.25496352     -0.921127081    
   1.07104599       5.38451099     -0.157000005       1.25009513       2.12690067    
  0.930077016       4.67581606     -0.246999994       1.25009513       2.12690067    
   0.00000000       4.76741982     -0.246999994       1.25009513       2.12690067    
   0.00000000       5.48999977     -0.157000005       1.25009513       2.12690067    
   2.10093188       5.07209921     -0.157000005       2.50448275       2.11573577    
   1.82441294       4.40452194     -0.246999994       2.50448275       2.11573577    
  0.930077016       4.67581606     -0.246999994       2.50448275       2.11573577    
   1.07104599       5.38451099     -0.157000005       2.50448275       2.11573577    
   3.05008101       4.56476784     -0.157000005      0.459500134       2.21186709    
   2.64863706       3.96396494     -0.246999994      0.459500134       2.21186709    
   1.82441294       4.40452194     -0.246999994      0.459500134       2.21186709    
   2.10093188       5.07209921     -0.157000005      0.459500134       2.21186709    
   3.88201594       3.88201594     -0.157000005       2.10263824      -1.07301235    
   3.37107491       3.37107491     -0.246999994       2.10263824      -1.07301235    
   2.64863706       3.96396494     -0.246999994       2.10263824      -1.07301235    
   3.05008101       4.56476784     -0.157000005       2.10263824      -1.07301235    
   4.56476784       3.05008101     -0.157000005       1.79138923     -0.946026444    
   3.96396494       2.64863706     -0.246999994       1.79138923     -0.946026444    
   3.37107491       3.37107491     -0.246999994       1.79138923     -0.946026444    
   3.88201594       3.88201594     -0.157000005       1.79138923     -0.946026444    
   5.07209921       2.10093188     -0.157000005      0.513451338       1.95317960    
   4.40452194       1.82441294     -0.246999994      0.513451338       1.95317960    
   3.96396494       2.64863706     -0.246999994      0.513451338       1.95317960    
   4.56476784       3.05008101     -0.157000005      0.513451338       1.95317960    
   5.38451099       1.07104599     -0.157000005       2.27236176       2.12748361    
   4.67581606      0.930077016     -0.246999994       2.27236176       2.12748361    
   4.40452194       1.82441294     -0.246999994       2.27236176       2.12748361    
   5.07209921       2.10093188     -0.157000005       2.27236176       2.12748361    
   5.48999977       0.00000000     -0.157000005       1.66838765       2.04883265    
   4.76741982       0.00000000     -0.246999994       1.66838765       2.04883265    
   4.67581606      0.930077016     -0.246999994       1.66838765       2.04883265    
   5.38451099       1.07104599     -0.157000005       1.66838765       2.04883265    
   5.38451099      -1.07104599     -0.157000005      0.480040073      0.610252202    
   4.67581606     -0.930077016     -0.246999994      0.480040073      0.610252202    
   4.76741982       0.00000000     -0.246999994      0.480040073      0.610252202    
   5.48999977       0.00000000     -0.157000005      0.480040073      0.610252202    
   5.07209921      -2.10093188     -0.157000005      0.711414874      0.129936829    
   4.40452194      -1.82441294     -0.246999994      0.711414874      0.129936829    
   4.67581606     -0.930077016     -0.246999994      0.711414874      0.129936829    
   5.38451099      -1.07104599     -0.157000005      0.711414874      0.129936829    
   4.56476784      -3.05008101     -0.157000005       1.32119477       1.76847684    
   3.96396494      -2.64863706     -0.246999994       1.32119477       1.76847684    
   4.40452194      -1.82441294     -0.246999994       1.32119477       1.76847684    
   5.07209921      -2.10093188     -0.157000005       1.32119477       1.76847684    
   3.88201594      -3.88201594     -0.157000005       2.40014601       2.11183167    
   3.37107491      -3.37107491     -0.246999994       2.40014601       2.11183167    
   3.96396494      -2.64863706     -0.246999994       2.40014601       2.11183167    
   4.56476784      -3.05008101     -0.157000005       2.40014601       2.11183167    
   3.05008101      -4.56476784     -0.157000005       1.20084548       2.31463265    
   2.64863706      -3.96396494     -0.246999994       1.20084548       2.31463265    
   3.37107491      -3.37107491     -0.246999994       1.20084548       2.31463265    
   3.88201594      -3.88201594     -0.157000005       1.20084548       2.31463265    
   2.10093188      -5.07209921     -0.157000005       1.41280866      -1.10859311    
   1.82441294      -4.40452194     -0.246999994       1.41280866      -1.10859311    
   2.64863706      -3.96396494     -0.246999994       1.41280866      -1.10859311    
   3.05008101      -4.56476784     -0.157000005       1.41280866      -1.10859311    
   1.07104599      -5.38451099     -0.157000005       2.85914707     -0.990936279    
  0.930077016      -4.67581606     -0.246999994       2.85914707     -0.990936279    
   1.82441294      -4.40452194     -0.246999994       2.85914707     -0.990936279    
   2.10093188      -5.07209921     -0.157000005       2.85914707     -0.990936279    
   0.00000000      -1.87709999     -0.606999993       8.81399155      -1.57706285    
   0.00000000      -1.36500001     -0.606999993       8.81399155      -1.57706285    
  0.266297996      -1.33877206     -0.606999993       8.81399155      -1.57706285    
  0.366203994      -1.84103203     -0.606999993       8.81399155      -1.57706285    
   0.00000000      -1.87709999     -0.606999993       15.8224039       1.57038665    
   0.00000000      -2.59967995     -0.517000020       15.8224039       1.57038665    
 -0.507171988      -2.54972792     -0.517000020       15.8224039       1.57038665    
 -0.366203994      -1.84103203     -0.606999993       15.8224039       1.57038665    
 -0.366203994      -1.84103203     -0.606999993       7.10547352       1.56737077    
 -0.266297996      -1.33877206     -0.606999993       7.10547352       1.56737077    
   0.00000000      -1.36500001     -0.606999993       7.10547352       1.56737077    
   0.00000000      -1.87709999     -0.606999993       7.10547352       1.56737077    
 -0.366203994      -1.84103203     -0.606999993       31.2741165       1.56969321    
 -0.507171988      -2.54972792     -0.517000020       31.2741165       1.56969321    
 -0.994853973      -2.40179110     -0.517000020       31.2741165       1.56969321    
 -0.718334973      -1.73421395     -0.606999993       31.2741165       1.56969321    
 -0.718334973      -1.73421395     -0.606999993       15.4483976       1.56432009    
 -0.522363007      -1.26109600     -0.606999993       15.4483976       1.56432009    
 -0.266297996      -1.33877206     -0.606999993       15.4483976       1.56432009    
 -0.366203994      -1.84103203     -0.606999993       15.4483976       1.56432009    
 -0.718334973      -1.73421395     -0.606999993       14.5659676       1.56644654    
 -0.994853973      -2.40179110     -0.517000020       14.5659676       1.56644654    
  -1.44430494      -2.16155505     -0.517000020       14.5659676       1.56644654    
  -1.04286098      -1.56075203     -0.606999993       14.5659676       1.56644654    
  -1.04286098      -1.56075203     -0.606999993       9.08579445       1.55312479    
 -0.758352995      -1.13495600     -0.606999993       9.08579445       1.55312479    
 -0.522363007      -1.26109600     -0.606999993       9.08579445       1.55312479    
 -0.718334973      -1.73421395     -0.606999993       9.08579445       1.55312479    
  -1.04286098      -1.56075203     -0.606999993       14.5113058      -1.56484580    
  -1.44430494      -2.16155505     -0.517000020       14.5113058      -1.56484580    
  -1.83825099      -1.83825099     -0.517000020       14.5113058      -1.56484580    
  -1.32730997      -1.32730997     -0.606999993       14.5113058      -1.56484580    
  -1.32730997      -1.32730997     -0.606999993       3.96102357      -1.52141416    
 -0.965201020     -0.965201020     -0.606999993       3.96102357      -1.52141416    
 -0.758352995      -1.13495600     -0.606999993       3.96102357      -1.52141416    
  -1.04286098      -1.56075203     -0.606999993       3.96102357      -1.52141416    
  -1.32730997      -1.32730997     -0.606999993       25.2611580      -1.56705177    
  -1.83825099      -1.83825099     -0.517000020       25.2611580      -1.56705177    
  -2.16155505      -1.44430494     -0.517000020       25.2611580      -1.56705177    
  -1.56075203      -1.04286098     -0.606999993       25.2611580      -1.56705177    
  -1.56075203      -1.04286098     -0.606999993       10.2936621      -1.55134439    
  -1.13495600     -0.758352995     -0.606999993       10.2936621      -1.55134439    
 -0.965201020     -0.965201020     -0.606999993       10.2936621      -1.55134439    
  -1.32730997      -1.32730997     -0.606999993       10.2936621      -1.55134439    
  -1.56075203      -1.04286098     -0.606999993       9.96698093      -1.56217659    
  -2.16155505      -1.44430494     -0.517000020       9.96698093      -1.56217659    
  -2.40179110     -0.994853973     -0.517000020       9.96698093      -1.56217659    
  -1.73421395     -0.718334973     -0.606999993       9.96698093      -1.56217659    
  -1.73421395     -0.718334973     -0.606999993       5.77114916      -1.54053891    
  -1.26109600     -0.522363007     -0.606999993       5.77114916      -1.54053891    
  -1.13495600     -0.758352995     -0.606999993       5.77114916      -1.54053891    
  -1.56075203      -1.04286098     -0.606999993       5.77114916      -1.54053891    
  -1.73421395     -0.718334973     -0.606999993       8.80182266       1.56349051    
  -2.40179110     -0.994853973     -0.517000020       8.80182266       1.56349051    
  -2.54972792     -0.507171988     -0.517000020       8.80182266       1.56349051    
  -1.84103203     -0.366203994     -0.606999993       8.80182266       1.56349051    
  -1.84103203     -0.366203994     -0.606999993      0.964643478       1.44127405    
  -1.33877206     -0.266297996     -0.606999993      0.964643478       1.44127405    
  -1.26109600     -0.522363007     -0.606999993      0.964643478       1.44127405    
  -1.73421395     -0.718334973     -0.606999993      0.964643478       1.44127405    
  -1.84103203     -0.366203994     -0.606999993       6.59188938       1.56530523    
  -2.54972792     -0.507171988     -0.517000020       6.59188938       1.56530523    
  -2.59967995       0.00000000     -0.517000020       6.59188938       1.56530523    
  -1.87709999       0.00000000     -0.606999993       6.59188938       1.56530523    
  -1.87709999       0.00000000     -0.606999993      0.243599847       1.32460940    
  -1.36500001       0.00000000     -0.606999993      0.243599847       1.32460940    
  -1.33877206     -0.266297996     -0.606999993      0.243599847       1.32460940    
  -1.84103203     -0.366203994     -0.606999993      0.243599847       1.32460940    
  -1.87709999       0.00000000     -0.606999993       12.1670055      -1.57032073    
  -2.59967995       0.00000000     -0.517000020       12.1670055      -1.57032073    
  -2.54972792      0.507171988     -0.517000020       12.1670055      -1.57032073    
  -1.84103203      0.366203994     -0.606999993       12.1670055      -1.57032073    
  -1.84103203      0.366203994     -0.606999993       6.61657429      -1.57260597    
  -1.33877206      0.266297996     -0.606999993       6.61657429      -1.57260597    
  -1.36500001       0.00000000     -0.606999993       6.61657429      -1.57260597    
  -1.87709999       0.00000000     -0.606999993       6.61657429      -1.57260597    
  -1.84103203      0.366203994     -0.606999993       20.0949554      -1.57209408    
  -2.54972792      0.507171988     -0.517000020       20.0949554      -1.57209408    
  -2.40179110      0.994853973     -0.517000020       20.0949554      -1.57209408    
  -1.73421395      0.718334973     -0.606999993       20.0949554      -1.57209408    
  -1.73421395      0.718334973     -0.606999993       9.55319881      -1.57906234    
  -1.26109600      0.522363007     -0.606999993       9.55319881      -1.57906234    
  -1.33877206      0.266297996     -0.606999993       9.55319881      -1.57906234    
  -1.84103203      0.366203994     -0.606999993       9.55319881      -1.57906234    
  -1.73421395      0.718334973     -0.606999993       3.71239305      -1.58587468    
  -2.40179110      0.994853973     -0.517000020       3.71239305      -1.58587468    
  -2.16155505       1.44430494     -0.517000020       3.71239305      -1.58587468    
  -1.56075203       1.04286098     -0.606999993       3.71239305      -1.58587468    
  -1.56075203       1.04286098     -0.606999993       3.76250243      -1.60621011    
  -1.13495600      0.758352995     -0.606999993       3.76250243      -1.60621011    
  -1.26109600      0.522363007     -0.606999993       3.76250243      -1.60621011    
  -1.73421395      0.718334973     -0.606999993       3.76250243      -1.60621011    
  -1.56075203       1.04286098     -0.606999993       17.5744534       1.57514179    
  -2.16155505       1.44430494     -0.517000020       17.5744534       1.57514179    
  -1.83825099       1.83825099     -0.517000020       17.5744534       1.57514179    
  -1.32730997       1.32730997     -0.606999993       17.5744534       1.57514179    
  -1.32730997       1.32730997     -0.606999993       3.64887643       1.61644650    
 -0.965201020      0.965201020     -0.606999993       3.64887643       1.61644650    
  -1.13495600      0.758352995     -0.606999993       3.64887643       1.61644650    
  -1.56075203       1.04286098     -0.606999993       3.64887643       1.61644650    
  -1.32730997       1.32730997     -0.606999993       16.5012379       1.57570636    
  -1.83825099       1.83825099     -0.517000020       16.5012379       1.57570636    
  -1.44430494       2.16155505     -0.517000020       16.5012379       1.57570636    
  -1.04286098       1.56075203     -0.606999993       16.5012379       1.57570636    
  -1.04286098       1.56075203     -0.606999993       2.52915168       1.63951457    
 -0.758352995       1.13495600     -0.606999993       2.52915168       1.63951457    
 -0.965201020      0.965201020     -0.606999993       2.52915168       1.63951457    
  -1.32730997       1.32730997     -0.606999993       2.52915168       1.63951457    
  -1.04286098       1.56075203     -0.606999993       6.87163353      -1.58090997    
  -1.44430494       2.16155505     -0.517000020       6.87163353      -1.58090997    
 -0.994853973       2.40179110     -0.517000020       6.87163353      -1.58090997    
 -0.718334973       1.73421395     -0.606999993       6.87163353      -1.58090997    
 -0.718334973       1.73421395     -0.606999993       6.47695923      -1.59469962    
 -0.522363007       1.26109600     -0.606999993       6.47695923      -1.59469962    
 -0.758352995       1.13495600     -0.606999993       6.47695923      -1.59469962    
  -1.04286098       1.56075203     -0.606999993       6.47695923      -1.59469962    
 -0.718334973       1.73421395     -0.606999993       24.0776215      -1.57279193    
 -0.994853973       2.40179110     -0.517000020       24.0776215      -1.57279193    
 -0.507171988       2.54972792     -0.517000020       24.0776215      -1.57279193    
 -0.366203994       1.84103203     -0.606999993       24.0776215      -1.57279193    
 -0.366203994       1.84103203     -0.606999993       12.2438164      -1.57999980    
 -0.266297996       1.33877206     -0.606999993       12.2438164      -1.57999980    
 -0.522363007       1.26109600     -0.606999993       12.2438164      -1.57999980    
 -0.718334973       1.73421395     -0.606999993       12.2438164      -1.57999980    
 -0.366203994       1.84103203     -0.606999993       13.3221712      -1.57255173    
 -0.507171988       2.54972792     -0.517000020       13.3221712      -1.57255173    
   0.00000000       2.59967995     -0.517000020       13.3221712      -1.57255173    
   0.00000000       1.87709999     -0.606999993       13.3221712      -1.57255173    
   0.00000000       1.87709999     -0.606999993       6.42408514      -1.57929265    
   0.00000000       1.36500001     -0.606999993       6.42408514      -1.57929265    
 -0.266297996       1.33877206     -0.606999993       6.42408514      -1.57929265    
 -0.366203994       1.84103203     -0.606999993       6.42408514      -1.57929265    
   0.00000000       1.87709999     -0.606999993       13.0267572       1.57061028    
   0.00000000       2.59967995     -0.517000020       13.0267572       1.57061028    
  0.507171988       2.54972792     -0.517000020       13.0267572       1.57061028    
  0.366203994       1.84103203     -0.606999993       13.0267572       1.57061028    
  0.366203994       1.84103203     -0.606999993       5.73312998       1.56879556    
  0.266297996       1.33877206     -0.606999993       5.73312998       1.56879556    
   0.00000000       1.36500001     -0.606999993       5.73312998       1.56879556    
   0.00000000       1.87709999     -0.606999993       5.73312998       1.56879556    
  0.366203994       1.84103203     -0.606999993       23.7583542       1.56954479    
  0.507171988       2.54972792     -0.517000020       23.7583542       1.56954479    
  0.994853973       2.40179110     -0.517000020       23.7583542       1.56954479    
  0.718334973       1.73421395     -0.606999993       23.7583542       1.56954479    
  0.718334973       1.73421395     -0.606999993       11.4824047       1.56420255    
  0.522363007       1.26109600     -0.606999993       11.4824047       1.56420255    
  0.266297996       1.33877206     -0.606999993       11.4824047       1.56420255    
  0.366203994       1.84103203     -0.606999993       11.4824047       1.56420255    
  0.718334973       1.73421395     -0.606999993       6.47825289       1.56209707    
  0.994853973       2.40179110     -0.517000020       6.47825289       1.56209707    
   1.44430494       2.16155505     -0.517000020       6.47825289       1.56209707    
   1.04286098       1.56075203     -0.606999993       6.47825289       1.56209707    
   1.04286098       1.56075203     -0.606999993       5.63932467       1.54789078    
  0.758352995       1.13495600     -0.606999993       5.63932467       1.54789078    
  0.522363007       1.26109600     -0.606999993       5.63932467       1.54789078    
  0.718334973       1.73421395     -0.606999993       5.63932467       1.54789078    
   1.04286098       1.56075203     -0.606999993       16.9919662      -1.56638980    
   1.44430494       2.16155505     -0.517000020       16.9919662      -1.56638980    
   1.83825099       1.83825099     -0.517000020       16.9919662      -1.56638980    
   1.32730997       1.32730997     -0.606999993       16.9919662      -1.56638980    
   1.32730997       1.32730997     -0.606999993       3.40787649      -1.52289772    
  0.965201020      0.965201020     -0.606999993       3.40787649      -1.52289772    
  0.758352995       1.13495600     -0.606999993       3.40787649      -1.52289772    
   1.04286098       1.56075203     -0.606999993       3.40787649      -1.52289772    
   1.32730997       1.32730997     -0.606999993       18.1122437      -1.56648648    
   1.83825099       1.83825099     -0.517000020       18.1122437      -1.56648648    
   2.16155505       1.44430494     -0.517000020       18.1122437      -1.56648648    
   1.56075203       1.04286098     -0.606999993       18.1122437      -1.56648648    
   1.56075203       1.04286098     -0.606999993       4.48672962      -1.53244686    
   1.13495600      0.758352995     -0.606999993       4.48672962      -1.53244686    
  0.965201020      0.965201020     -0.606999993       4.48672962      -1.53244686    
   1.32730997       1.32730997     -0.606999993       4.48672962      -1.53244686    
   1.56075203       1.04286098     -0.606999993       3.25444412       1.55083704    
   2.16155505       1.44430494     -0.517000020       3.25444412       1.55083704    
   2.40179110      0.994853973     -0.517000020       3.25444412       1.55083704    
   1.73421395      0.718334973     -0.606999993       3.25444412       1.55083704    
   1.73421395      0.718334973     -0.606999993       3.00860023       1.51954436    
   1.26109600      0.522363007     -0.606999993       3.00860023       1.51954436    
   1.13495600      0.758352995     -0.606999993       3.00860023       1.51954436    
   1.56075203       1.04286098     -0.606999993       3.00860023       1.51954436    
   1.73421395      0.718334973     -0.606999993       19.7796803       1.56874132    
   2.40179110      0.994853973     -0.517000020       19.7796803       1.56874132    
   2.54972792      0.507171988     -0.517000020       19.7796803       1.56874132    
   1.84103203      0.366203994     -0.606999993       19.7796803       1.56874132    
   1.84103203      0.366203994     -0.606999993       8.90457153       1.55817521    
   1.33877206      0.266297996     -0.606999993       8.90457153       1.55817521    
   1.26109600      0.522363007     -0.606999993       8.90457153       1.55817521    
   1.73421395      0.718334973     -0.606999993       8.90457153       1.55817521    
   1.84103203      0.366203994     -0.606999993       11.9857035       1.56974971    
   2.54972792      0.507171988     -0.517000020       11.9857035       1.56974971    
   2.59967995       0.00000000     -0.517000020       11.9857035       1.56974971    
   1.87709999       0.00000000     -0.606999993       11.9857035       1.56974971    
   1.87709999       0.00000000     -0.606999993       6.06381702       1.56212318    
   1.36500001       0.00000000     -0.606999993       6.06381702       1.56212318    
   1.33877206      0.266297996     -0.606999993       6.06381702       1.56212318    
   1.84103203      0.366203994     -0.606999993       6.06381702       1.56212318    
   1.87709999       0.00000000     -0.606999993       6.69071007      -1.57334423    
   2.59967995       0.00000000     -0.517000020       6.69071007      -1.57334423    
   2.54972792     -0.507171988     -0.517000020       6.69071007      -1.57334423    
   1.84103203     -0.366203994     -0.606999993       6.69071007      -1.57334423    
   1.84103203     -0.366203994     -0.606999993      0.722359717      -1.59478223    
   1.33877206     -0.266297996     -0.606999993      0.722359717      -1.59478223    
   1.36500001       0.00000000     -0.606999993      0.722359717      -1.59478223    
   1.87709999       0.00000000     -0.606999993      0.722359717      -1.59478223    
   1.84103203     -0.366203994     -0.606999993       8.83680820      -1.57607806    
   2.54972792     -0.507171988     -0.517000020       8.83680820      -1.57607806    
   2.40179110     -0.994853973     -0.517000020       8.83680820      -1.57607806    
   1.73421395     -0.718334973     -0.606999993       8.83680820      -1.57607806    
   1.73421395     -0.718334973     -0.606999993       1.46181810      -1.63074946    
   1.26109600     -0.522363007     -0.606999993       1.46181810      -1.63074946    
   1.33877206     -0.266297996     -0.606999993       1.46181810      -1.63074946    
   1.84103203     -0.366203994     -0.606999993       1.46181810      -1.63074946    
   1.73421395     -0.718334973     -0.606999993       9.94581604       1.57806921    
   2.40179110     -0.994853973     -0.517000020       9.94581604       1.57806921    
   2.16155505      -1.44430494     -0.517000020       9.94581604       1.57806921    
   1.56075203      -1.04286098     -0.606999993       9.94581604       1.57806921    
   1.56075203      -1.04286098     -0.606999993       5.10572815       1.59967065    
   1.13495600     -0.758352995     -0.606999993       5.10572815       1.59967065    
   1.26109600     -0.522363007     -0.606999993       5.10572815       1.59967065    