 VARIABLES="X" "Y" "Z" "abs(p) (Pa)" "angle(p) (rad)"
ZONE N=   2709,E =    2358, F=FEPOINT, ET=QUADRILATERAL
   0.00000000      -5.48999977     -0.157000005       265.682800     -0.553902924    
   0.00000000      -4.76741982     -0.246999994       265.682800     -0.553902924    
  0.930077016      -4.67581606     -0.246999994       265.682800     -0.553902924    
   1.07104599      -5.38451099     -0.157000005       265.682800     -0.553902924    
  -1.07104599      -5.38451099     -0.157000005       265.635406     -0.554113984    
 -0.930077016      -4.67581606     -0.246999994       265.635406     -0.554113984    
   0.00000000      -4.76741982     -0.246999994       265.635406     -0.554113984    
   0.00000000      -5.48999977     -0.157000005       265.635406     -0.554113984    
  -2.10093188      -5.07209921     -0.157000005       265.335632     -0.555757225    
  -1.82441294      -4.40452194     -0.246999994       265.335632     -0.555757225    
 -0.930077016      -4.67581606     -0.246999994       265.335632     -0.555757225    
  -1.07104599      -5.38451099     -0.157000005       265.335632     -0.555757225    
  -3.05008101      -4.56476784     -0.157000005       265.551819     -0.554513156    
  -2.64863706      -3.96396494     -0.246999994       265.551819     -0.554513156    
  -1.82441294      -4.40452194     -0.246999994       265.551819     -0.554513156    
  -2.10093188      -5.07209921     -0.157000005       265.551819     -0.554513156    
  -3.88201594      -3.88201594     -0.157000005       265.425476     -0.554321408    
  -3.37107491      -3.37107491     -0.246999994       265.425476     -0.554321408    
  -2.64863706      -3.96396494     -0.246999994       265.425476     -0.554321408    
  -3.05008101      -4.56476784     -0.157000005       265.425476     -0.554321408    
  -4.56476784      -3.05008101     -0.157000005       264.834503     -0.555206716    
  -3.96396494      -2.64863706     -0.246999994       264.834503     -0.555206716    
  -3.37107491      -3.37107491     -0.246999994       264.834503     -0.555206716    
  -3.88201594      -3.88201594     -0.157000005       264.834503     -0.555206716    
  -5.07209921      -2.10093188     -0.157000005       265.017242     -0.553058386    
  -4.40452194      -1.82441294     -0.246999994       265.017242     -0.553058386    
  -3.96396494      -2.64863706     -0.246999994       265.017242     -0.553058386    
  -4.56476784      -3.05008101     -0.157000005       265.017242     -0.553058386    
  -5.38451099      -1.07104599     -0.157000005       265.008392     -0.552810729    
  -4.67581606     -0.930077016     -0.246999994       265.008392     -0.552810729    
  -4.40452194      -1.82441294     -0.246999994       265.008392     -0.552810729    
  -5.07209921      -2.10093188     -0.157000005       265.008392     -0.552810729    
  -5.48999977       0.00000000     -0.157000005       264.626831     -0.554359138    
  -4.76741982       0.00000000     -0.246999994       264.626831     -0.554359138    
  -4.67581606     -0.930077016     -0.246999994       264.626831     -0.554359138    
  -5.38451099      -1.07104599     -0.157000005       264.626831     -0.554359138    
  -5.38451099       1.07104599     -0.157000005       264.515289     -0.554595351    
  -4.67581606      0.930077016     -0.246999994       264.515289     -0.554595351    
  -4.76741982       0.00000000     -0.246999994       264.515289     -0.554595351    
  -5.48999977       0.00000000     -0.157000005       264.515289     -0.554595351    
  -5.07209921       2.10093188     -0.157000005       264.422913     -0.554340839    
  -4.40452194       1.82441294     -0.246999994       264.422913     -0.554340839    
  -4.67581606      0.930077016     -0.246999994       264.422913     -0.554340839    
  -5.38451099       1.07104599     -0.157000005       264.422913     -0.554340839    
  -4.56476784       3.05008101     -0.157000005       264.384918     -0.553977251    
  -3.96396494       2.64863706     -0.246999994       264.384918     -0.553977251    
  -4.40452194       1.82441294     -0.246999994       264.384918     -0.553977251    
  -5.07209921       2.10093188     -0.157000005       264.384918     -0.553977251    
  -3.88201594       3.88201594     -0.157000005       264.727325     -0.553094029    
  -3.37107491       3.37107491     -0.246999994       264.727325     -0.553094029    
  -3.96396494       2.64863706     -0.246999994       264.727325     -0.553094029    
  -4.56476784       3.05008101     -0.157000005       264.727325     -0.553094029    
  -3.05008101       4.56476784     -0.157000005       264.502258     -0.554614365    
  -2.64863706       3.96396494     -0.246999994       264.502258     -0.554614365    
  -3.37107491       3.37107491     -0.246999994       264.502258     -0.554614365    
  -3.88201594       3.88201594     -0.157000005       264.502258     -0.554614365    
  -2.10093188       5.07209921     -0.157000005       264.731537     -0.553534627    
  -1.82441294       4.40452194     -0.246999994       264.731537     -0.553534627    
  -2.64863706       3.96396494     -0.246999994       264.731537     -0.553534627    
  -3.05008101       4.56476784     -0.157000005       264.731537     -0.553534627    
  -1.07104599       5.38451099     -0.157000005       264.444855     -0.554617286    
 -0.930077016       4.67581606     -0.246999994       264.444855     -0.554617286    
  -1.82441294       4.40452194     -0.246999994       264.444855     -0.554617286    
  -2.10093188       5.07209921     -0.157000005       264.444855     -0.554617286    
   0.00000000       5.48999977     -0.157000005       264.647644     -0.553248465    
   0.00000000       4.76741982     -0.246999994       264.647644     -0.553248465    
 -0.930077016       4.67581606     -0.246999994       264.647644     -0.553248465    
  -1.07104599       5.38451099     -0.157000005       264.647644     -0.553248465    
   1.07104599       5.38451099     -0.157000005       264.371490     -0.554283917    
  0.930077016       4.67581606     -0.246999994       264.371490     -0.554283917    
   0.00000000       4.76741982     -0.246999994       264.371490     -0.554283917    
   0.00000000       5.48999977     -0.157000005       264.371490     -0.554283917    
   2.10093188       5.07209921     -0.157000005       264.709625     -0.553385019    
   1.82441294       4.40452194     -0.246999994       264.709625     -0.553385019    
  0.930077016       4.67581606     -0.246999994       264.709625     -0.553385019    
   1.07104599       5.38451099     -0.157000005       264.709625     -0.553385019    
   3.05008101       4.56476784     -0.157000005       264.699677     -0.553332150    
   2.64863706       3.96396494     -0.246999994       264.699677     -0.553332150    
   1.82441294       4.40452194     -0.246999994       264.699677     -0.553332150    
   2.10093188       5.07209921     -0.157000005       264.699677     -0.553332150    
   3.88201594       3.88201594     -0.157000005       264.327759     -0.554774165    
   3.37107491       3.37107491     -0.246999994       264.327759     -0.554774165    
   2.64863706       3.96396494     -0.246999994       264.327759     -0.554774165    
   3.05008101       4.56476784     -0.157000005       264.327759     -0.554774165    
   4.56476784       3.05008101     -0.157000005       264.284790     -0.554054141    
   3.96396494       2.64863706     -0.246999994       264.284790     -0.554054141    
   3.37107491       3.37107491     -0.246999994       264.284790     -0.554054141    
   3.88201594       3.88201594     -0.157000005       264.284790     -0.554054141    
   5.07209921       2.10093188     -0.157000005       264.199677     -0.553888500    
   4.40452194       1.82441294     -0.246999994       264.199677     -0.553888500    
   3.96396494       2.64863706     -0.246999994       264.199677     -0.553888500    
   4.56476784       3.05008101     -0.157000005       264.199677     -0.553888500    
   5.38451099       1.07104599     -0.157000005       264.737823     -0.552492201    
   4.67581606      0.930077016     -0.246999994       264.737823     -0.552492201    
   4.40452194       1.82441294     -0.246999994       264.737823     -0.552492201    
   5.07209921       2.10093188     -0.157000005       264.737823     -0.552492201    
   5.48999977       0.00000000     -0.157000005       264.949432     -0.552362025    
   4.76741982       0.00000000     -0.246999994       264.949432     -0.552362025    
   4.67581606      0.930077016     -0.246999994       264.949432     -0.552362025    
   5.38451099       1.07104599     -0.157000005       264.949432     -0.552362025    
   5.38451099      -1.07104599     -0.157000005       265.048462     -0.552252769    
   4.67581606     -0.930077016     -0.246999994       265.048462     -0.552252769    
   4.76741982       0.00000000     -0.246999994       265.048462     -0.552252769    
   5.48999977       0.00000000     -0.157000005       265.048462     -0.552252769    
   5.07209921      -2.10093188     -0.157000005       265.110138     -0.552063286    
   4.40452194      -1.82441294     -0.246999994       265.110138     -0.552063286    
   4.67581606     -0.930077016     -0.246999994       265.110138     -0.552063286    
   5.38451099      -1.07104599     -0.157000005       265.110138     -0.552063286    
   4.56476784      -3.05008101     -0.157000005       265.200592     -0.552182972    
   3.96396494      -2.64863706     -0.246999994       265.200592     -0.552182972    
   4.40452194      -1.82441294     -0.246999994       265.200592     -0.552182972    
   5.07209921      -2.10093188     -0.157000005       265.200592     -0.552182972    
   3.88201594      -3.88201594     -0.157000005       265.354675     -0.553130209    
   3.37107491      -3.37107491     -0.246999994       265.354675     -0.553130209    
   3.96396494      -2.64863706     -0.246999994       265.354675     -0.553130209    
   4.56476784      -3.05008101     -0.157000005       265.354675     -0.553130209    
   3.05008101      -4.56476784     -0.157000005       265.206757     -0.555100679    
   2.64863706      -3.96396494     -0.246999994       265.206757     -0.555100679    
   3.37107491      -3.37107491     -0.246999994       265.206757     -0.555100679    
   3.88201594      -3.88201594     -0.157000005       265.206757     -0.555100679    
   2.10093188      -5.07209921     -0.157000005       265.604645     -0.554200888    
   1.82441294      -4.40452194     -0.246999994       265.604645     -0.554200888    
   2.64863706      -3.96396494     -0.246999994       265.604645     -0.554200888    
   3.05008101      -4.56476784     -0.157000005       265.604645     -0.554200888    
   1.07104599      -5.38451099     -0.157000005       265.720032     -0.554178715    
  0.930077016      -4.67581606     -0.246999994       265.720032     -0.554178715    
   1.82441294      -4.40452194     -0.246999994       265.720032     -0.554178715    
   2.10093188      -5.07209921     -0.157000005       265.720032     -0.554178715    
   0.00000000      -1.87709999     -0.606999993       605.733887      -1.25264573    
   0.00000000      -1.36500001     -0.606999993       605.733887      -1.25264573    
  0.266297996      -1.33877206     -0.606999993       605.733887      -1.25264573    
  0.366203994      -1.84103203     -0.606999993       605.733887      -1.25264573    
   0.00000000      -1.87709999     -0.606999993       491.458374      -1.18638742    
   0.00000000      -2.59967995     -0.517000020       491.458374      -1.18638742    
 -0.507171988      -2.54972792     -0.517000020       491.458374      -1.18638742    
 -0.366203994      -1.84103203     -0.606999993       491.458374      -1.18638742    
 -0.366203994      -1.84103203     -0.606999993       605.808716      -1.25268817    
 -0.266297996      -1.33877206     -0.606999993       605.808716      -1.25268817    
   0.00000000      -1.36500001     -0.606999993       605.808716      -1.25268817    
   0.00000000      -1.87709999     -0.606999993       605.808716      -1.25268817    
 -0.366203994      -1.84103203     -0.606999993       487.089966      -1.18283546    
 -0.507171988      -2.54972792     -0.517000020       487.089966      -1.18283546    
 -0.994853973      -2.40179110     -0.517000020       487.089966      -1.18283546    
 -0.718334973      -1.73421395     -0.606999993       487.089966      -1.18283546    
 -0.718334973      -1.73421395     -0.606999993       603.923706      -1.25168860    
 -0.522363007      -1.26109600     -0.606999993       603.923706      -1.25168860    
 -0.266297996      -1.33877206     -0.606999993       603.923706      -1.25168860    
 -0.366203994      -1.84103203     -0.606999993       603.923706      -1.25168860    
 -0.718334973      -1.73421395     -0.606999993       483.432129      -1.17982960    
 -0.994853973      -2.40179110     -0.517000020       483.432129      -1.17982960    
  -1.44430494      -2.16155505     -0.517000020       483.432129      -1.17982960    
  -1.04286098      -1.56075203     -0.606999993       483.432129      -1.17982960    
  -1.04286098      -1.56075203     -0.606999993       602.601257      -1.25100589    
 -0.758352995      -1.13495600     -0.606999993       602.601257      -1.25100589    
 -0.522363007      -1.26109600     -0.606999993       602.601257      -1.25100589    
 -0.718334973      -1.73421395     -0.606999993       602.601257      -1.25100589    
  -1.04286098      -1.56075203     -0.606999993       484.379974      -1.18069100    
  -1.44430494      -2.16155505     -0.517000020       484.379974      -1.18069100    
  -1.83825099      -1.83825099     -0.517000020       484.379974      -1.18069100    
  -1.32730997      -1.32730997     -0.606999993       484.379974      -1.18069100    
  -1.32730997      -1.32730997     -0.606999993       603.974182      -1.25179529    
 -0.965201020     -0.965201020     -0.606999993       603.974182      -1.25179529    
 -0.758352995      -1.13495600     -0.606999993       603.974182      -1.25179529    
  -1.04286098      -1.56075203     -0.606999993       603.974182      -1.25179529    
  -1.32730997      -1.32730997     -0.606999993       489.147705      -1.18472445    
  -1.83825099      -1.83825099     -0.517000020       489.147705      -1.18472445    
  -2.16155505      -1.44430494     -0.517000020       489.147705      -1.18472445    
  -1.56075203      -1.04286098     -0.606999993       489.147705      -1.18472445    
  -1.56075203      -1.04286098     -0.606999993       607.564209      -1.25377643    
  -1.13495600     -0.758352995     -0.606999993       607.564209      -1.25377643    
 -0.965201020     -0.965201020     -0.606999993       607.564209      -1.25377643    
  -1.32730997      -1.32730997     -0.606999993       607.564209      -1.25377643    
  -1.56075203      -1.04286098     -0.606999993       493.147369      -1.18805993    
  -2.16155505      -1.44430494     -0.517000020       493.147369      -1.18805993    
  -2.40179110     -0.994853973     -0.517000020       493.147369      -1.18805993    
  -1.73421395     -0.718334973     -0.606999993       493.147369      -1.18805993    
  -1.73421395     -0.718334973     -0.606999993       610.814209      -1.25554860    
  -1.26109600     -0.522363007     -0.606999993       610.814209      -1.25554860    
  -1.13495600     -0.758352995     -0.606999993       610.814209      -1.25554860    
  -1.56075203      -1.04286098     -0.606999993       610.814209      -1.25554860    
  -1.73421395     -0.718334973     -0.606999993       492.922882      -1.18795645    
  -2.40179110     -0.994853973     -0.517000020       492.922882      -1.18795645    
  -2.54972792     -0.507171988     -0.517000020       492.922882      -1.18795645    
  -1.84103203     -0.366203994     -0.606999993       492.922882      -1.18795645    
  -1.84103203     -0.366203994     -0.606999993       611.804138      -1.25611389    
  -1.33877206     -0.266297996     -0.606999993       611.804138      -1.25611389    
  -1.26109600     -0.522363007     -0.606999993       611.804138      -1.25611389    
  -1.73421395     -0.718334973     -0.606999993       611.804138      -1.25611389    
  -1.84103203     -0.366203994     -0.606999993       490.699158      -1.18622208    
  -2.54972792     -0.507171988     -0.517000020       490.699158      -1.18622208    
  -2.59967995       0.00000000     -0.517000020       490.699158      -1.18622208    
  -1.87709999       0.00000000     -0.606999993       490.699158      -1.18622208    
  -1.87709999       0.00000000     -0.606999993       611.360046      -1.25591791    
  -1.36500001       0.00000000     -0.606999993       611.360046      -1.25591791    
  -1.33877206     -0.266297996     -0.606999993       611.360046      -1.25591791    
  -1.84103203     -0.366203994     -0.606999993       611.360046      -1.25591791    
  -1.87709999       0.00000000     -0.606999993       490.950134      -1.18648756    
  -2.59967995       0.00000000     -0.517000020       490.950134      -1.18648756    
  -2.54972792      0.507171988     -0.517000020       490.950134      -1.18648756    
  -1.84103203      0.366203994     -0.606999993       490.950134      -1.18648756    
  -1.84103203      0.366203994     -0.606999993       611.546265      -1.25605011    
  -1.33877206      0.266297996     -0.606999993       611.546265      -1.25605011    
  -1.36500001       0.00000000     -0.606999993       611.546265      -1.25605011    
  -1.87709999       0.00000000     -0.606999993       611.546265      -1.25605011    
  -1.84103203      0.366203994     -0.606999993       494.361603      -1.18929398    
  -2.54972792      0.507171988     -0.517000020       494.361603      -1.18929398    
  -2.40179110      0.994853973     -0.517000020       494.361603      -1.18929398    
  -1.73421395      0.718334973     -0.606999993       494.361603      -1.18929398    
  -1.73421395      0.718334973     -0.606999993       612.747864      -1.25671256    
  -1.26109600      0.522363007     -0.606999993       612.747864      -1.25671256    
  -1.33877206      0.266297996     -0.606999993       612.747864      -1.25671256    
  -1.84103203      0.366203994     -0.606999993       612.747864      -1.25671256    
  -1.73421395      0.718334973     -0.606999993       496.792511      -1.19127560    
  -2.40179110      0.994853973     -0.517000020       496.792511      -1.19127560    
  -2.16155505       1.44430494     -0.517000020       496.792511      -1.19127560    
  -1.56075203       1.04286098     -0.606999993       496.792511      -1.19127560    
  -1.56075203       1.04286098     -0.606999993       613.129883      -1.25694072    
  -1.13495600      0.758352995     -0.606999993       613.129883      -1.25694072    
  -1.26109600      0.522363007     -0.606999993       613.129883      -1.25694072    
  -1.73421395      0.718334973     -0.606999993       613.129883      -1.25694072    
  -1.56075203       1.04286098     -0.606999993       494.504028      -1.18949306    
  -2.16155505       1.44430494     -0.517000020       494.504028      -1.18949306    
  -1.83825099       1.83825099     -0.517000020       494.504028      -1.18949306    
  -1.32730997       1.32730997     -0.606999993       494.504028      -1.18949306    
  -1.32730997       1.32730997     -0.606999993       611.194397      -1.25595140    
 -0.965201020      0.965201020     -0.606999993       611.194397      -1.25595140    
  -1.13495600      0.758352995     -0.606999993       611.194397      -1.25595140    
  -1.56075203       1.04286098     -0.606999993       611.194397      -1.25595140    
  -1.32730997       1.32730997     -0.606999993       489.739716      -1.18567276    
  -1.83825099       1.83825099     -0.517000020       489.739716      -1.18567276    
  -1.44430494       2.16155505     -0.517000020       489.739716      -1.18567276    
  -1.04286098       1.56075203     -0.606999993       489.739716      -1.18567276    
  -1.04286098       1.56075203     -0.606999993       608.098694      -1.25433648    
 -0.758352995       1.13495600     -0.606999993       608.098694      -1.25433648    
 -0.965201020      0.965201020     -0.606999993       608.098694      -1.25433648    
  -1.32730997       1.32730997     -0.606999993       608.098694      -1.25433648    
  -1.04286098       1.56075203     -0.606999993       487.731903      -1.18405342    
  -1.44430494       2.16155505     -0.517000020       487.731903      -1.18405342    
 -0.994853973       2.40179110     -0.517000020       487.731903      -1.18405342    
 -0.718334973       1.73421395     -0.606999993       487.731903      -1.18405342    
 -0.718334973       1.73421395     -0.606999993       606.430481      -1.25346804    
 -0.522363007       1.26109600     -0.606999993       606.430481      -1.25346804    
 -0.758352995       1.13495600     -0.606999993       606.430481      -1.25346804    
  -1.04286098       1.56075203     -0.606999993       606.430481      -1.25346804    
 -0.718334973       1.73421395     -0.606999993       490.316620      -1.18619347    
 -0.994853973       2.40179110     -0.517000020       490.316620      -1.18619347    
 -0.507171988       2.54972792     -0.517000020       490.316620      -1.18619347    
 -0.366203994       1.84103203     -0.606999993       490.316620      -1.18619347    
 -0.366203994       1.84103203     -0.606999993       607.184326      -1.25388980    
 -0.266297996       1.33877206     -0.606999993       607.184326      -1.25388980    
 -0.522363007       1.26109600     -0.606999993       607.184326      -1.25388980    
 -0.718334973       1.73421395     -0.606999993       607.184326      -1.25388980    
 -0.366203994       1.84103203     -0.606999993       494.087219      -1.18925822    
 -0.507171988       2.54972792     -0.517000020       494.087219      -1.18925822    
   0.00000000       2.59967995     -0.517000020       494.087219      -1.18925822    
   0.00000000       1.87709999     -0.606999993       494.087219      -1.18925822    
   0.00000000       1.87709999     -0.606999993       608.679626      -1.25470376    
   0.00000000       1.36500001     -0.606999993       608.679626      -1.25470376    
 -0.266297996       1.33877206     -0.606999993       608.679626      -1.25470376    
 -0.366203994       1.84103203     -0.606999993       608.679626      -1.25470376    
   0.00000000       1.87709999     -0.606999993       494.065857      -1.18925178    
   0.00000000       2.59967995     -0.517000020       494.065857      -1.18925178    
  0.507171988       2.54972792     -0.517000020       494.065857      -1.18925178    
  0.366203994       1.84103203     -0.606999993       494.065857      -1.18925178    
  0.366203994       1.84103203     -0.606999993       608.643066      -1.25469398    
  0.266297996       1.33877206     -0.606999993       608.643066      -1.25469398    
   0.00000000       1.36500001     -0.606999993       608.643066      -1.25469398    
   0.00000000       1.87709999     -0.606999993       608.643066      -1.25469398    
  0.366203994       1.84103203     -0.606999993       490.249878      -1.18616807    
  0.507171988       2.54972792     -0.517000020       490.249878      -1.18616807    
  0.994853973       2.40179110     -0.517000020       490.249878      -1.18616807    
  0.718334973       1.73421395     -0.606999993       490.249878      -1.18616807    
  0.718334973       1.73421395     -0.606999993       607.078369      -1.25386286    
  0.522363007       1.26109600     -0.606999993       607.078369      -1.25386286    
  0.266297996       1.33877206     -0.606999993       607.078369      -1.25386286    
  0.366203994       1.84103203     -0.606999993       607.078369      -1.25386286    
  0.718334973       1.73421395     -0.606999993       487.640045      -1.18401968    
  0.994853973       2.40179110     -0.517000020       487.640045      -1.18401968    
   1.44430494       2.16155505     -0.517000020       487.640045      -1.18401968    
   1.04286098       1.56075203     -0.606999993       487.640045      -1.18401968    
   1.04286098       1.56075203     -0.606999993       606.277222      -1.25343168    
  0.758352995       1.13495600     -0.606999993       606.277222      -1.25343168    
  0.522363007       1.26109600     -0.606999993       606.277222      -1.25343168    
  0.718334973       1.73421395     -0.606999993       606.277222      -1.25343168    
   1.04286098       1.56075203     -0.606999993       489.640533      -1.18563831    
   1.44430494       2.16155505     -0.517000020       489.640533      -1.18563831    
   1.83825099       1.83825099     -0.517000020       489.640533      -1.18563831    
   1.32730997       1.32730997     -0.606999993       489.640533      -1.18563831    
   1.32730997       1.32730997     -0.606999993       607.905334      -1.25428486    
  0.965201020      0.965201020     -0.606999993       607.905334      -1.25428486    
  0.758352995       1.13495600     -0.606999993       607.905334      -1.25428486    
   1.04286098       1.56075203     -0.606999993       607.905334      -1.25428486    
   1.32730997       1.32730997     -0.606999993       494.414703      -1.18945682    
   1.83825099       1.83825099     -0.517000020       494.414703      -1.18945682    
   2.16155505       1.44430494     -0.517000020       494.414703      -1.18945682    
   1.56075203       1.04286098     -0.606999993       494.414703      -1.18945682    
   1.56075203       1.04286098     -0.606999993       610.956360      -1.25587523    
   1.13495600      0.758352995     -0.606999993       610.956360      -1.25587523    
  0.965201020      0.965201020     -0.606999993       610.956360      -1.25587523    
   1.32730997       1.32730997     -0.606999993       610.956360      -1.25587523    
   1.56075203       1.04286098     -0.606999993       496.710449      -1.19122648    
   2.16155505       1.44430494     -0.517000020       496.710449      -1.19122648    
   2.40179110      0.994853973     -0.517000020       496.710449      -1.19122648    
   1.73421395      0.718334973     -0.606999993       496.710449      -1.19122648    
   1.73421395      0.718334973     -0.606999993       612.811096      -1.25682437    
   1.26109600      0.522363007     -0.606999993       612.811096      -1.25682437    
   1.13495600      0.758352995     -0.606999993       612.811096      -1.25682437    
   1.56075203       1.04286098     -0.606999993       612.811096      -1.25682437    
   1.73421395      0.718334973     -0.606999993       494.261627      -1.18920147    
   2.40179110      0.994853973     -0.517000020       494.261627      -1.18920147    
   2.54972792      0.507171988     -0.517000020       494.261627      -1.18920147    
   1.84103203      0.366203994     -0.606999993       494.261627      -1.18920147    
   1.84103203      0.366203994     -0.606999993       612.354858      -1.25655174    
   1.33877206      0.266297996     -0.606999993       612.354858      -1.25655174    
   1.26109600      0.522363007     -0.606999993       612.354858      -1.25655174    
   1.73421395      0.718334973     -0.606999993       612.354858      -1.25655174    
   1.84103203      0.366203994     -0.606999993       490.817993      -1.18634021    
   2.54972792      0.507171988     -0.517000020       490.817993      -1.18634021    
   2.59967995       0.00000000     -0.517000020       490.817993      -1.18634021    
   1.87709999       0.00000000     -0.606999993       490.817993      -1.18634021    
   1.87709999       0.00000000     -0.606999993       611.093567      -1.25584674    
   1.36500001       0.00000000     -0.606999993       611.093567      -1.25584674    
   1.33877206      0.266297996     -0.606999993       611.093567      -1.25584674    
   1.84103203      0.366203994     -0.606999993       611.093567      -1.25584674    
   1.87709999       0.00000000     -0.606999993       490.542267      -1.18603361    
   2.59967995       0.00000000     -0.517000020       490.542267      -1.18603361    
   2.54972792     -0.507171988     -0.517000020       490.542267      -1.18603361    
   1.84103203     -0.366203994     -0.606999993       490.542267      -1.18603361    
   1.84103203     -0.366203994     -0.606999993       610.857788      -1.25567269    
   1.33877206     -0.266297996     -0.606999993       610.857788      -1.25567269    
   1.36500001       0.00000000     -0.606999993       610.857788      -1.25567269    
   1.87709999       0.00000000     -0.606999993       610.857788      -1.25567269    
   1.84103203     -0.366203994     -0.606999993       492.749084      -1.18774176    
   2.54972792     -0.507171988     -0.517000020       492.749084      -1.18774176    
   2.40179110     -0.994853973     -0.517000020       492.749084      -1.18774176    
   1.73421395     -0.718334973     -0.606999993       492.749084      -1.18774176    
   1.73421395     -0.718334973     -0.606999993       611.268921      -1.25583494    
   1.26109600     -0.522363007     -0.606999993       611.268921      -1.25583494    
   1.33877206     -0.266297996     -0.606999993       611.268921      -1.25583494    
   1.84103203     -0.366203994     -0.606999993       611.268921      -1.25583494    
   1.73421395     -0.718334973     -0.606999993       492.952087      -1.18782282    
   2.40179110     -0.994853973     -0.517000020       492.952087      -1.18782282    
   2.16155505      -1.44430494     -0.517000020       492.952087      -1.18782282    
   1.56075203      -1.04286098     -0.606999993       492.952087      -1.18782282    
   1.56075203      -1.04286098     -0.606999993       610.281738      -1.25525737    
   1.13495600     -0.758352995     -0.606999993       610.281738      -1.25525737    
   1.26109600     -0.522363007     -0.606999993       610.281738      -1.25525737    