 VARIABLES="X" "Y" "Z" "abs(p) (Pa)" "angle(p) (rad)"
ZONE N=   2709,E =    2358, F=FEPOINT, ET=QUADRILATERAL
   0.00000000      -5.48999977     -0.157000005       4.73683786      -1.53613162    
   0.00000000      -4.76741982     -0.246999994       4.73683786      -1.53613162    
  0.930077016      -4.67581606     -0.246999994       4.73683786      -1.53613162    
   1.07104599      -5.38451099     -0.157000005       4.73683786      -1.53613162    
  -1.07104599      -5.38451099     -0.157000005       4.63231564       1.61674023    
 -0.930077016      -4.67581606     -0.246999994       4.63231564       1.61674023    
   0.00000000      -4.76741982     -0.246999994       4.63231564       1.61674023    
   0.00000000      -5.48999977     -0.157000005       4.63231564       1.61674023    
  -2.10093188      -5.07209921     -0.157000005       13.8433294       1.62476647    
  -1.82441294      -4.40452194     -0.246999994       13.8433294       1.62476647    
 -0.930077016      -4.67581606     -0.246999994       13.8433294       1.62476647    
  -1.07104599      -5.38451099     -0.157000005       13.8433294       1.62476647    
  -3.05008101      -4.56476784     -0.157000005       21.2541008       1.62546039    
  -2.64863706      -3.96396494     -0.246999994       21.2541008       1.62546039    
  -1.82441294      -4.40452194     -0.246999994       21.2541008       1.62546039    
  -2.10093188      -5.07209921     -0.157000005       21.2541008       1.62546039    
  -3.88201594      -3.88201594     -0.157000005       29.2457275       1.62569010    
  -3.37107491      -3.37107491     -0.246999994       29.2457275       1.62569010    
  -2.64863706      -3.96396494     -0.246999994       29.2457275       1.62569010    
  -3.05008101      -4.56476784     -0.157000005       29.2457275       1.62569010    
  -4.56476784      -3.05008101     -0.157000005       36.3072281       1.62558532    
  -3.96396494      -2.64863706     -0.246999994       36.3072281       1.62558532    
  -3.37107491      -3.37107491     -0.246999994       36.3072281       1.62558532    
  -3.88201594      -3.88201594     -0.157000005       36.3072281       1.62558532    
  -5.07209921      -2.10093188     -0.157000005       41.2824631       1.61717808    
  -4.40452194      -1.82441294     -0.246999994       41.2824631       1.61717808    
  -3.96396494      -2.64863706     -0.246999994       41.2824631       1.61717808    
  -4.56476784      -3.05008101     -0.157000005       41.2824631       1.61717808    
  -5.38451099      -1.07104599     -0.157000005       44.8183022       1.62052023    
  -4.67581606     -0.930077016     -0.246999994       44.8183022       1.62052023    
  -4.40452194      -1.82441294     -0.246999994       44.8183022       1.62052023    
  -5.07209921      -2.10093188     -0.157000005       44.8183022       1.62052023    
  -5.48999977       0.00000000     -0.157000005       45.4630508       1.62720096    
  -4.76741982       0.00000000     -0.246999994       45.4630508       1.62720096    
  -4.67581606     -0.930077016     -0.246999994       45.4630508       1.62720096    
  -5.38451099      -1.07104599     -0.157000005       45.4630508       1.62720096    
  -5.38451099       1.07104599     -0.157000005       45.5324707       1.62732756    
  -4.67581606      0.930077016     -0.246999994       45.5324707       1.62732756    
  -4.76741982       0.00000000     -0.246999994       45.5324707       1.62732756    
  -5.48999977       0.00000000     -0.157000005       45.5324707       1.62732756    
  -5.07209921       2.10093188     -0.157000005       45.1960144       1.62205839    
  -4.40452194       1.82441294     -0.246999994       45.1960144       1.62205839    
  -4.67581606      0.930077016     -0.246999994       45.1960144       1.62205839    
  -5.38451099       1.07104599     -0.157000005       45.1960144       1.62205839    
  -4.56476784       3.05008101     -0.157000005       41.7916832       1.61952424    
  -3.96396494       2.64863706     -0.246999994       41.7916832       1.61952424    
  -4.40452194       1.82441294     -0.246999994       41.7916832       1.61952424    
  -5.07209921       2.10093188     -0.157000005       41.7916832       1.61952424    
  -3.88201594       3.88201594     -0.157000005       36.4501915       1.61835289    
  -3.37107491       3.37107491     -0.246999994       36.4501915       1.61835289    
  -3.96396494       2.64863706     -0.246999994       36.4501915       1.61835289    
  -4.56476784       3.05008101     -0.157000005       36.4501915       1.61835289    
  -3.05008101       4.56476784     -0.157000005       29.6063633       1.62767148    
  -2.64863706       3.96396494     -0.246999994       29.6063633       1.62767148    
  -3.37107491       3.37107491     -0.246999994       29.6063633       1.62767148    
  -3.88201594       3.88201594     -0.157000005       29.6063633       1.62767148    
  -2.10093188       5.07209921     -0.157000005       21.3972225       1.62292123    
  -1.82441294       4.40452194     -0.246999994       21.3972225       1.62292123    
  -2.64863706       3.96396494     -0.246999994       21.3972225       1.62292123    
  -3.05008101       4.56476784     -0.157000005       21.3972225       1.62292123    
  -1.07104599       5.38451099     -0.157000005       13.8337679       1.61726046    
 -0.930077016       4.67581606     -0.246999994       13.8337679       1.61726046    
  -1.82441294       4.40452194     -0.246999994       13.8337679       1.61726046    
  -2.10093188       5.07209921     -0.157000005       13.8337679       1.61726046    
   0.00000000       5.48999977     -0.157000005       4.67624712       1.60302842    
   0.00000000       4.76741982     -0.246999994       4.67624712       1.60302842    
 -0.930077016       4.67581606     -0.246999994       4.67624712       1.60302842    
  -1.07104599       5.38451099     -0.157000005       4.67624712       1.60302842    
   1.07104599       5.38451099     -0.157000005       4.71677399      -1.51677477    
  0.930077016       4.67581606     -0.246999994       4.71677399      -1.51677477    
   0.00000000       4.76741982     -0.246999994       4.71677399      -1.51677477    
   0.00000000       5.48999977     -0.157000005       4.71677399      -1.51677477    
   2.10093188       5.07209921     -0.157000005       13.7046280      -1.52281547    
   1.82441294       4.40452194     -0.246999994       13.7046280      -1.52281547    
  0.930077016       4.67581606     -0.246999994       13.7046280      -1.52281547    
   1.07104599       5.38451099     -0.157000005       13.7046280      -1.52281547    
   3.05008101       4.56476784     -0.157000005       21.4154625      -1.51659608    
   2.64863706       3.96396494     -0.246999994       21.4154625      -1.51659608    
   1.82441294       4.40452194     -0.246999994       21.4154625      -1.51659608    
   2.10093188       5.07209921     -0.157000005       21.4154625      -1.51659608    
   3.88201594       3.88201594     -0.157000005       29.5913734      -1.51378226    
   3.37107491       3.37107491     -0.246999994       29.5913734      -1.51378226    
   2.64863706       3.96396494     -0.246999994       29.5913734      -1.51378226    
   3.05008101       4.56476784     -0.157000005       29.5913734      -1.51378226    
   4.56476784       3.05008101     -0.157000005       36.6662636      -1.51504660    
   3.96396494       2.64863706     -0.246999994       36.6662636      -1.51504660    
   3.37107491       3.37107491     -0.246999994       36.6662636      -1.51504660    
   3.88201594       3.88201594     -0.157000005       36.6662636      -1.51504660    
   5.07209921       2.10093188     -0.157000005       41.9393082      -1.52200770    
   4.40452194       1.82441294     -0.246999994       41.9393082      -1.52200770    
   3.96396494       2.64863706     -0.246999994       41.9393082      -1.52200770    
   4.56476784       3.05008101     -0.157000005       41.9393082      -1.52200770    
   5.38451099       1.07104599     -0.157000005       44.9493408      -1.52136946    
   4.67581606      0.930077016     -0.246999994       44.9493408      -1.52136946    
   4.40452194       1.82441294     -0.246999994       44.9493408      -1.52136946    
   5.07209921       2.10093188     -0.157000005       44.9493408      -1.52136946    
   5.48999977       0.00000000     -0.157000005       45.3924828      -1.51632965    
   4.76741982       0.00000000     -0.246999994       45.3924828      -1.51632965    
   4.67581606      0.930077016     -0.246999994       45.3924828      -1.51632965    
   5.38451099       1.07104599     -0.157000005       45.3924828      -1.51632965    
   5.38451099      -1.07104599     -0.157000005       45.2844505      -1.51702225    
   4.67581606     -0.930077016     -0.246999994       45.2844505      -1.51702225    
   4.76741982       0.00000000     -0.246999994       45.2844505      -1.51702225    
   5.48999977       0.00000000     -0.157000005       45.2844505      -1.51702225    
   5.07209921      -2.10093188     -0.157000005       44.7834473      -1.52129078    
   4.40452194      -1.82441294     -0.246999994       44.7834473      -1.52129078    
   4.67581606     -0.930077016     -0.246999994       44.7834473      -1.52129078    
   5.38451099      -1.07104599     -0.157000005       44.7834473      -1.52129078    
   4.56476784      -3.05008101     -0.157000005       41.2967834      -1.52386343    
   3.96396494      -2.64863706     -0.246999994       41.2967834      -1.52386343    
   4.40452194      -1.82441294     -0.246999994       41.2967834      -1.52386343    
   5.07209921      -2.10093188     -0.157000005       41.2967834      -1.52386343    
   3.88201594      -3.88201594     -0.157000005       36.1009293      -1.52223194    
   3.37107491      -3.37107491     -0.246999994       36.1009293      -1.52223194    
   3.96396494      -2.64863706     -0.246999994       36.1009293      -1.52223194    
   4.56476784      -3.05008101     -0.157000005       36.1009293      -1.52223194    
   3.05008101      -4.56476784     -0.157000005       29.3714828      -1.51367056    
   2.64863706      -3.96396494     -0.246999994       29.3714828      -1.51367056    
   3.37107491      -3.37107491     -0.246999994       29.3714828      -1.51367056    
   3.88201594      -3.88201594     -0.157000005       29.3714828      -1.51367056    
   2.10093188      -5.07209921     -0.157000005       21.3310165      -1.51758003    
   1.82441294      -4.40452194     -0.246999994       21.3310165      -1.51758003    
   2.64863706      -3.96396494     -0.246999994       21.3310165      -1.51758003    
   3.05008101      -4.56476784     -0.157000005       21.3310165      -1.51758003    
   1.07104599      -5.38451099     -0.157000005       13.8621416      -1.52593195    
  0.930077016      -4.67581606     -0.246999994       13.8621416      -1.52593195    
   1.82441294      -4.40452194     -0.246999994       13.8621416      -1.52593195    
   2.10093188      -5.07209921     -0.157000005       13.8621416      -1.52593195    
   0.00000000      -1.87709999     -0.606999993       49.9274826      -1.55090618    
   0.00000000      -1.36500001     -0.606999993       49.9274826      -1.55090618    
  0.266297996      -1.33877206     -0.606999993       49.9274826      -1.55090618    
  0.366203994      -1.84103203     -0.606999993       49.9274826      -1.55090618    
   0.00000000      -1.87709999     -0.606999993       114.021866      -1.58442616    
   0.00000000      -2.59967995     -0.517000020       114.021866      -1.58442616    
 -0.507171988      -2.54972792     -0.517000020       114.021866      -1.58442616    
 -0.366203994      -1.84103203     -0.606999993       114.021866      -1.58442616    
 -0.366203994      -1.84103203     -0.606999993       126.004311       1.57700264    
 -0.266297996      -1.33877206     -0.606999993       126.004311       1.57700264    
   0.00000000      -1.36500001     -0.606999993       126.004311       1.57700264    
   0.00000000      -1.87709999     -0.606999993       126.004311       1.57700264    
 -0.366203994      -1.84103203     -0.606999993       344.662872      -1.58183467    
 -0.507171988      -2.54972792     -0.517000020       344.662872      -1.58183467    
 -0.994853973      -2.40179110     -0.517000020       344.662872      -1.58183467    
 -0.718334973      -1.73421395     -0.606999993       344.662872      -1.58183467    
 -0.718334973      -1.73421395     -0.606999993       299.321075       1.57980633    
 -0.522363007      -1.26109600     -0.606999993       299.321075       1.57980633    
 -0.266297996      -1.33877206     -0.606999993       299.321075       1.57980633    
 -0.366203994      -1.84103203     -0.606999993       299.321075       1.57980633    
 -0.718334973      -1.73421395     -0.606999993       505.105652      -1.57860720    
 -0.994853973      -2.40179110     -0.517000020       505.105652      -1.57860720    
  -1.44430494      -2.16155505     -0.517000020       505.105652      -1.57860720    
  -1.04286098      -1.56075203     -0.606999993       505.105652      -1.57860720    
  -1.04286098      -1.56075203     -0.606999993       469.761810       1.58080280    
 -0.758352995      -1.13495600     -0.606999993       469.761810       1.58080280    
 -0.522363007      -1.26109600     -0.606999993       469.761810       1.58080280    
 -0.718334973      -1.73421395     -0.606999993       469.761810       1.58080280    
  -1.04286098      -1.56075203     -0.606999993       602.582092      -1.57500339    
  -1.44430494      -2.16155505     -0.517000020       602.582092      -1.57500339    
  -1.83825099      -1.83825099     -0.517000020       602.582092      -1.57500339    
  -1.32730997      -1.32730997     -0.606999993       602.582092      -1.57500339    
  -1.32730997      -1.32730997     -0.606999993       632.139648       1.58101404    
 -0.965201020     -0.965201020     -0.606999993       632.139648       1.58101404    
 -0.758352995      -1.13495600     -0.606999993       632.139648       1.58101404    
  -1.04286098      -1.56075203     -0.606999993       632.139648       1.58101404    
  -1.32730997      -1.32730997     -0.606999993       683.648743      -1.57295358    
  -1.83825099      -1.83825099     -0.517000020       683.648743      -1.57295358    
  -2.16155505      -1.44430494     -0.517000020       683.648743      -1.57295358    
  -1.56075203      -1.04286098     -0.606999993       683.648743      -1.57295358    
  -1.56075203      -1.04286098     -0.606999993       774.335449       1.58083010    
  -1.13495600     -0.758352995     -0.606999993       774.335449       1.58083010    
 -0.965201020     -0.965201020     -0.606999993       774.335449       1.58083010    
  -1.32730997      -1.32730997     -0.606999993       774.335449       1.58083010    
  -1.56075203      -1.04286098     -0.606999993       780.053223      -1.57374108    
  -2.16155505      -1.44430494     -0.517000020       780.053223      -1.57374108    
  -2.40179110     -0.994853973     -0.517000020       780.053223      -1.57374108    
  -1.73421395     -0.718334973     -0.606999993       780.053223      -1.57374108    
  -1.73421395     -0.718334973     -0.606999993       886.166199       1.58068657    
  -1.26109600     -0.522363007     -0.606999993       886.166199       1.58068657    
  -1.13495600     -0.758352995     -0.606999993       886.166199       1.58068657    
  -1.56075203      -1.04286098     -0.606999993       886.166199       1.58068657    
  -1.73421395     -0.718334973     -0.606999993       884.445435      -1.57619417    
  -2.40179110     -0.994853973     -0.517000020       884.445435      -1.57619417    
  -2.54972792     -0.507171988     -0.517000020       884.445435      -1.57619417    
  -1.84103203     -0.366203994     -0.606999993       884.445435      -1.57619417    
  -1.84103203     -0.366203994     -0.606999993       961.233765       1.58078802    
  -1.33877206     -0.266297996     -0.606999993       961.233765       1.58078802    
  -1.26109600     -0.522363007     -0.606999993       961.233765       1.58078802    
  -1.73421395     -0.718334973     -0.606999993       961.233765       1.58078802    
  -1.84103203     -0.366203994     -0.606999993       955.955261      -1.57814991    
  -2.54972792     -0.507171988     -0.517000020       955.955261      -1.57814991    
  -2.59967995       0.00000000     -0.517000020       955.955261      -1.57814991    
  -1.87709999       0.00000000     -0.606999993       955.955261      -1.57814991    
  -1.87709999       0.00000000     -0.606999993       998.840698       1.58094180    
  -1.36500001       0.00000000     -0.606999993       998.840698       1.58094180    
  -1.33877206     -0.266297996     -0.606999993       998.840698       1.58094180    
  -1.84103203     -0.366203994     -0.606999993       998.840698       1.58094180    
  -1.87709999       0.00000000     -0.606999993       957.687012      -1.57823277    
  -2.59967995       0.00000000     -0.517000020       957.687012      -1.57823277    
  -2.54972792      0.507171988     -0.517000020       957.687012      -1.57823277    
  -1.84103203      0.366203994     -0.606999993       957.687012      -1.57823277    
  -1.84103203      0.366203994     -0.606999993       999.346252       1.58086562    
  -1.33877206      0.266297996     -0.606999993       999.346252       1.58086562    
  -1.36500001       0.00000000     -0.606999993       999.346252       1.58086562    
  -1.87709999       0.00000000     -0.606999993       999.346252       1.58086562    
  -1.84103203      0.366203994     -0.606999993       886.824219      -1.57633531    
  -2.54972792      0.507171988     -0.517000020       886.824219      -1.57633531    
  -2.40179110      0.994853973     -0.517000020       886.824219      -1.57633531    
  -1.73421395      0.718334973     -0.606999993       886.824219      -1.57633531    
  -1.73421395      0.718334973     -0.606999993       961.426697       1.58060741    
  -1.26109600      0.522363007     -0.606999993       961.426697       1.58060741    
  -1.33877206      0.266297996     -0.606999993       961.426697       1.58060741    
  -1.84103203      0.366203994     -0.606999993       961.426697       1.58060741    
  -1.73421395      0.718334973     -0.606999993       777.689941      -1.57375133    
  -2.40179110      0.994853973     -0.517000020       777.689941      -1.57375133    
  -2.16155505       1.44430494     -0.517000020       777.689941      -1.57375133    
  -1.56075203       1.04286098     -0.606999993       777.689941      -1.57375133    
  -1.56075203       1.04286098     -0.606999993       882.598572       1.58055007    
  -1.13495600      0.758352995     -0.606999993       882.598572       1.58055007    
  -1.26109600      0.522363007     -0.606999993       882.598572       1.58055007    
  -1.73421395      0.718334973     -0.606999993       882.598572       1.58055007    
  -1.56075203       1.04286098     -0.606999993       673.665161      -1.57282472    
  -2.16155505       1.44430494     -0.517000020       673.665161      -1.57282472    
  -1.83825099       1.83825099     -0.517000020       673.665161      -1.57282472    
  -1.32730997       1.32730997     -0.606999993       673.665161      -1.57282472    
  -1.32730997       1.32730997     -0.606999993       762.237000       1.58097875    
 -0.965201020      0.965201020     -0.606999993       762.237000       1.58097875    
  -1.13495600      0.758352995     -0.606999993       762.237000       1.58097875    
  -1.56075203       1.04286098     -0.606999993       762.237000       1.58097875    
  -1.32730997       1.32730997     -0.606999993       588.086243      -1.57494891    
  -1.83825099       1.83825099     -0.517000020       588.086243      -1.57494891    
  -1.44430494       2.16155505     -0.517000020       588.086243      -1.57494891    
  -1.04286098       1.56075203     -0.606999993       588.086243      -1.57494891    
  -1.04286098       1.56075203     -0.606999993       607.018982       1.58173382    
 -0.758352995       1.13495600     -0.606999993       607.018982       1.58173382    
 -0.965201020      0.965201020     -0.606999993       607.018982       1.58173382    
  -1.32730997       1.32730997     -0.606999993       607.018982       1.58173382    
  -1.04286098       1.56075203     -0.606999993       494.517029      -1.57875144    
  -1.44430494       2.16155505     -0.517000020       494.517029      -1.57875144    
 -0.994853973       2.40179110     -0.517000020       494.517029      -1.57875144    
 -0.718334973       1.73421395     -0.606999993       494.517029      -1.57875144    
 -0.718334973       1.73421395     -0.606999993       429.079895       1.58245301    
 -0.522363007       1.26109600     -0.606999993       429.079895       1.58245301    
 -0.758352995       1.13495600     -0.606999993       429.079895       1.58245301    
  -1.04286098       1.56075203     -0.606999993       429.079895       1.58245301    
 -0.718334973       1.73421395     -0.606999993       346.665771      -1.58196259    
 -0.994853973       2.40179110     -0.517000020       346.665771      -1.58196259    
 -0.507171988       2.54972792     -0.517000020       346.665771      -1.58196259    
 -0.366203994       1.84103203     -0.606999993       346.665771      -1.58196259    
 -0.366203994       1.84103203     -0.606999993       243.917007       1.58317780    
 -0.266297996       1.33877206     -0.606999993       243.917007       1.58317780    
 -0.522363007       1.26109600     -0.606999993       243.917007       1.58317780    
 -0.718334973       1.73421395     -0.606999993       243.917007       1.58317780    
 -0.366203994       1.84103203     -0.606999993       132.449463      -1.58312166    
 -0.507171988       2.54972792     -0.517000020       132.449463      -1.58312166    
   0.00000000       2.59967995     -0.517000020       132.449463      -1.58312166    
   0.00000000       1.87709999     -0.606999993       132.449463      -1.58312166    
   0.00000000       1.87709999     -0.606999993       60.0718613       1.58804011    
   0.00000000       1.36500001     -0.606999993       60.0718613       1.58804011    
 -0.266297996       1.33877206     -0.606999993       60.0718613       1.58804011    
 -0.366203994       1.84103203     -0.606999993       60.0718613       1.58804011    
   0.00000000       1.87709999     -0.606999993       114.308228       1.55664802    
   0.00000000       2.59967995     -0.517000020       114.308228       1.55664802    
  0.507171988       2.54972792     -0.517000020       114.308228       1.55664802    
  0.366203994       1.84103203     -0.606999993       114.308228       1.55664802    
  0.366203994       1.84103203     -0.606999993       120.327484      -1.56333911    
  0.266297996       1.33877206     -0.606999993       120.327484      -1.56333911    
   0.00000000       1.36500001     -0.606999993       120.327484      -1.56333911    
   0.00000000       1.87709999     -0.606999993       120.327484      -1.56333911    
  0.366203994       1.84103203     -0.606999993       330.361298       1.55895424    
  0.507171988       2.54972792     -0.517000020       330.361298       1.55895424    
  0.994853973       2.40179110     -0.517000020       330.361298       1.55895424    
  0.718334973       1.73421395     -0.606999993       330.361298       1.55895424    
  0.718334973       1.73421395     -0.606999993       300.864410      -1.56105602    
  0.522363007       1.26109600     -0.606999993       300.864410      -1.56105602    
  0.266297996       1.33877206     -0.606999993       300.864410      -1.56105602    
  0.366203994       1.84103203     -0.606999993       300.864410      -1.56105602    
  0.718334973       1.73421395     -0.606999993       480.857758       1.56244481    
  0.994853973       2.40179110     -0.517000020       480.857758       1.56244481    
   1.44430494       2.16155505     -0.517000020       480.857758       1.56244481    
   1.04286098       1.56075203     -0.606999993       480.857758       1.56244481    
   1.04286098       1.56075203     -0.606999993       480.384247      -1.56048906    
  0.758352995       1.13495600     -0.606999993       480.384247      -1.56048906    
  0.522363007       1.26109600     -0.606999993       480.384247      -1.56048906    
  0.718334973       1.73421395     -0.606999993       480.384247      -1.56048906    
   1.04286098       1.56075203     -0.606999993       576.739075       1.56649148    
   1.44430494       2.16155505     -0.517000020       576.739075       1.56649148    
   1.83825099       1.83825099     -0.517000020       576.739075       1.56649148    
   1.32730997       1.32730997     -0.606999993       576.739075       1.56649148    
   1.32730997       1.32730997     -0.606999993       651.434021      -1.56071997    
  0.965201020      0.965201020     -0.606999993       651.434021      -1.56071997    
  0.758352995       1.13495600     -0.606999993       651.434021      -1.56071997    
   1.04286098       1.56075203     -0.606999993       651.434021      -1.56071997    
   1.32730997       1.32730997     -0.606999993       664.069824       1.56884027    
   1.83825099       1.83825099     -0.517000020       664.069824       1.56884027    
   2.16155505       1.44430494     -0.517000020       664.069824       1.56884027    
   1.56075203       1.04286098     -0.606999993       664.069824       1.56884027    
   1.56075203       1.04286098     -0.606999993       799.139526      -1.56127608    
   1.13495600      0.758352995     -0.606999993       799.139526      -1.56127608    
  0.965201020      0.965201020     -0.606999993       799.139526      -1.56127608    
   1.32730997       1.32730997     -0.606999993       799.139526      -1.56127608    
   1.56075203       1.04286098     -0.606999993       769.825562       1.56801438    
   2.16155505       1.44430494     -0.517000020       769.825562       1.56801438    
   2.40179110      0.994853973     -0.517000020       769.825562       1.56801438    
   1.73421395      0.718334973     -0.606999993       769.825562       1.56801438    
   1.73421395      0.718334973     -0.606999993       911.238586      -1.56157970    
   1.26109600      0.522363007     -0.606999993       911.238586      -1.56157970    
   1.13495600      0.758352995     -0.606999993       911.238586      -1.56157970    
   1.56075203       1.04286098     -0.606999993       911.238586      -1.56157970    
   1.73421395      0.718334973     -0.606999993       881.179749       1.56538975    
   2.40179110      0.994853973     -0.517000020       881.179749       1.56538975    
   2.54972792      0.507171988     -0.517000020       881.179749       1.56538975    
   1.84103203      0.366203994     -0.606999993       881.179749       1.56538975    
   1.84103203      0.366203994     -0.606999993       981.112305      -1.56136334    
   1.33877206      0.266297996     -0.606999993       981.112305      -1.56136334    
   1.26109600      0.522363007     -0.606999993       981.112305      -1.56136334    
   1.73421395      0.718334973     -0.606999993       981.112305      -1.56136334    
   1.84103203      0.366203994     -0.606999993       954.492615       1.56337178    
   2.54972792      0.507171988     -0.517000020       954.492615       1.56337178    
   2.59967995       0.00000000     -0.517000020       954.492615       1.56337178    
   1.87709999       0.00000000     -0.606999993       954.492615       1.56337178    
   1.87709999       0.00000000     -0.606999993       1009.58386      -1.56088412    
   1.36500001       0.00000000     -0.606999993       1009.58386      -1.56088412    
   1.33877206      0.266297996     -0.606999993       1009.58386      -1.56088412    
   1.84103203      0.366203994     -0.606999993       1009.58386      -1.56088412    
   1.87709999       0.00000000     -0.606999993       954.505249       1.56332469    
   2.59967995       0.00000000     -0.517000020       954.505249       1.56332469    
   2.54972792     -0.507171988     -0.517000020       954.505249       1.56332469    
   1.84103203     -0.366203994     -0.606999993       954.505249       1.56332469    
   1.84103203     -0.366203994     -0.606999993       999.814453      -1.56056941    
   1.33877206     -0.266297996     -0.606999993       999.814453      -1.56056941    
   1.36500001       0.00000000     -0.606999993       999.814453      -1.56056941    
   1.87709999       0.00000000     -0.606999993       999.814453      -1.56056941    
   1.84103203     -0.366203994     -0.606999993       883.464355       1.56520152    
   2.54972792     -0.507171988     -0.517000020       883.464355       1.56520152    
   2.40179110     -0.994853973     -0.517000020       883.464355       1.56520152    
   1.73421395     -0.718334973     -0.606999993       883.464355       1.56520152    
   1.73421395     -0.718334973     -0.606999993       953.585815      -1.56053793    
   1.26109600     -0.522363007     -0.606999993       953.585815      -1.56053793    
   1.33877206     -0.266297996     -0.606999993       953.585815      -1.56053793    
   1.84103203     -0.366203994     -0.606999993       953.585815      -1.56053793    
   1.73421395     -0.718334973     -0.606999993       779.143066       1.56768882    
   2.40179110     -0.994853973     -0.517000020       779.143066       1.56768882    
   2.16155505      -1.44430494     -0.517000020       779.143066       1.56768882    
   1.56075203      -1.04286098     -0.606999993       779.143066       1.56768882    
   1.56075203      -1.04286098     -0.606999993       870.014709      -1.56053281    
   1.13495600     -0.758352995     -0.606999993       870.014709      -1.56053281    
   1.26109600     -0.522363007     -0.606999993       870.014709      -1.56053281    