 VARIABLES="X" "Y" "Z" "abs(p) (Pa)" "angle(p) (rad)"
ZONE N=   2709,E =    2358, F=FEPOINT, ET=QUADRILATERAL
   0.00000000      -5.48999977     -0.157000005       436.792114      -1.32688177    
   0.00000000      -4.76741982     -0.246999994       436.792114      -1.32688177    
  0.930077016      -4.67581606     -0.246999994       436.792114      -1.32688177    
   1.07104599      -5.38451099     -0.157000005       436.792114      -1.32688177    
  -1.07104599      -5.38451099     -0.157000005       457.195251       1.82378972    
 -0.930077016      -4.67581606     -0.246999994       457.195251       1.82378972    
   0.00000000      -4.76741982     -0.246999994       457.195251       1.82378972    
   0.00000000      -5.48999977     -0.157000005       457.195251       1.82378972    
  -2.10093188      -5.07209921     -0.157000005       1341.73901       1.81801271    
  -1.82441294      -4.40452194     -0.246999994       1341.73901       1.81801271    
 -0.930077016      -4.67581606     -0.246999994       1341.73901       1.81801271    
  -1.07104599      -5.38451099     -0.157000005       1341.73901       1.81801271    
  -3.05008101      -4.56476784     -0.157000005       2156.46777       1.82015014    
  -2.64863706      -3.96396494     -0.246999994       2156.46777       1.82015014    
  -1.82441294      -4.40452194     -0.246999994       2156.46777       1.82015014    
  -2.10093188      -5.07209921     -0.157000005       2156.46777       1.82015014    
  -3.88201594      -3.88201594     -0.157000005       2900.63818       1.81933415    
  -3.37107491      -3.37107491     -0.246999994       2900.63818       1.81933415    
  -2.64863706      -3.96396494     -0.246999994       2900.63818       1.81933415    
  -3.05008101      -4.56476784     -0.157000005       2900.63818       1.81933415    
  -4.56476784      -3.05008101     -0.157000005       3558.12231       1.81589830    
  -3.96396494      -2.64863706     -0.246999994       3558.12231       1.81589830    
  -3.37107491      -3.37107491     -0.246999994       3558.12231       1.81589830    
  -3.88201594      -3.88201594     -0.157000005       3558.12231       1.81589830    
  -5.07209921      -2.10093188     -0.157000005       4027.74658       1.81902421    
  -4.40452194      -1.82441294     -0.246999994       4027.74658       1.81902421    
  -3.96396494      -2.64863706     -0.246999994       4027.74658       1.81902421    
  -4.56476784      -3.05008101     -0.157000005       4027.74658       1.81902421    
  -5.38451099      -1.07104599     -0.157000005       4365.57715       1.81932068    
  -4.67581606     -0.930077016     -0.246999994       4365.57715       1.81932068    
  -4.40452194      -1.82441294     -0.246999994       4365.57715       1.81932068    
  -5.07209921      -2.10093188     -0.157000005       4365.57715       1.81932068    
  -5.48999977       0.00000000     -0.157000005       4569.66406       1.81628036    
  -4.76741982       0.00000000     -0.246999994       4569.66406       1.81628036    
  -4.67581606     -0.930077016     -0.246999994       4569.66406       1.81628036    
  -5.38451099      -1.07104599     -0.157000005       4569.66406       1.81628036    
  -5.38451099       1.07104599     -0.157000005       4572.61914       1.81582582    
  -4.67581606      0.930077016     -0.246999994       4572.61914       1.81582582    
  -4.76741982       0.00000000     -0.246999994       4572.61914       1.81582582    
  -5.48999977       0.00000000     -0.157000005       4572.61914       1.81582582    
  -5.07209921       2.10093188     -0.157000005       4395.56787       1.81579244    
  -4.40452194       1.82441294     -0.246999994       4395.56787       1.81579244    
  -4.67581606      0.930077016     -0.246999994       4395.56787       1.81579244    
  -5.38451099       1.07104599     -0.157000005       4395.56787       1.81579244    
  -4.56476784       3.05008101     -0.157000005       4045.79248       1.81605172    
  -3.96396494       2.64863706     -0.246999994       4045.79248       1.81605172    
  -4.40452194       1.82441294     -0.246999994       4045.79248       1.81605172    
  -5.07209921       2.10093188     -0.157000005       4045.79248       1.81605172    
  -3.88201594       3.88201594     -0.157000005       3520.76538       1.81877077    
  -3.37107491       3.37107491     -0.246999994       3520.76538       1.81877077    
  -3.96396494       2.64863706     -0.246999994       3520.76538       1.81877077    
  -4.56476784       3.05008101     -0.157000005       3520.76538       1.81877077    
  -3.05008101       4.56476784     -0.157000005       2901.69971       1.81642139    
  -2.64863706       3.96396494     -0.246999994       2901.69971       1.81642139    
  -3.37107491       3.37107491     -0.246999994       2901.69971       1.81642139    
  -3.88201594       3.88201594     -0.157000005       2901.69971       1.81642139    
  -2.10093188       5.07209921     -0.157000005       2142.78735       1.81846845    
  -1.82441294       4.40452194     -0.246999994       2142.78735       1.81846845    
  -2.64863706       3.96396494     -0.246999994       2142.78735       1.81846845    
  -3.05008101       4.56476784     -0.157000005       2142.78735       1.81846845    
  -1.07104599       5.38451099     -0.157000005       1322.97290       1.81591916    
 -0.930077016       4.67581606     -0.246999994       1322.97290       1.81591916    
  -1.82441294       4.40452194     -0.246999994       1322.97290       1.81591916    
  -2.10093188       5.07209921     -0.157000005       1322.97290       1.81591916    
   0.00000000       5.48999977     -0.157000005       438.903931       1.81570113    
   0.00000000       4.76741982     -0.246999994       438.903931       1.81570113    
 -0.930077016       4.67581606     -0.246999994       438.903931       1.81570113    
  -1.07104599       5.38451099     -0.157000005       438.903931       1.81570113    
   1.07104599       5.38451099     -0.157000005       460.100922      -1.32270300    
  0.930077016       4.67581606     -0.246999994       460.100922      -1.32270300    
   0.00000000       4.76741982     -0.246999994       460.100922      -1.32270300    
   0.00000000       5.48999977     -0.157000005       460.100922      -1.32270300    
   2.10093188       5.07209921     -0.157000005       1333.04993      -1.32131529    
   1.82441294       4.40452194     -0.246999994       1333.04993      -1.32131529    
  0.930077016       4.67581606     -0.246999994       1333.04993      -1.32131529    
   1.07104599       5.38451099     -0.157000005       1333.04993      -1.32131529    
   3.05008101       4.56476784     -0.157000005       2159.71899      -1.32225788    
   2.64863706       3.96396494     -0.246999994       2159.71899      -1.32225788    
   1.82441294       4.40452194     -0.246999994       2159.71899      -1.32225788    
   2.10093188       5.07209921     -0.157000005       2159.71899      -1.32225788    
   3.88201594       3.88201594     -0.157000005       2924.82129      -1.32584000    
   3.37107491       3.37107491     -0.246999994       2924.82129      -1.32584000    
   2.64863706       3.96396494     -0.246999994       2924.82129      -1.32584000    
   3.05008101       4.56476784     -0.157000005       2924.82129      -1.32584000    
   4.56476784       3.05008101     -0.157000005       3556.87451      -1.32545149    
   3.96396494       2.64863706     -0.246999994       3556.87451      -1.32545149    
   3.37107491       3.37107491     -0.246999994       3556.87451      -1.32545149    
   3.88201594       3.88201594     -0.157000005       3556.87451      -1.32545149    
   5.07209921       2.10093188     -0.157000005       4060.34766      -1.32600832    
   4.40452194       1.82441294     -0.246999994       4060.34766      -1.32600832    
   3.96396494       2.64863706     -0.246999994       4060.34766      -1.32600832    
   4.56476784       3.05008101     -0.157000005       4060.34766      -1.32600832    
   5.38451099       1.07104599     -0.157000005       4366.76562      -1.32246876    
   4.67581606      0.930077016     -0.246999994       4366.76562      -1.32246876    
   4.40452194       1.82441294     -0.246999994       4366.76562      -1.32246876    
   5.07209921       2.10093188     -0.157000005       4366.76562      -1.32246876    
   5.48999977       0.00000000     -0.157000005       4530.32031      -1.32178807    
   4.76741982       0.00000000     -0.246999994       4530.32031      -1.32178807    
   4.67581606      0.930077016     -0.246999994       4530.32031      -1.32178807    
   5.38451099       1.07104599     -0.157000005       4530.32031      -1.32178807    
   5.38451099      -1.07104599     -0.157000005       4525.74854      -1.32169294    
   4.67581606     -0.930077016     -0.246999994       4525.74854      -1.32169294    
   4.76741982       0.00000000     -0.246999994       4525.74854      -1.32169294    
   5.48999977       0.00000000     -0.157000005       4525.74854      -1.32169294    
   5.07209921      -2.10093188     -0.157000005       4348.70068      -1.32170892    
   4.40452194      -1.82441294     -0.246999994       4348.70068      -1.32170892    
   4.67581606     -0.930077016     -0.246999994       4348.70068      -1.32170892    
   5.38451099      -1.07104599     -0.157000005       4348.70068      -1.32170892    
   4.56476784      -3.05008101     -0.157000005       4004.67310      -1.32181394    
   3.96396494      -2.64863706     -0.246999994       4004.67310      -1.32181394    
   4.40452194      -1.82441294     -0.246999994       4004.67310      -1.32181394    
   5.07209921      -2.10093188     -0.157000005       4004.67310      -1.32181394    
   3.88201594      -3.88201594     -0.157000005       3509.39575      -1.32223892    
   3.37107491      -3.37107491     -0.246999994       3509.39575      -1.32223892    
   3.96396494      -2.64863706     -0.246999994       3509.39575      -1.32223892    
   4.56476784      -3.05008101     -0.157000005       3509.39575      -1.32223892    
   3.05008101      -4.56476784     -0.157000005       2895.92480      -1.32521331    
   2.64863706      -3.96396494     -0.246999994       2895.92480      -1.32521331    
   3.37107491      -3.37107491     -0.246999994       2895.92480      -1.32521331    
   3.88201594      -3.88201594     -0.157000005       2895.92480      -1.32521331    
   2.10093188      -5.07209921     -0.157000005       2138.00000      -1.32316351    
   1.82441294      -4.40452194     -0.246999994       2138.00000      -1.32316351    
   2.64863706      -3.96396494     -0.246999994       2138.00000      -1.32316351    
   3.05008101      -4.56476784     -0.157000005       2138.00000      -1.32316351    
   1.07104599      -5.38451099     -0.157000005       1312.08850      -1.32336068    
  0.930077016      -4.67581606     -0.246999994       1312.08850      -1.32336068    
   1.82441294      -4.40452194     -0.246999994       1312.08850      -1.32336068    
   2.10093188      -5.07209921     -0.157000005       1312.08850      -1.32336068    
   0.00000000      -1.87709999     -0.606999993       287.406036      -1.47836292    
   0.00000000      -1.36500001     -0.606999993       287.406036      -1.47836292    
  0.266297996      -1.33877206     -0.606999993       287.406036      -1.47836292    
  0.366203994      -1.84103203     -0.606999993       287.406036      -1.47836292    
   0.00000000      -1.87709999     -0.606999993       358.879333       1.68537784    
   0.00000000      -2.59967995     -0.517000020       358.879333       1.68537784    
 -0.507171988      -2.54972792     -0.517000020       358.879333       1.68537784    
 -0.366203994      -1.84103203     -0.606999993       358.879333       1.68537784    
 -0.366203994      -1.84103203     -0.606999993       272.518799       1.66900897    
 -0.266297996      -1.33877206     -0.606999993       272.518799       1.66900897    
   0.00000000      -1.36500001     -0.606999993       272.518799       1.66900897    
   0.00000000      -1.87709999     -0.606999993       272.518799       1.66900897    
 -0.366203994      -1.84103203     -0.606999993       1062.29260       1.68189466    
 -0.507171988      -2.54972792     -0.517000020       1062.29260       1.68189466    
 -0.994853973      -2.40179110     -0.517000020       1062.29260       1.68189466    
 -0.718334973      -1.73421395     -0.606999993       1062.29260       1.68189466    
 -0.718334973      -1.73421395     -0.606999993       821.713013       1.66640270    
 -0.522363007      -1.26109600     -0.606999993       821.713013       1.66640270    
 -0.266297996      -1.33877206     -0.606999993       821.713013       1.66640270    
 -0.366203994      -1.84103203     -0.606999993       821.713013       1.66640270    
 -0.718334973      -1.73421395     -0.606999993       1721.63574       1.68006766    
 -0.994853973      -2.40179110     -0.517000020       1721.63574       1.68006766    
  -1.44430494      -2.16155505     -0.517000020       1721.63574       1.68006766    
  -1.04286098      -1.56075203     -0.606999993       1721.63574       1.68006766    
  -1.04286098      -1.56075203     -0.606999993       1339.78748       1.66499889    
 -0.758352995      -1.13495600     -0.606999993       1339.78748       1.66499889    
 -0.522363007      -1.26109600     -0.606999993       1339.78748       1.66499889    
 -0.718334973      -1.73421395     -0.606999993       1339.78748       1.66499889    
  -1.04286098      -1.56075203     -0.606999993       2318.55688       1.67868757    
  -1.44430494      -2.16155505     -0.517000020       2318.55688       1.67868757    
  -1.83825099      -1.83825099     -0.517000020       2318.55688       1.67868757    
  -1.32730997      -1.32730997     -0.606999993       2318.55688       1.67868757    
  -1.32730997      -1.32730997     -0.606999993       1809.36914       1.66389751    
 -0.965201020     -0.965201020     -0.606999993       1809.36914       1.66389751    
 -0.758352995      -1.13495600     -0.606999993       1809.36914       1.66389751    
  -1.04286098      -1.56075203     -0.606999993       1809.36914       1.66389751    
  -1.32730997      -1.32730997     -0.606999993       2834.78979       1.67788148    
  -1.83825099      -1.83825099     -0.517000020       2834.78979       1.67788148    
  -2.16155505      -1.44430494     -0.517000020       2834.78979       1.67788148    
  -1.56075203      -1.04286098     -0.606999993       2834.78979       1.67788148    
  -1.56075203      -1.04286098     -0.606999993       2213.39209       1.66320479    
  -1.13495600     -0.758352995     -0.606999993       2213.39209       1.66320479    
 -0.965201020     -0.965201020     -0.606999993       2213.39209       1.66320479    
  -1.32730997      -1.32730997     -0.606999993       2213.39209       1.66320479    
  -1.56075203      -1.04286098     -0.606999993       3244.09473       1.67771840    
  -2.16155505      -1.44430494     -0.517000020       3244.09473       1.67771840    
  -2.40179110     -0.994853973     -0.517000020       3244.09473       1.67771840    
  -1.73421395     -0.718334973     -0.606999993       3244.09473       1.67771840    
  -1.73421395     -0.718334973     -0.606999993       2533.11133       1.66298676    
  -1.26109600     -0.522363007     -0.606999993       2533.11133       1.66298676    
  -1.13495600     -0.758352995     -0.606999993       2533.11133       1.66298676    
  -1.56075203      -1.04286098     -0.606999993       2533.11133       1.66298676    
  -1.73421395     -0.718334973     -0.606999993       3521.54321       1.67797267    
  -2.40179110     -0.994853973     -0.517000020       3521.54321       1.67797267    
  -2.54972792     -0.507171988     -0.517000020       3521.54321       1.67797267    
  -1.84103203     -0.366203994     -0.606999993       3521.54321       1.67797267    
  -1.84103203     -0.366203994     -0.606999993       2752.52441       1.66308522    
  -1.33877206     -0.266297996     -0.606999993       2752.52441       1.66308522    
  -1.26109600     -0.522363007     -0.606999993       2752.52441       1.66308522    
  -1.73421395     -0.718334973     -0.606999993       2752.52441       1.66308522    
  -1.84103203     -0.366203994     -0.606999993       3658.82373       1.67824149    
  -2.54972792     -0.507171988     -0.517000020       3658.82373       1.67824149    
  -2.59967995       0.00000000     -0.517000020       3658.82373       1.67824149    
  -1.87709999       0.00000000     -0.606999993       3658.82373       1.67824149    
  -1.87709999       0.00000000     -0.606999993       2863.86011       1.66322505    
  -1.36500001       0.00000000     -0.606999993       2863.86011       1.66322505    
  -1.33877206     -0.266297996     -0.606999993       2863.86011       1.66322505    
  -1.84103203     -0.366203994     -0.606999993       2863.86011       1.66322505    
  -1.87709999       0.00000000     -0.606999993       3659.90381       1.67818069    
  -2.59967995       0.00000000     -0.517000020       3659.90381       1.67818069    
  -2.54972792      0.507171988     -0.517000020       3659.90381       1.67818069    
  -1.84103203      0.366203994     -0.606999993       3659.90381       1.67818069    
  -1.84103203      0.366203994     -0.606999993       2866.21460       1.66314697    
  -1.33877206      0.266297996     -0.606999993       2866.21460       1.66314697    
  -1.36500001       0.00000000     -0.606999993       2866.21460       1.66314697    
  -1.87709999       0.00000000     -0.606999993       2866.21460       1.66314697    
  -1.84103203      0.366203994     -0.606999993       3526.31934       1.67772639    
  -2.54972792      0.507171988     -0.517000020       3526.31934       1.67772639    
  -2.40179110      0.994853973     -0.517000020       3526.31934       1.67772639    
  -1.73421395      0.718334973     -0.606999993       3526.31934       1.67772639    
  -1.73421395      0.718334973     -0.606999993       2760.11841       1.66281378    
  -1.26109600      0.522363007     -0.606999993       2760.11841       1.66281378    
  -1.33877206      0.266297996     -0.606999993       2760.11841       1.66281378    
  -1.84103203      0.366203994     -0.606999993       2760.11841       1.66281378    
  -1.73421395      0.718334973     -0.606999993       3254.39331       1.67714572    
  -2.40179110      0.994853973     -0.517000020       3254.39331       1.67714572    
  -2.16155505       1.44430494     -0.517000020       3254.39331       1.67714572    
  -1.56075203       1.04286098     -0.606999993       3254.39331       1.67714572    
  -1.56075203       1.04286098     -0.606999993       2546.59082       1.66240919    
  -1.13495600      0.758352995     -0.606999993       2546.59082       1.66240919    
  -1.26109600      0.522363007     -0.606999993       2546.59082       1.66240919    
  -1.73421395      0.718334973     -0.606999993       2546.59082       1.66240919    
  -1.56075203       1.04286098     -0.606999993       2848.66724       1.67685854    
  -2.16155505       1.44430494     -0.517000020       2848.66724       1.67685854    
  -1.83825099       1.83825099     -0.517000020       2848.66724       1.67685854    
  -1.32730997       1.32730997     -0.606999993       2848.66724       1.67685854    
  -1.32730997       1.32730997     -0.606999993       2231.83594       1.66222405    
 -0.965201020      0.965201020     -0.606999993       2231.83594       1.66222405    
  -1.13495600      0.758352995     -0.606999993       2231.83594       1.66222405    
  -1.56075203       1.04286098     -0.606999993       2231.83594       1.66222405    
  -1.32730997       1.32730997     -0.606999993       2331.59473       1.67715394    
  -1.83825099       1.83825099     -0.517000020       2331.59473       1.67715394    
  -1.44430494       2.16155505     -0.517000020       2331.59473       1.67715394    
  -1.04286098       1.56075203     -0.606999993       2331.59473       1.67715394    
  -1.04286098       1.56075203     -0.606999993       1830.25659       1.66245127    
 -0.758352995       1.13495600     -0.606999993       1830.25659       1.66245127    
 -0.965201020      0.965201020     -0.606999993       1830.25659       1.66245127    
  -1.32730997       1.32730997     -0.606999993       1830.25659       1.66245127    
  -1.04286098       1.56075203     -0.606999993       1731.39795       1.67792284    
  -1.44430494       2.16155505     -0.517000020       1731.39795       1.67792284    
 -0.994853973       2.40179110     -0.517000020       1731.39795       1.67792284    
 -0.718334973       1.73421395     -0.606999993       1731.39795       1.67792284    
 -0.718334973       1.73421395     -0.606999993       1360.49707       1.66303086    
 -0.522363007       1.26109600     -0.606999993       1360.49707       1.66303086    
 -0.758352995       1.13495600     -0.606999993       1360.49707       1.66303086    
  -1.04286098       1.56075203     -0.606999993       1360.49707       1.66303086    
 -0.718334973       1.73421395     -0.606999993       1068.70007       1.67869699    
 -0.994853973       2.40179110     -0.517000020       1068.70007       1.67869699    
 -0.507171988       2.54972792     -0.517000020       1068.70007       1.67869699    
 -0.366203994       1.84103203     -0.606999993       1068.70007       1.67869699    
 -0.366203994       1.84103203     -0.606999993       840.481750       1.66363037    
 -0.266297996       1.33877206     -0.606999993       840.481750       1.66363037    
 -0.522363007       1.26109600     -0.606999993       840.481750       1.66363037    
 -0.718334973       1.73421395     -0.606999993       840.481750       1.66363037    
 -0.366203994       1.84103203     -0.606999993       362.412384       1.67758524    
 -0.507171988       2.54972792     -0.517000020       362.412384       1.67758524    
   0.00000000       2.59967995     -0.517000020       362.412384       1.67758524    
   0.00000000       1.87709999     -0.606999993       362.412384       1.67758524    
   0.00000000       1.87709999     -0.606999993       288.136078       1.66329718    
   0.00000000       1.36500001     -0.606999993       288.136078       1.66329718    
 -0.266297996       1.33877206     -0.606999993       288.136078       1.66329718    
 -0.366203994       1.84103203     -0.606999993       288.136078       1.66329718    
   0.00000000       1.87709999     -0.606999993       360.235260      -1.45854628    
   0.00000000       2.59967995     -0.517000020       360.235260      -1.45854628    
  0.507171988       2.54972792     -0.517000020       360.235260      -1.45854628    
  0.366203994       1.84103203     -0.606999993       360.235260      -1.45854628    
  0.366203994       1.84103203     -0.606999993       275.684021      -1.47568071    
  0.266297996       1.33877206     -0.606999993       275.684021      -1.47568071    
   0.00000000       1.36500001     -0.606999993       275.684021      -1.47568071    
   0.00000000       1.87709999     -0.606999993       275.684021      -1.47568071    
  0.366203994       1.84103203     -0.606999993       1066.56470      -1.46113539    
  0.507171988       2.54972792     -0.517000020       1066.56470      -1.46113539    
  0.994853973       2.40179110     -0.517000020       1066.56470      -1.46113539    
  0.718334973       1.73421395     -0.606999993       1066.56470      -1.46113539    
  0.718334973       1.73421395     -0.606999993       828.286865      -1.47709692    
  0.522363007       1.26109600     -0.606999993       828.286865      -1.47709692    
  0.266297996       1.33877206     -0.606999993       828.286865      -1.47709692    
  0.366203994       1.84103203     -0.606999993       828.286865      -1.47709692    
  0.718334973       1.73421395     -0.606999993       1729.30432      -1.46268702    
  0.994853973       2.40179110     -0.517000020       1729.30432      -1.46268702    
   1.44430494       2.16155505     -0.517000020       1729.30432      -1.46268702    
   1.04286098       1.56075203     -0.606999993       1729.30432      -1.46268702    
   1.04286098       1.56075203     -0.606999993       1348.97363      -1.47808611    
  0.758352995       1.13495600     -0.606999993       1348.97363      -1.47808611    
  0.522363007       1.26109600     -0.606999993       1348.97363      -1.47808611    
  0.718334973       1.73421395     -0.606999993       1348.97363      -1.47808611    
   1.04286098       1.56075203     -0.606999993       2329.41772      -1.46381402    
   1.44430494       2.16155505     -0.517000020       2329.41772      -1.46381402    
   1.83825099       1.83825099     -0.517000020       2329.41772      -1.46381402    
   1.32730997       1.32730997     -0.606999993       2329.41772      -1.46381402    
   1.32730997       1.32730997     -0.606999993       1819.55310      -1.47882879    
  0.965201020      0.965201020     -0.606999993       1819.55310      -1.47882879    
  0.758352995       1.13495600     -0.606999993       1819.55310      -1.47882879    
   1.04286098       1.56075203     -0.606999993       1819.55310      -1.47882879    
   1.32730997       1.32730997     -0.606999993       2846.18750      -1.46431136    
   1.83825099       1.83825099     -0.517000020       2846.18750      -1.46431136    
   2.16155505       1.44430494     -0.517000020       2846.18750      -1.46431136    
   1.56075203       1.04286098     -0.606999993       2846.18750      -1.46431136    
   1.56075203       1.04286098     -0.606999993       2222.20776      -1.47915053    
   1.13495600      0.758352995     -0.606999993       2222.20776      -1.47915053    
  0.965201020      0.965201020     -0.606999993       2222.20776      -1.47915053    
   1.32730997       1.32730997     -0.606999993       2222.20776      -1.47915053    
   1.56075203       1.04286098     -0.606999993       3251.48022      -1.46415293    
   2.16155505       1.44430494     -0.517000020       3251.48022      -1.46415293    
   2.40179110      0.994853973     -0.517000020       3251.48022      -1.46415293    
   1.73421395      0.718334973     -0.606999993       3251.48022      -1.46415293    
   1.73421395      0.718334973     -0.606999993       2538.38574      -1.47901511    
   1.26109600      0.522363007     -0.606999993       2538.38574      -1.47901511    
   1.13495600      0.758352995     -0.606999993       2538.38574      -1.47901511    
   1.56075203       1.04286098     -0.606999993       2538.38574      -1.47901511    
   1.73421395      0.718334973     -0.606999993       3522.95337      -1.46366668    
   2.40179110      0.994853973     -0.517000020       3522.95337      -1.46366668    
   2.54972792      0.507171988     -0.517000020       3522.95337      -1.46366668    
   1.84103203      0.366203994     -0.606999993       3522.95337      -1.46366668    
   1.84103203      0.366203994     -0.606999993       2753.52393      -1.47865593    
   1.33877206      0.266297996     -0.606999993       2753.52393      -1.47865593    
   1.26109600      0.522363007     -0.606999993       2753.52393      -1.47865593    
   1.73421395      0.718334973     -0.606999993       2753.52393      -1.47865593    
   1.84103203      0.366203994     -0.606999993       3656.24927      -1.46330643    
   2.54972792      0.507171988     -0.517000020       3656.24927      -1.46330643    
   2.59967995       0.00000000     -0.517000020       3656.24927      -1.46330643    
   1.87709999       0.00000000     -0.606999993       3656.24927      -1.46330643    
   1.87709999       0.00000000     -0.606999993       2861.48193      -1.47837472    
   1.36500001       0.00000000     -0.606999993       2861.48193      -1.47837472    
   1.33877206      0.266297996     -0.606999993       2861.48193      -1.47837472    
   1.84103203      0.366203994     -0.606999993       2861.48193      -1.47837472    
   1.87709999       0.00000000     -0.606999993       3655.20825      -1.46335447    
   2.59967995       0.00000000     -0.517000020       3655.20825      -1.46335447    
   2.54972792     -0.507171988     -0.517000020       3655.20825      -1.46335447    
   1.84103203     -0.366203994     -0.606999993       3655.20825      -1.46335447    
   1.84103203     -0.366203994     -0.606999993       2861.32495      -1.47836971    
   1.33877206     -0.266297996     -0.606999993       2861.32495      -1.47836971    
   1.36500001       0.00000000     -0.606999993       2861.32495      -1.47836971    
   1.87709999       0.00000000     -0.606999993       2861.32495      -1.47836971    
   1.84103203     -0.366203994     -0.606999993       3518.37061      -1.46376157    
   2.54972792     -0.507171988     -0.517000020       3518.37061      -1.46376157    
   2.40179110     -0.994853973     -0.517000020       3518.37061      -1.46376157    
   1.73421395     -0.718334973     -0.606999993       3518.37061      -1.46376157    
   1.73421395     -0.718334973     -0.606999993       2752.46948      -1.47859657    
   1.26109600     -0.522363007     -0.606999993       2752.46948      -1.47859657    
   1.33877206     -0.266297996     -0.606999993       2752.46948      -1.47859657    
   1.84103203     -0.366203994     -0.606999993       2752.46948      -1.47859657    
   1.73421395     -0.718334973     -0.606999993       3241.67847      -1.46419406    
   2.40179110     -0.994853973     -0.517000020       3241.67847      -1.46419406    
   2.16155505      -1.44430494     -0.517000020       3241.67847      -1.46419406    
   1.56075203      -1.04286098     -0.606999993       3241.67847      -1.46419406    
   1.56075203      -1.04286098     -0.606999993       2535.84253      -1.47882473    
   1.13495600     -0.758352995     -0.606999993       2535.84253      -1.47882473    
   1.26109600     -0.522363007     -0.606999993       2535.84253      -1.47882473    