 VARIABLES="X" "Y" "Z" "abs(p) (Pa)" "angle(p) (rad)"
ZONE N=   2709,E =    2358, F=FEPOINT, ET=QUADRILATERAL
   0.00000000      -5.48999977     -0.157000005       223.899063      -1.04310095    
   0.00000000      -4.76741982     -0.246999994       223.899063      -1.04310095    
  0.930077016      -4.67581606     -0.246999994       223.899063      -1.04310095    
   1.07104599      -5.38451099     -0.157000005       223.899063      -1.04310095    
  -1.07104599      -5.38451099     -0.157000005       223.905762      -1.04317069    
 -0.930077016      -4.67581606     -0.246999994       223.905762      -1.04317069    
   0.00000000      -4.76741982     -0.246999994       223.905762      -1.04317069    
   0.00000000      -5.48999977     -0.157000005       223.905762      -1.04317069    
  -2.10093188      -5.07209921     -0.157000005       223.979309      -1.04371297    
  -1.82441294      -4.40452194     -0.246999994       223.979309      -1.04371297    
 -0.930077016      -4.67581606     -0.246999994       223.979309      -1.04371297    
  -1.07104599      -5.38451099     -0.157000005       223.979309      -1.04371297    
  -3.05008101      -4.56476784     -0.157000005       223.916153      -1.04327142    
  -2.64863706      -3.96396494     -0.246999994       223.916153      -1.04327142    
  -1.82441294      -4.40452194     -0.246999994       223.916153      -1.04327142    
  -2.10093188      -5.07209921     -0.157000005       223.916153      -1.04327142    
  -3.88201594      -3.88201594     -0.157000005       223.871902      -1.04319775    
  -3.37107491      -3.37107491     -0.246999994       223.871902      -1.04319775    
  -2.64863706      -3.96396494     -0.246999994       223.871902      -1.04319775    
  -3.05008101      -4.56476784     -0.157000005       223.871902      -1.04319775    
  -4.56476784      -3.05008101     -0.157000005       223.801163      -1.04345584    
  -3.96396494      -2.64863706     -0.246999994       223.801163      -1.04345584    
  -3.37107491      -3.37107491     -0.246999994       223.801163      -1.04345584    
  -3.88201594      -3.88201594     -0.157000005       223.801163      -1.04345584    
  -5.07209921      -2.10093188     -0.157000005       223.651520      -1.04270124    
  -4.40452194      -1.82441294     -0.246999994       223.651520      -1.04270124    
  -3.96396494      -2.64863706     -0.246999994       223.651520      -1.04270124    
  -4.56476784      -3.05008101     -0.157000005       223.651520      -1.04270124    
  -5.38451099      -1.07104599     -0.157000005       223.635223      -1.04261768    
  -4.67581606     -0.930077016     -0.246999994       223.635223      -1.04261768    
  -4.40452194      -1.82441294     -0.246999994       223.635223      -1.04261768    
  -5.07209921      -2.10093188     -0.157000005       223.635223      -1.04261768    
  -5.48999977       0.00000000     -0.157000005       223.687698      -1.04312813    
  -4.76741982       0.00000000     -0.246999994       223.687698      -1.04312813    
  -4.67581606     -0.930077016     -0.246999994       223.687698      -1.04312813    
  -5.38451099      -1.07104599     -0.157000005       223.687698      -1.04312813    
  -5.38451099       1.07104599     -0.157000005       223.691986      -1.04320812    
  -4.67581606      0.930077016     -0.246999994       223.691986      -1.04320812    
  -4.76741982       0.00000000     -0.246999994       223.691986      -1.04320812    
  -5.48999977       0.00000000     -0.157000005       223.691986      -1.04320812    
  -5.07209921       2.10093188     -0.157000005       223.655716      -1.04311991    
  -4.40452194       1.82441294     -0.246999994       223.655716      -1.04311991    
  -4.67581606      0.930077016     -0.246999994       223.655716      -1.04311991    
  -5.38451099       1.07104599     -0.157000005       223.655716      -1.04311991    
  -4.56476784       3.05008101     -0.157000005       223.617126      -1.04297817    
  -3.96396494       2.64863706     -0.246999994       223.617126      -1.04297817    
  -4.40452194       1.82441294     -0.246999994       223.617126      -1.04297817    
  -5.07209921       2.10093188     -0.157000005       223.617126      -1.04297817    
  -3.88201594       3.88201594     -0.157000005       223.630951      -1.04268408    
  -3.37107491       3.37107491     -0.246999994       223.630951      -1.04268408    
  -3.96396494       2.64863706     -0.246999994       223.630951      -1.04268408    
  -4.56476784       3.05008101     -0.157000005       223.630951      -1.04268408    
  -3.05008101       4.56476784     -0.157000005       223.716446      -1.04318154    
  -2.64863706       3.96396494     -0.246999994       223.716446      -1.04318154    
  -3.37107491       3.37107491     -0.246999994       223.716446      -1.04318154    
  -3.88201594       3.88201594     -0.157000005       223.716446      -1.04318154    
  -2.10093188       5.07209921     -0.157000005       223.674591      -1.04280126    
  -1.82441294       4.40452194     -0.246999994       223.674591      -1.04280126    
  -2.64863706       3.96396494     -0.246999994       223.674591      -1.04280126    
  -3.05008101       4.56476784     -0.157000005       223.674591      -1.04280126    
  -1.07104599       5.38451099     -0.157000005       223.703552      -1.04315221    
 -0.930077016       4.67581606     -0.246999994       223.703552      -1.04315221    
  -1.82441294       4.40452194     -0.246999994       223.703552      -1.04315221    
  -2.10093188       5.07209921     -0.157000005       223.703552      -1.04315221    
   0.00000000       5.48999977     -0.157000005       223.629440      -1.04268479    
   0.00000000       4.76741982     -0.246999994       223.629440      -1.04268479    
 -0.930077016       4.67581606     -0.246999994       223.629440      -1.04268479    
  -1.07104599       5.38451099     -0.157000005       223.629440      -1.04268479    
   1.07104599       5.38451099     -0.157000005       223.653748      -1.04302251    
  0.930077016       4.67581606     -0.246999994       223.653748      -1.04302251    
   0.00000000       4.76741982     -0.246999994       223.653748      -1.04302251    
   0.00000000       5.48999977     -0.157000005       223.653748      -1.04302251    
   2.10093188       5.07209921     -0.157000005       223.661774      -1.04273593    
   1.82441294       4.40452194     -0.246999994       223.661774      -1.04273593    
  0.930077016       4.67581606     -0.246999994       223.661774      -1.04273593    
   1.07104599       5.38451099     -0.157000005       223.661774      -1.04273593    
   3.05008101       4.56476784     -0.157000005       223.651993      -1.04271865    
   2.64863706       3.96396494     -0.246999994       223.651993      -1.04271865    
   1.82441294       4.40452194     -0.246999994       223.651993      -1.04271865    
   2.10093188       5.07209921     -0.157000005       223.651993      -1.04271865    
   3.88201594       3.88201594     -0.157000005       223.691849      -1.04321432    
   3.37107491       3.37107491     -0.246999994       223.691849      -1.04321432    
   2.64863706       3.96396494     -0.246999994       223.691849      -1.04321432    
   3.05008101       4.56476784     -0.157000005       223.691849      -1.04321432    
   4.56476784       3.05008101     -0.157000005       223.610687      -1.04297459    
   3.96396494       2.64863706     -0.246999994       223.610687      -1.04297459    
   3.37107491       3.37107491     -0.246999994       223.610687      -1.04297459    
   3.88201594       3.88201594     -0.157000005       223.610687      -1.04297459    
   5.07209921       2.10093188     -0.157000005       223.568710      -1.04292285    
   4.40452194       1.82441294     -0.246999994       223.568710      -1.04292285    
   3.96396494       2.64863706     -0.246999994       223.568710      -1.04292285    
   4.56476784       3.05008101     -0.157000005       223.568710      -1.04292285    
   5.38451099       1.07104599     -0.157000005       223.575775      -1.04248834    
   4.67581606      0.930077016     -0.246999994       223.575775      -1.04248834    
   4.40452194       1.82441294     -0.246999994       223.575775      -1.04248834    
   5.07209921       2.10093188     -0.157000005       223.575775      -1.04248834    
   5.48999977       0.00000000     -0.157000005       223.607178      -1.04245377    
   4.76741982       0.00000000     -0.246999994       223.607178      -1.04245377    
   4.67581606      0.930077016     -0.246999994       223.607178      -1.04245377    
   5.38451099       1.07104599     -0.157000005       223.607178      -1.04245377    
   5.38451099      -1.07104599     -0.157000005       223.611389      -1.04242325    
   4.67581606     -0.930077016     -0.246999994       223.611389      -1.04242325    
   4.76741982       0.00000000     -0.246999994       223.611389      -1.04242325    
   5.48999977       0.00000000     -0.157000005       223.611389      -1.04242325    
   5.07209921      -2.10093188     -0.157000005       223.599838      -1.04236746    
   4.40452194      -1.82441294     -0.246999994       223.599838      -1.04236746    
   4.67581606     -0.930077016     -0.246999994       223.599838      -1.04236746    
   5.38451099      -1.07104599     -0.157000005       223.599838      -1.04236746    
   4.56476784      -3.05008101     -0.157000005       223.625610      -1.04242122    
   3.96396494      -2.64863706     -0.246999994       223.625610      -1.04242122    
   4.40452194      -1.82441294     -0.246999994       223.625610      -1.04242122    
   5.07209921      -2.10093188     -0.157000005       223.625610      -1.04242122    
   3.88201594      -3.88201594     -0.157000005       223.751038      -1.04278040    
   3.37107491      -3.37107491     -0.246999994       223.751038      -1.04278040    
   3.96396494      -2.64863706     -0.246999994       223.751038      -1.04278040    
   4.56476784      -3.05008101     -0.157000005       223.751038      -1.04278040    
   3.05008101      -4.56476784     -0.157000005       223.891663      -1.04346681    
   2.64863706      -3.96396494     -0.246999994       223.891663      -1.04346681    
   3.37107491      -3.37107491     -0.246999994       223.891663      -1.04346681    
   3.88201594      -3.88201594     -0.157000005       223.891663      -1.04346681    
   2.10093188      -5.07209921     -0.157000005       223.904816      -1.04317892    
   1.82441294      -4.40452194     -0.246999994       223.904816      -1.04317892    
   2.64863706      -3.96396494     -0.246999994       223.904816      -1.04317892    
   3.05008101      -4.56476784     -0.157000005       223.904816      -1.04317892    
   1.07104599      -5.38451099     -0.157000005       223.935257      -1.04319310    
  0.930077016      -4.67581606     -0.246999994       223.935257      -1.04319310    
   1.82441294      -4.40452194     -0.246999994       223.935257      -1.04319310    
   2.10093188      -5.07209921     -0.157000005       223.935257      -1.04319310    
   0.00000000      -1.87709999     -0.606999993       445.858551      -1.32824993    
   0.00000000      -1.36500001     -0.606999993       445.858551      -1.32824993    
  0.266297996      -1.33877206     -0.606999993       445.858551      -1.32824993    
  0.366203994      -1.84103203     -0.606999993       445.858551      -1.32824993    
   0.00000000      -1.87709999     -0.606999993       386.007965      -1.29221058    
   0.00000000      -2.59967995     -0.517000020       386.007965      -1.29221058    
 -0.507171988      -2.54972792     -0.517000020       386.007965      -1.29221058    
 -0.366203994      -1.84103203     -0.606999993       386.007965      -1.29221058    
 -0.366203994      -1.84103203     -0.606999993       445.899750      -1.32827222    
 -0.266297996      -1.33877206     -0.606999993       445.899750      -1.32827222    
   0.00000000      -1.36500001     -0.606999993       445.899750      -1.32827222    
   0.00000000      -1.87709999     -0.606999993       445.899750      -1.32827222    
 -0.366203994      -1.84103203     -0.606999993       383.461273      -1.29032600    
 -0.507171988      -2.54972792     -0.517000020       383.461273      -1.29032600    
 -0.994853973      -2.40179110     -0.517000020       383.461273      -1.29032600    
 -0.718334973      -1.73421395     -0.606999993       383.461273      -1.29032600    
 -0.718334973      -1.73421395     -0.606999993       444.815735      -1.32767451    
 -0.522363007      -1.26109600     -0.606999993       444.815735      -1.32767451    
 -0.266297996      -1.33877206     -0.606999993       444.815735      -1.32767451    
 -0.366203994      -1.84103203     -0.606999993       444.815735      -1.32767451    
 -0.718334973      -1.73421395     -0.606999993       381.328918      -1.28873050    
 -0.994853973      -2.40179110     -0.517000020       381.328918      -1.28873050    
  -1.44430494      -2.16155505     -0.517000020       381.328918      -1.28873050    
  -1.04286098      -1.56075203     -0.606999993       381.328918      -1.28873050    
  -1.04286098      -1.56075203     -0.606999993       444.047668      -1.32725275    
 -0.758352995      -1.13495600     -0.606999993       444.047668      -1.32725275    
 -0.522363007      -1.26109600     -0.606999993       444.047668      -1.32725275    
 -0.718334973      -1.73421395     -0.606999993       444.047668      -1.32725275    
  -1.04286098      -1.56075203     -0.606999993       381.881439      -1.28915632    
  -1.44430494      -2.16155505     -0.517000020       381.881439      -1.28915632    
  -1.83825099      -1.83825099     -0.517000020       381.881439      -1.28915632    
  -1.32730997      -1.32730997     -0.606999993       381.881439      -1.28915632    
  -1.32730997      -1.32730997     -0.606999993       444.813751      -1.32768619    
 -0.965201020     -0.965201020     -0.606999993       444.813751      -1.32768619    
 -0.758352995      -1.13495600     -0.606999993       444.813751      -1.32768619    
  -1.04286098      -1.56075203     -0.606999993       444.813751      -1.32768619    
  -1.32730997      -1.32730997     -0.606999993       384.660919      -1.29124570    
  -1.83825099      -1.83825099     -0.517000020       384.660919      -1.29124570    
  -2.16155505      -1.44430494     -0.517000020       384.660919      -1.29124570    
  -1.56075203      -1.04286098     -0.606999993       384.660919      -1.29124570    
  -1.56075203      -1.04286098     -0.606999993       446.840576      -1.32881331    
  -1.13495600     -0.758352995     -0.606999993       446.840576      -1.32881331    
 -0.965201020     -0.965201020     -0.606999993       446.840576      -1.32881331    
  -1.32730997      -1.32730997     -0.606999993       446.840576      -1.32881331    
  -1.56075203      -1.04286098     -0.606999993       386.994476      -1.29297781    
  -2.16155505      -1.44430494     -0.517000020       386.994476      -1.29297781    
  -2.40179110     -0.994853973     -0.517000020       386.994476      -1.29297781    
  -1.73421395     -0.718334973     -0.606999993       386.994476      -1.29297781    
  -1.73421395     -0.718334973     -0.606999993       448.668610      -1.32982051    
  -1.26109600     -0.522363007     -0.606999993       448.668610      -1.32982051    
  -1.13495600     -0.758352995     -0.606999993       448.668610      -1.32982051    
  -1.56075203      -1.04286098     -0.606999993       448.668610      -1.32982051    
  -1.73421395     -0.718334973     -0.606999993       386.864960      -1.29289198    
  -2.40179110     -0.994853973     -0.517000020       386.864960      -1.29289198    
  -2.54972792     -0.507171988     -0.517000020       386.864960      -1.29289198    
  -1.84103203     -0.366203994     -0.606999993       386.864960      -1.29289198    
  -1.84103203     -0.366203994     -0.606999993       449.208496      -1.33012021    
  -1.33877206     -0.266297996     -0.606999993       449.208496      -1.33012021    
  -1.26109600     -0.522363007     -0.606999993       449.208496      -1.33012021    
  -1.73421395     -0.718334973     -0.606999993       449.208496      -1.33012021    
  -1.84103203     -0.366203994     -0.606999993       385.576447      -1.29195094    
  -2.54972792     -0.507171988     -0.517000020       385.576447      -1.29195094    
  -2.59967995       0.00000000     -0.517000020       385.576447      -1.29195094    
  -1.87709999       0.00000000     -0.606999993       385.576447      -1.29195094    
  -1.87709999       0.00000000     -0.606999993       448.932739      -1.32997525    
  -1.36500001       0.00000000     -0.606999993       448.932739      -1.32997525    
  -1.33877206     -0.266297996     -0.606999993       448.932739      -1.32997525    
  -1.84103203     -0.366203994     -0.606999993       448.932739      -1.32997525    
  -1.87709999       0.00000000     -0.606999993       385.727264      -1.29206741    
  -2.59967995       0.00000000     -0.517000020       385.727264      -1.29206741    
  -2.54972792      0.507171988     -0.517000020       385.727264      -1.29206741    
  -1.84103203      0.366203994     -0.606999993       385.727264      -1.29206741    
  -1.84103203      0.366203994     -0.606999993       449.020172      -1.33002722    
  -1.33877206      0.266297996     -0.606999993       449.020172      -1.33002722    
  -1.36500001       0.00000000     -0.606999993       449.020172      -1.33002722    
  -1.87709999       0.00000000     -0.606999993       449.020172      -1.33002722    
  -1.84103203      0.366203994     -0.606999993       387.714264      -1.29352951    
  -2.54972792      0.507171988     -0.517000020       387.714264      -1.29352951    
  -2.40179110      0.994853973     -0.517000020       387.714264      -1.29352951    
  -1.73421395      0.718334973     -0.606999993       387.714264      -1.29352951    
  -1.73421395      0.718334973     -0.606999993       449.691559      -1.33039582    
  -1.26109600      0.522363007     -0.606999993       449.691559      -1.33039582    
  -1.33877206      0.266297996     -0.606999993       449.691559      -1.33039582    
  -1.84103203      0.366203994     -0.606999993       449.691559      -1.33039582    
  -1.73421395      0.718334973     -0.606999993       389.132507      -1.29456449    
  -2.40179110      0.994853973     -0.517000020       389.132507      -1.29456449    
  -2.16155505       1.44430494     -0.517000020       389.132507      -1.29456449    
  -1.56075203       1.04286098     -0.606999993       389.132507      -1.29456449    
  -1.56075203       1.04286098     -0.606999993       449.896118      -1.33050966    
  -1.13495600      0.758352995     -0.606999993       449.896118      -1.33050966    
  -1.26109600      0.522363007     -0.606999993       449.896118      -1.33050966    
  -1.73421395      0.718334973     -0.606999993       449.896118      -1.33050966    
  -1.56075203       1.04286098     -0.606999993       387.799774      -1.29359770    
  -2.16155505       1.44430494     -0.517000020       387.799774      -1.29359770    
  -1.83825099       1.83825099     -0.517000020       387.799774      -1.29359770    
  -1.32730997       1.32730997     -0.606999993       387.799774      -1.29359770    
  -1.32730997       1.32730997     -0.606999993       448.787720      -1.32991135    
 -0.965201020      0.965201020     -0.606999993       448.787720      -1.32991135    
  -1.13495600      0.758352995     -0.606999993       448.787720      -1.32991135    
  -1.56075203       1.04286098     -0.606999993       448.787720      -1.32991135    
  -1.32730997       1.32730997     -0.606999993       385.029724      -1.29156303    
  -1.83825099       1.83825099     -0.517000020       385.029724      -1.29156303    
  -1.44430494       2.16155505     -0.517000020       385.029724      -1.29156303    
  -1.04286098       1.56075203     -0.606999993       385.029724      -1.29156303    
  -1.04286098       1.56075203     -0.606999993       447.018524      -1.32894671    
 -0.758352995       1.13495600     -0.606999993       447.018524      -1.32894671    
 -0.965201020      0.965201020     -0.606999993       447.018524      -1.32894671    
  -1.32730997       1.32730997     -0.606999993       447.018524      -1.32894671    
  -1.04286098       1.56075203     -0.606999993       383.862244      -1.29069829    
  -1.44430494       2.16155505     -0.517000020       383.862244      -1.29069829    
 -0.994853973       2.40179110     -0.517000020       383.862244      -1.29069829    
 -0.718334973       1.73421395     -0.606999993       383.862244      -1.29069829    
 -0.718334973       1.73421395     -0.606999993       446.064056      -1.32842505    
 -0.522363007       1.26109600     -0.606999993       446.064056      -1.32842505    
 -0.758352995       1.13495600     -0.606999993       446.064056      -1.32842505    
  -1.04286098       1.56075203     -0.606999993       446.064056      -1.32842505    
 -0.718334973       1.73421395     -0.606999993       385.366180      -1.29181647    
 -0.994853973       2.40179110     -0.517000020       385.366180      -1.29181647    
 -0.507171988       2.54972792     -0.517000020       385.366180      -1.29181647    
 -0.366203994       1.84103203     -0.606999993       385.366180      -1.29181647    
 -0.366203994       1.84103203     -0.606999993       446.492767      -1.32866395    
 -0.266297996       1.33877206     -0.606999993       446.492767      -1.32866395    
 -0.522363007       1.26109600     -0.606999993       446.492767      -1.32866395    
 -0.718334973       1.73421395     -0.606999993       446.492767      -1.32866395    
 -0.366203994       1.84103203     -0.606999993       387.558350      -1.29342878    
 -0.507171988       2.54972792     -0.517000020       387.558350      -1.29342878    
   0.00000000       2.59967995     -0.517000020       387.558350      -1.29342878    
   0.00000000       1.87709999     -0.606999993       387.558350      -1.29342878    
   0.00000000       1.87709999     -0.606999993       447.344147      -1.32913458    
   0.00000000       1.36500001     -0.606999993       447.344147      -1.32913458    
 -0.266297996       1.33877206     -0.606999993       447.344147      -1.32913458    
 -0.366203994       1.84103203     -0.606999993       447.344147      -1.32913458    
   0.00000000       1.87709999     -0.606999993       387.545593      -1.29342103    
   0.00000000       2.59967995     -0.517000020       387.545593      -1.29342103    
  0.507171988       2.54972792     -0.517000020       387.545593      -1.29342103    
  0.366203994       1.84103203     -0.606999993       387.545593      -1.29342103    
  0.366203994       1.84103203     -0.606999993       447.321564      -1.32912362    
  0.266297996       1.33877206     -0.606999993       447.321564      -1.32912362    
   0.00000000       1.36500001     -0.606999993       447.321564      -1.32912362    
   0.00000000       1.87709999     -0.606999993       447.321564      -1.32912362    
  0.366203994       1.84103203     -0.606999993       385.327454      -1.29179132    
  0.507171988       2.54972792     -0.517000020       385.327454      -1.29179132    
  0.994853973       2.40179110     -0.517000020       385.327454      -1.29179132    
  0.718334973       1.73421395     -0.606999993       385.327454      -1.29179132    
  0.718334973       1.73421395     -0.606999993       446.428192      -1.32863379    
  0.522363007       1.26109600     -0.606999993       446.428192      -1.32863379    
  0.266297996       1.33877206     -0.606999993       446.428192      -1.32863379    
  0.366203994       1.84103203     -0.606999993       446.428192      -1.32863379    
  0.718334973       1.73421395     -0.606999993       383.809265      -1.29066312    
  0.994853973       2.40179110     -0.517000020       383.809265      -1.29066312    
   1.44430494       2.16155505     -0.517000020       383.809265      -1.29066312    
   1.04286098       1.56075203     -0.606999993       383.809265      -1.29066312    
   1.04286098       1.56075203     -0.606999993       445.970062      -1.32838130    
  0.758352995       1.13495600     -0.606999993       445.970062      -1.32838130    
  0.522363007       1.26109600     -0.606999993       445.970062      -1.32838130    
  0.718334973       1.73421395     -0.606999993       445.970062      -1.32838130    
   1.04286098       1.56075203     -0.606999993       384.970825      -1.29152524    
   1.44430494       2.16155505     -0.517000020       384.970825      -1.29152524    
   1.83825099       1.83825099     -0.517000020       384.970825      -1.29152524    
   1.32730997       1.32730997     -0.606999993       384.970825      -1.29152524    
   1.32730997       1.32730997     -0.606999993       446.898712      -1.32889068    
  0.965201020      0.965201020     -0.606999993       446.898712      -1.32889068    
  0.758352995       1.13495600     -0.606999993       446.898712      -1.32889068    
   1.04286098       1.56075203     -0.606999993       446.898712      -1.32889068    
   1.32730997       1.32730997     -0.606999993       387.745483      -1.29356074    
   1.83825099       1.83825099     -0.517000020       387.745483      -1.29356074    
   2.16155505       1.44430494     -0.517000020       387.745483      -1.29356074    
   1.56075203       1.04286098     -0.606999993       387.745483      -1.29356074    
   1.56075203       1.04286098     -0.606999993       448.640411      -1.32984042    
   1.13495600      0.758352995     -0.606999993       448.640411      -1.32984042    
  0.965201020      0.965201020     -0.606999993       448.640411      -1.32984042    
   1.32730997       1.32730997     -0.606999993       448.640411      -1.32984042    
   1.56075203       1.04286098     -0.606999993       389.081207      -1.29452598    
   2.16155505       1.44430494     -0.517000020       389.081207      -1.29452598    
   2.40179110      0.994853973     -0.517000020       389.081207      -1.29452598    
   1.73421395      0.718334973     -0.606999993       389.081207      -1.29452598    
   1.73421395      0.718334973     -0.606999993       449.709351      -1.33041930    
   1.26109600      0.522363007     -0.606999993       449.709351      -1.33041930    
   1.13495600      0.758352995     -0.606999993       449.709351      -1.33041930    
   1.56075203       1.04286098     -0.606999993       449.709351      -1.33041930    
   1.73421395      0.718334973     -0.606999993       387.653137      -1.29347932    
   2.40179110      0.994853973     -0.517000020       387.653137      -1.29347932    
   2.54972792      0.507171988     -0.517000020       387.653137      -1.29347932    
   1.84103203      0.366203994     -0.606999993       387.653137      -1.29347932    
   1.84103203      0.366203994     -0.606999993       449.465790      -1.33028400    
   1.33877206      0.266297996     -0.606999993       449.465790      -1.33028400    
   1.26109600      0.522363007     -0.606999993       449.465790      -1.33028400    
   1.73421395      0.718334973     -0.606999993       449.465790      -1.33028400    
   1.84103203      0.366203994     -0.606999993       385.648163      -1.29199886    
   2.54972792      0.507171988     -0.517000020       385.648163      -1.29199886    
   2.59967995       0.00000000     -0.517000020       385.648163      -1.29199886    
   1.87709999       0.00000000     -0.606999993       385.648163      -1.29199886    
   1.87709999       0.00000000     -0.606999993       448.765594      -1.32989836    
   1.36500001       0.00000000     -0.606999993       448.765594      -1.32989836    
   1.33877206      0.266297996     -0.606999993       448.765594      -1.32989836    
   1.84103203      0.366203994     -0.606999993       448.765594      -1.32989836    
   1.87709999       0.00000000     -0.606999993       385.484070      -1.29187047    
   2.59967995       0.00000000     -0.517000020       385.484070      -1.29187047    
   2.54972792     -0.507171988     -0.517000020       385.484070      -1.29187047    
   1.84103203     -0.366203994     -0.606999993       385.484070      -1.29187047    
   1.84103203     -0.366203994     -0.606999993       448.652893      -1.32983100    
   1.33877206     -0.266297996     -0.606999993       448.652893      -1.32983100    
   1.36500001       0.00000000     -0.606999993       448.652893      -1.32983100    
   1.87709999       0.00000000     -0.606999993       448.652893      -1.32983100    
   1.84103203     -0.366203994     -0.606999993       386.763062      -1.29280281    
   2.54972792     -0.507171988     -0.517000020       386.763062      -1.29280281    
   2.40179110     -0.994853973     -0.517000020       386.763062      -1.29280281    
   1.73421395     -0.718334973     -0.606999993       386.763062      -1.29280281    
   1.73421395     -0.718334973     -0.606999993       448.910736      -1.32996452    
   1.26109600     -0.522363007     -0.606999993       448.910736      -1.32996452    
   1.33877206     -0.266297996     -0.606999993       448.910736      -1.32996452    
   1.84103203     -0.366203994     -0.606999993       448.910736      -1.32996452    
   1.73421395     -0.718334973     -0.606999993       386.880005      -1.29287994    
   2.40179110     -0.994853973     -0.517000020       386.880005      -1.29287994    
   2.16155505      -1.44430494     -0.517000020       386.880005      -1.29287994    
   1.56075203      -1.04286098     -0.606999993       386.880005      -1.29287994    
   1.56075203      -1.04286098     -0.606999993       448.371124      -1.32966220    
   1.13495600     -0.758352995     -0.606999993       448.371124      -1.32966220    
   1.26109600     -0.522363007     -0.606999993       448.371124      -1.32966220    