 VARIABLES="X" "Y" "Z" "abs(p) (Pa)" "angle(p) (rad)"
ZONE N=   2709,E =    2358, F=FEPOINT, ET=QUADRILATERAL
   0.00000000      -5.48999977     -0.157000005       413.852142      -1.54244781    
   0.00000000      -4.76741982     -0.246999994       413.852142      -1.54244781    
  0.930077016      -4.67581606     -0.246999994       413.852142      -1.54244781    
   1.07104599      -5.38451099     -0.157000005       413.852142      -1.54244781    
  -1.07104599      -5.38451099     -0.157000005       415.889801       1.59659636    
 -0.930077016      -4.67581606     -0.246999994       415.889801       1.59659636    
   0.00000000      -4.76741982     -0.246999994       415.889801       1.59659636    
   0.00000000      -5.48999977     -0.157000005       415.889801       1.59659636    
  -2.10093188      -5.07209921     -0.157000005       1249.88220       1.59988904    
  -1.82441294      -4.40452194     -0.246999994       1249.88220       1.59988904    
 -0.930077016      -4.67581606     -0.246999994       1249.88220       1.59988904    
  -1.07104599      -5.38451099     -0.157000005       1249.88220       1.59988904    
  -3.05008101      -4.56476784     -0.157000005       1999.30396       1.60358667    
  -2.64863706      -3.96396494     -0.246999994       1999.30396       1.60358667    
  -1.82441294      -4.40452194     -0.246999994       1999.30396       1.60358667    
  -2.10093188      -5.07209921     -0.157000005       1999.30396       1.60358667    
  -3.88201594      -3.88201594     -0.157000005       2701.68774       1.60476828    
  -3.37107491      -3.37107491     -0.246999994       2701.68774       1.60476828    
  -2.64863706      -3.96396494     -0.246999994       2701.68774       1.60476828    
  -3.05008101      -4.56476784     -0.157000005       2701.68774       1.60476828    
  -4.56476784      -3.05008101     -0.157000005       3354.33618       1.60317397    
  -3.96396494      -2.64863706     -0.246999994       3354.33618       1.60317397    
  -3.37107491      -3.37107491     -0.246999994       3354.33618       1.60317397    
  -3.88201594      -3.88201594     -0.157000005       3354.33618       1.60317397    
  -5.07209921      -2.10093188     -0.157000005       3764.42163       1.60260010    
  -4.40452194      -1.82441294     -0.246999994       3764.42163       1.60260010    
  -3.96396494      -2.64863706     -0.246999994       3764.42163       1.60260010    
  -4.56476784      -3.05008101     -0.157000005       3764.42163       1.60260010    
  -5.38451099      -1.07104599     -0.157000005       4071.47412       1.59993660    
  -4.67581606     -0.930077016     -0.246999994       4071.47412       1.59993660    
  -4.40452194      -1.82441294     -0.246999994       4071.47412       1.59993660    
  -5.07209921      -2.10093188     -0.157000005       4071.47412       1.59993660    
  -5.48999977       0.00000000     -0.157000005       4299.60791       1.59591556    
  -4.76741982       0.00000000     -0.246999994       4299.60791       1.59591556    
  -4.67581606     -0.930077016     -0.246999994       4299.60791       1.59591556    
  -5.38451099      -1.07104599     -0.157000005       4299.60791       1.59591556    
  -5.38451099       1.07104599     -0.157000005       4307.45166       1.59335518    
  -4.67581606      0.930077016     -0.246999994       4307.45166       1.59335518    
  -4.76741982       0.00000000     -0.246999994       4307.45166       1.59335518    
  -5.48999977       0.00000000     -0.157000005       4307.45166       1.59335518    
  -5.07209921       2.10093188     -0.157000005       4145.49316       1.59193456    
  -4.40452194       1.82441294     -0.246999994       4145.49316       1.59193456    
  -4.67581606      0.930077016     -0.246999994       4145.49316       1.59193456    
  -5.38451099       1.07104599     -0.157000005       4145.49316       1.59193456    
  -4.56476784       3.05008101     -0.157000005       3819.96655       1.59169149    
  -3.96396494       2.64863706     -0.246999994       3819.96655       1.59169149    
  -4.40452194       1.82441294     -0.246999994       3819.96655       1.59169149    
  -5.07209921       2.10093188     -0.157000005       3819.96655       1.59169149    
  -3.88201594       3.88201594     -0.157000005       3298.95020       1.59301353    
  -3.37107491       3.37107491     -0.246999994       3298.95020       1.59301353    
  -3.96396494       2.64863706     -0.246999994       3298.95020       1.59301353    
  -4.56476784       3.05008101     -0.157000005       3298.95020       1.59301353    
  -3.05008101       4.56476784     -0.157000005       2740.75977       1.59348154    
  -2.64863706       3.96396494     -0.246999994       2740.75977       1.59348154    
  -3.37107491       3.37107491     -0.246999994       2740.75977       1.59348154    
  -3.88201594       3.88201594     -0.157000005       2740.75977       1.59348154    
  -2.10093188       5.07209921     -0.157000005       2007.37866       1.59558773    
  -1.82441294       4.40452194     -0.246999994       2007.37866       1.59558773    
  -2.64863706       3.96396494     -0.246999994       2007.37866       1.59558773    
  -3.05008101       4.56476784     -0.157000005       2007.37866       1.59558773    
  -1.07104599       5.38451099     -0.157000005       1248.25806       1.59658206    
 -0.930077016       4.67581606     -0.246999994       1248.25806       1.59658206    
  -1.82441294       4.40452194     -0.246999994       1248.25806       1.59658206    
  -2.10093188       5.07209921     -0.157000005       1248.25806       1.59658206    
   0.00000000       5.48999977     -0.157000005       415.157318       1.59995317    
   0.00000000       4.76741982     -0.246999994       415.157318       1.59995317    
 -0.930077016       4.67581606     -0.246999994       415.157318       1.59995317    
  -1.07104599       5.38451099     -0.157000005       415.157318       1.59995317    
   1.07104599       5.38451099     -0.157000005       424.774445      -1.54335701    
  0.930077016       4.67581606     -0.246999994       424.774445      -1.54335701    
   0.00000000       4.76741982     -0.246999994       424.774445      -1.54335701    
   0.00000000       5.48999977     -0.157000005       424.774445      -1.54335701    
   2.10093188       5.07209921     -0.157000005       1229.71680      -1.53927648    
   1.82441294       4.40452194     -0.246999994       1229.71680      -1.53927648    
  0.930077016       4.67581606     -0.246999994       1229.71680      -1.53927648    
   1.07104599       5.38451099     -0.157000005       1229.71680      -1.53927648    
   3.05008101       4.56476784     -0.157000005       2001.31409      -1.53765357    
   2.64863706       3.96396494     -0.246999994       2001.31409      -1.53765357    
   1.82441294       4.40452194     -0.246999994       2001.31409      -1.53765357    
   2.10093188       5.07209921     -0.157000005       2001.31409      -1.53765357    
   3.88201594       3.88201594     -0.157000005       2748.21826      -1.53826833    
   3.37107491       3.37107491     -0.246999994       2748.21826      -1.53826833    
   2.64863706       3.96396494     -0.246999994       2748.21826      -1.53826833    
   3.05008101       4.56476784     -0.157000005       2748.21826      -1.53826833    
   4.56476784       3.05008101     -0.157000005       3338.53296      -1.53828931    
   3.96396494       2.64863706     -0.246999994       3338.53296      -1.53828931    
   3.37107491       3.37107491     -0.246999994       3338.53296      -1.53828931    
   3.88201594       3.88201594     -0.157000005       3338.53296      -1.53828931    
   5.07209921       2.10093188     -0.157000005       3824.14722      -1.53983653    
   4.40452194       1.82441294     -0.246999994       3824.14722      -1.53983653    
   3.96396494       2.64863706     -0.246999994       3824.14722      -1.53983653    
   4.56476784       3.05008101     -0.157000005       3824.14722      -1.53983653    
   5.38451099       1.07104599     -0.157000005       4067.48755      -1.54034543    
   4.67581606      0.930077016     -0.246999994       4067.48755      -1.54034543    
   4.40452194       1.82441294     -0.246999994       4067.48755      -1.54034543    
   5.07209921       2.10093188     -0.157000005       4067.48755      -1.54034543    
   5.48999977       0.00000000     -0.157000005       4216.20410      -1.54215682    
   4.76741982       0.00000000     -0.246999994       4216.20410      -1.54215682    
   4.67581606      0.930077016     -0.246999994       4216.20410      -1.54215682    
   5.38451099       1.07104599     -0.157000005       4216.20410      -1.54215682    
   5.38451099      -1.07104599     -0.157000005       4217.65527      -1.54384518    
   4.67581606     -0.930077016     -0.246999994       4217.65527      -1.54384518    
   4.76741982       0.00000000     -0.246999994       4217.65527      -1.54384518    
   5.48999977       0.00000000     -0.157000005       4217.65527      -1.54384518    
   5.07209921      -2.10093188     -0.157000005       4060.11255      -1.54505432    
   4.40452194      -1.82441294     -0.246999994       4060.11255      -1.54505432    
   4.67581606     -0.930077016     -0.246999994       4060.11255      -1.54505432    
   5.38451099      -1.07104599     -0.157000005       4060.11255      -1.54505432    
   4.56476784      -3.05008101     -0.157000005       3744.54272      -1.54581869    
   3.96396494      -2.64863706     -0.246999994       3744.54272      -1.54581869    
   4.40452194      -1.82441294     -0.246999994       3744.54272      -1.54581869    
   5.07209921      -2.10093188     -0.157000005       3744.54272      -1.54581869    
   3.88201594      -3.88201594     -0.157000005       3284.54785      -1.54635656    
   3.37107491      -3.37107491     -0.246999994       3284.54785      -1.54635656    
   3.96396494      -2.64863706     -0.246999994       3284.54785      -1.54635656    
   4.56476784      -3.05008101     -0.157000005       3284.54785      -1.54635656    
   3.05008101      -4.56476784     -0.157000005       2733.45557      -1.54741168    
   2.64863706      -3.96396494     -0.246999994       2733.45557      -1.54741168    
   3.37107491      -3.37107491     -0.246999994       2733.45557      -1.54741168    
   3.88201594      -3.88201594     -0.157000005       2733.45557      -1.54741168    
   2.10093188      -5.07209921     -0.157000005       2000.89673      -1.54656017    
   1.82441294      -4.40452194     -0.246999994       2000.89673      -1.54656017    
   2.64863706      -3.96396494     -0.246999994       2000.89673      -1.54656017    
   3.05008101      -4.56476784     -0.157000005       2000.89673      -1.54656017    
   1.07104599      -5.38451099     -0.157000005       1227.51868      -1.54549146    
  0.930077016      -4.67581606     -0.246999994       1227.51868      -1.54549146    
   1.82441294      -4.40452194     -0.246999994       1227.51868      -1.54549146    
   2.10093188      -5.07209921     -0.157000005       1227.51868      -1.54549146    
   0.00000000      -1.87709999     -0.606999993       403.569336      -1.56995773    
   0.00000000      -1.36500001     -0.606999993       403.569336      -1.56995773    
  0.266297996      -1.33877206     -0.606999993       403.569336      -1.56995773    
  0.366203994      -1.84103203     -0.606999993       403.569336      -1.56995773    
   0.00000000      -1.87709999     -0.606999993       391.999481       1.57942331    
   0.00000000      -2.59967995     -0.517000020       391.999481       1.57942331    
 -0.507171988      -2.54972792     -0.517000020       391.999481       1.57942331    
 -0.366203994      -1.84103203     -0.606999993       391.999481       1.57942331    
 -0.366203994      -1.84103203     -0.606999993       389.736481       1.57934427    
 -0.266297996      -1.33877206     -0.606999993       389.736481       1.57934427    
   0.00000000      -1.36500001     -0.606999993       389.736481       1.57934427    
   0.00000000      -1.87709999     -0.606999993       389.736481       1.57934427    
 -0.366203994      -1.84103203     -0.606999993       1166.60864       1.57715535    
 -0.507171988      -2.54972792     -0.517000020       1166.60864       1.57715535    
 -0.994853973      -2.40179110     -0.517000020       1166.60864       1.57715535    
 -0.718334973      -1.73421395     -0.606999993       1166.60864       1.57715535    
 -0.718334973      -1.73421395     -0.606999993       1168.51636       1.57663143    
 -0.522363007      -1.26109600     -0.606999993       1168.51636       1.57663143    
 -0.266297996      -1.33877206     -0.606999993       1168.51636       1.57663143    
 -0.366203994      -1.84103203     -0.606999993       1168.51636       1.57663143    
 -0.718334973      -1.73421395     -0.606999993       1894.98230       1.57663059    
 -0.994853973      -2.40179110     -0.517000020       1894.98230       1.57663059    
  -1.44430494      -2.16155505     -0.517000020       1894.98230       1.57663059    
  -1.04286098      -1.56075203     -0.606999993       1894.98230       1.57663059    
  -1.04286098      -1.56075203     -0.606999993       1904.57751       1.57598460    
 -0.758352995      -1.13495600     -0.606999993       1904.57751       1.57598460    
 -0.522363007      -1.26109600     -0.606999993       1904.57751       1.57598460    
 -0.718334973      -1.73421395     -0.606999993       1904.57751       1.57598460    
  -1.04286098      -1.56075203     -0.606999993       2555.90210       1.57632208    
  -1.44430494      -2.16155505     -0.517000020       2555.90210       1.57632208    
  -1.83825099      -1.83825099     -0.517000020       2555.90210       1.57632208    
  -1.32730997      -1.32730997     -0.606999993       2555.90210       1.57632208    
  -1.32730997      -1.32730997     -0.606999993       2571.97852       1.57561553    
 -0.965201020     -0.965201020     -0.606999993       2571.97852       1.57561553    
 -0.758352995      -1.13495600     -0.606999993       2571.97852       1.57561553    
  -1.04286098      -1.56075203     -0.606999993       2571.97852       1.57561553    
  -1.32730997      -1.32730997     -0.606999993       3127.49463       1.57609999    
  -1.83825099      -1.83825099     -0.517000020       3127.49463       1.57609999    
  -2.16155505      -1.44430494     -0.517000020       3127.49463       1.57609999    
  -1.56075203      -1.04286098     -0.606999993       3127.49463       1.57609999    
  -1.56075203      -1.04286098     -0.606999993       3145.59595       1.57534194    
  -1.13495600     -0.758352995     -0.606999993       3145.59595       1.57534194    
 -0.965201020     -0.965201020     -0.606999993       3145.59595       1.57534194    
  -1.32730997      -1.32730997     -0.606999993       3145.59595       1.57534194    
  -1.56075203      -1.04286098     -0.606999993       3579.84375       1.57585394    
  -2.16155505      -1.44430494     -0.517000020       3579.84375       1.57585394    
  -2.40179110     -0.994853973     -0.517000020       3579.84375       1.57585394    
  -1.73421395     -0.718334973     -0.606999993       3579.84375       1.57585394    
  -1.73421395     -0.718334973     -0.606999993       3599.45386       1.57511365    
  -1.26109600     -0.522363007     -0.606999993       3599.45386       1.57511365    
  -1.13495600     -0.758352995     -0.606999993       3599.45386       1.57511365    
  -1.56075203      -1.04286098     -0.606999993       3599.45386       1.57511365    
  -1.73421395     -0.718334973     -0.606999993       3885.74805       1.57564592    
  -2.40179110     -0.994853973     -0.517000020       3885.74805       1.57564592    
  -2.54972792     -0.507171988     -0.517000020       3885.74805       1.57564592    
  -1.84103203     -0.366203994     -0.606999993       3885.74805       1.57564592    
  -1.84103203     -0.366203994     -0.606999993       3911.49487       1.57492137    
  -1.33877206     -0.266297996     -0.606999993       3911.49487       1.57492137    
  -1.26109600     -0.522363007     -0.606999993       3911.49487       1.57492137    
  -1.73421395     -0.718334973     -0.606999993       3911.49487       1.57492137    
  -1.84103203     -0.366203994     -0.606999993       4037.15820       1.57544148    
  -2.54972792     -0.507171988     -0.517000020       4037.15820       1.57544148    
  -2.59967995       0.00000000     -0.517000020       4037.15820       1.57544148    
  -1.87709999       0.00000000     -0.606999993       4037.15820       1.57544148    
  -1.87709999       0.00000000     -0.606999993       4070.65649       1.57473874    
  -1.36500001       0.00000000     -0.606999993       4070.65649       1.57473874    
  -1.33877206     -0.266297996     -0.606999993       4070.65649       1.57473874    
  -1.84103203     -0.366203994     -0.606999993       4070.65649       1.57473874    
  -1.87709999       0.00000000     -0.606999993       4039.34741       1.57523978    
  -2.59967995       0.00000000     -0.517000020       4039.34741       1.57523978    
  -2.54972792      0.507171988     -0.517000020       4039.34741       1.57523978    
  -1.84103203      0.366203994     -0.606999993       4039.34741       1.57523978    
  -1.84103203      0.366203994     -0.606999993       4075.06934       1.57458389    
  -1.33877206      0.266297996     -0.606999993       4075.06934       1.57458389    
  -1.36500001       0.00000000     -0.606999993       4075.06934       1.57458389    
  -1.87709999       0.00000000     -0.606999993       4075.06934       1.57458389    
  -1.84103203      0.366203994     -0.606999993       3893.96021       1.57508159    
  -2.54972792      0.507171988     -0.517000020       3893.96021       1.57508159    
  -2.40179110      0.994853973     -0.517000020       3893.96021       1.57508159    
  -1.73421395      0.718334973     -0.606999993       3893.96021       1.57508159    
  -1.73421395      0.718334973     -0.606999993       3925.06885       1.57444751    
  -1.26109600      0.522363007     -0.606999993       3925.06885       1.57444751    
  -1.33877206      0.266297996     -0.606999993       3925.06885       1.57444751    
  -1.84103203      0.366203994     -0.606999993       3925.06885       1.57444751    
  -1.73421395      0.718334973     -0.606999993       3596.17700       1.57494760    
  -2.40179110      0.994853973     -0.517000020       3596.17700       1.57494760    
  -2.16155505       1.44430494     -0.517000020       3596.17700       1.57494760    
  -1.56075203       1.04286098     -0.606999993       3596.17700       1.57494760    
  -1.56075203       1.04286098     -0.606999993       3622.41699       1.57435369    
  -1.13495600      0.758352995     -0.606999993       3622.41699       1.57435369    
  -1.26109600      0.522363007     -0.606999993       3622.41699       1.57435369    
  -1.73421395      0.718334973     -0.606999993       3622.41699       1.57435369    
  -1.56075203       1.04286098     -0.606999993       3149.56885       1.57485545    
  -2.16155505       1.44430494     -0.517000020       3149.56885       1.57485545    
  -1.83825099       1.83825099     -0.517000020       3149.56885       1.57485545    
  -1.32730997       1.32730997     -0.606999993       3149.56885       1.57485545    
  -1.32730997       1.32730997     -0.606999993       3175.65308       1.57429302    
 -0.965201020      0.965201020     -0.606999993       3175.65308       1.57429302    
  -1.13495600      0.758352995     -0.606999993       3175.65308       1.57429302    
  -1.56075203       1.04286098     -0.606999993       3175.65308       1.57429302    
  -1.32730997       1.32730997     -0.606999993       2578.20947       1.57480979    
  -1.83825099       1.83825099     -0.517000020       2578.20947       1.57480979    
  -1.44430494       2.16155505     -0.517000020       2578.20947       1.57480979    
  -1.04286098       1.56075203     -0.606999993       2578.20947       1.57480979    
  -1.04286098       1.56075203     -0.606999993       2604.34277       1.57424080    
 -0.758352995       1.13495600     -0.606999993       2604.34277       1.57424080    
 -0.965201020      0.965201020     -0.606999993       2604.34277       1.57424080    
  -1.32730997       1.32730997     -0.606999993       2604.34277       1.57424080    
  -1.04286098       1.56075203     -0.606999993       1913.78955       1.57474482    
  -1.44430494       2.16155505     -0.517000020       1913.78955       1.57474482    
 -0.994853973       2.40179110     -0.517000020       1913.78955       1.57474482    
 -0.718334973       1.73421395     -0.606999993       1913.78955       1.57474482    
 -0.718334973       1.73421395     -0.606999993       1934.47314       1.57417691    
 -0.522363007       1.26109600     -0.606999993       1934.47314       1.57417691    
 -0.758352995       1.13495600     -0.606999993       1934.47314       1.57417691    
  -1.04286098       1.56075203     -0.606999993       1934.47314       1.57417691    
 -0.718334973       1.73421395     -0.606999993       1180.80029       1.57445920    
 -0.994853973       2.40179110     -0.517000020       1180.80029       1.57445920    
 -0.507171988       2.54972792     -0.517000020       1180.80029       1.57445920    
 -0.366203994       1.84103203     -0.606999993       1180.80029       1.57445920    
 -0.366203994       1.84103203     -0.606999993       1192.55200       1.57393146    
 -0.266297996       1.33877206     -0.606999993       1192.55200       1.57393146    
 -0.522363007       1.26109600     -0.606999993       1192.55200       1.57393146    
 -0.718334973       1.73421395     -0.606999993       1192.55200       1.57393146    
 -0.366203994       1.84103203     -0.606999993       401.394012       1.57238472    
 -0.507171988       2.54972792     -0.517000020       401.394012       1.57238472    
   0.00000000       2.59967995     -0.517000020       401.394012       1.57238472    
   0.00000000       1.87709999     -0.606999993       401.394012       1.57238472    
   0.00000000       1.87709999     -0.606999993       405.370178       1.57223403    
   0.00000000       1.36500001     -0.606999993       405.370178       1.57223403    
 -0.266297996       1.33877206     -0.606999993       405.370178       1.57223403    
 -0.366203994       1.84103203     -0.606999993       405.370178       1.57223403    
   0.00000000       1.87709999     -0.606999993       395.212738      -1.56228435    
   0.00000000       2.59967995     -0.517000020       395.212738      -1.56228435    
  0.507171988       2.54972792     -0.517000020       395.212738      -1.56228435    
  0.366203994       1.84103203     -0.606999993       395.212738      -1.56228435    
  0.366203994       1.84103203     -0.606999993       397.316345      -1.56364143    
  0.266297996       1.33877206     -0.606999993       397.316345      -1.56364143    
   0.00000000       1.36500001     -0.606999993       397.316345      -1.56364143    
   0.00000000       1.87709999     -0.606999993       397.316345      -1.56364143    
  0.366203994       1.84103203     -0.606999993       1174.64136      -1.56449270    
  0.507171988       2.54972792     -0.517000020       1174.64136      -1.56449270    
  0.994853973       2.40179110     -0.517000020       1174.64136      -1.56449270    
  0.718334973       1.73421395     -0.606999993       1174.64136      -1.56449270    
  0.718334973       1.73421395     -0.606999993       1184.18103      -1.56544030    
  0.522363007       1.26109600     -0.606999993       1184.18103      -1.56544030    
  0.266297996       1.33877206     -0.606999993       1184.18103      -1.56544030    
  0.366203994       1.84103203     -0.606999993       1184.18103      -1.56544030    
  0.718334973       1.73421395     -0.606999993       1907.58081      -1.56492043    
  0.994853973       2.40179110     -0.517000020       1907.58081      -1.56492043    
   1.44430494       2.16155505     -0.517000020       1907.58081      -1.56492043    
   1.04286098       1.56075203     -0.606999993       1907.58081      -1.56492043    
   1.04286098       1.56075203     -0.606999993       1926.01074      -1.56574368    
  0.758352995       1.13495600     -0.606999993       1926.01074      -1.56574368    
  0.522363007       1.26109600     -0.606999993       1926.01074      -1.56574368    
  0.718334973       1.73421395     -0.606999993       1926.01074      -1.56574368    
   1.04286098       1.56075203     -0.606999993       2571.97607      -1.56510544    
   1.44430494       2.16155505     -0.517000020       2571.97607      -1.56510544    
   1.83825099       1.83825099     -0.517000020       2571.97607      -1.56510544    
   1.32730997       1.32730997     -0.606999993       2571.97607      -1.56510544    
   1.32730997       1.32730997     -0.606999993       2595.59204      -1.56586719    
  0.965201020      0.965201020     -0.606999993       2595.59204      -1.56586719    
  0.758352995       1.13495600     -0.606999993       2595.59204      -1.56586719    
   1.04286098       1.56075203     -0.606999993       2595.59204      -1.56586719    
   1.32730997       1.32730997     -0.606999993       3143.20166      -1.56523049    
   1.83825099       1.83825099     -0.517000020       3143.20166      -1.56523049    
   2.16155505       1.44430494     -0.517000020       3143.20166      -1.56523049    
   1.56075203       1.04286098     -0.606999993       3143.20166      -1.56523049    
   1.56075203       1.04286098     -0.606999993       3166.59302      -1.56592476    
   1.13495600      0.758352995     -0.606999993       3166.59302      -1.56592476    
  0.965201020      0.965201020     -0.606999993       3166.59302      -1.56592476    
   1.32730997       1.32730997     -0.606999993       3166.59302      -1.56592476    
   1.56075203       1.04286098     -0.606999993       3589.48975      -1.56533575    
   2.16155505       1.44430494     -0.517000020       3589.48975      -1.56533575    
   2.40179110      0.994853973     -0.517000020       3589.48975      -1.56533575    
   1.73421395      0.718334973     -0.606999993       3589.48975      -1.56533575    
   1.73421395      0.718334973     -0.606999993       3612.65503      -1.56597042    
   1.26109600      0.522363007     -0.606999993       3612.65503      -1.56597042    
   1.13495600      0.758352995     -0.606999993       3612.65503      -1.56597042    
   1.56075203       1.04286098     -0.606999993       3612.65503      -1.56597042    
   1.73421395      0.718334973     -0.606999993       3887.06299      -1.56544960    
   2.40179110      0.994853973     -0.517000020       3887.06299      -1.56544960    
   2.54972792      0.507171988     -0.517000020       3887.06299      -1.56544960    
   1.84103203      0.366203994     -0.606999993       3887.06299      -1.56544960    
   1.84103203      0.366203994     -0.606999993       3914.90186      -1.56601894    
   1.33877206      0.266297996     -0.606999993       3914.90186      -1.56601894    
   1.26109600      0.522363007     -0.606999993       3914.90186      -1.56601894    
   1.73421395      0.718334973     -0.606999993       3914.90186      -1.56601894    
   1.84103203      0.366203994     -0.606999993       4032.68677      -1.56555164    
   2.54972792      0.507171988     -0.517000020       4032.68677      -1.56555164    
   2.59967995       0.00000000     -0.517000020       4032.68677      -1.56555164    
   1.87709999       0.00000000     -0.606999993       4032.68677      -1.56555164    
   1.87709999       0.00000000     -0.606999993       4065.37891      -1.56608069    
   1.36500001       0.00000000     -0.606999993       4065.37891      -1.56608069    
   1.33877206      0.266297996     -0.606999993       4065.37891      -1.56608069    
   1.84103203      0.366203994     -0.606999993       4065.37891      -1.56608069    
   1.87709999       0.00000000     -0.606999993       4031.44873      -1.56569827    
   2.59967995       0.00000000     -0.517000020       4031.44873      -1.56569827    
   2.54972792     -0.507171988     -0.517000020       4031.44873      -1.56569827    
   1.84103203     -0.366203994     -0.606999993       4031.44873      -1.56569827    
   1.84103203     -0.366203994     -0.606999993       4062.41553      -1.56616294    
   1.33877206     -0.266297996     -0.606999993       4062.41553      -1.56616294    
   1.36500001       0.00000000     -0.606999993       4062.41553      -1.56616294    
   1.87709999       0.00000000     -0.606999993       4062.41553      -1.56616294    
   1.84103203     -0.366203994     -0.606999993       3881.70972      -1.56582797    
   2.54972792     -0.507171988     -0.517000020       3881.70972      -1.56582797    
   2.40179110     -0.994853973     -0.517000020       3881.70972      -1.56582797    
   1.73421395     -0.718334973     -0.606999993       3881.70972      -1.56582797    
   1.73421395     -0.718334973     -0.606999993       3905.66870      -1.56626487    
   1.26109600     -0.522363007     -0.606999993       3905.66870      -1.56626487    
   1.33877206     -0.266297996     -0.606999993       3905.66870      -1.56626487    
   1.84103203     -0.366203994     -0.606999993       3905.66870      -1.56626487    
   1.73421395     -0.718334973     -0.606999993       3577.94531      -1.56598580    
   2.40179110     -0.994853973     -0.517000020       3577.94531      -1.56598580    
   2.16155505      -1.44430494     -0.517000020       3577.94531      -1.56598580    
   1.56075203      -1.04286098     -0.606999993       3577.94531      -1.56598580    
   1.56075203      -1.04286098     -0.606999993       3597.11084      -1.56639087    
   1.13495600     -0.758352995     -0.606999993       3597.11084      -1.56639087    
   1.26109600     -0.522363007     -0.606999993       3597.11084      -1.56639087    