 VARIABLES="X" "Y" "Z" "abs(p) (Pa)" "angle(p) (rad)"
ZONE N=   2709,E =    2358, F=FEPOINT, ET=QUADRILATERAL
   0.00000000      -5.48999977     -0.157000005       4661.44775      -1.59878135    
   0.00000000      -4.76741982     -0.246999994       4661.44775      -1.59878135    
  0.930077016      -4.67581606     -0.246999994       4661.44775      -1.59878135    
   1.07104599      -5.38451099     -0.157000005       4661.44775      -1.59878135    
  -1.07104599      -5.38451099     -0.157000005       4665.10596      -1.59878838    
 -0.930077016      -4.67581606     -0.246999994       4665.10596      -1.59878838    
   0.00000000      -4.76741982     -0.246999994       4665.10596      -1.59878838    
   0.00000000      -5.48999977     -0.157000005       4665.10596      -1.59878838    
  -2.10093188      -5.07209921     -0.157000005       4541.05908      -1.59449077    
  -1.82441294      -4.40452194     -0.246999994       4541.05908      -1.59449077    
 -0.930077016      -4.67581606     -0.246999994       4541.05908      -1.59449077    
  -1.07104599      -5.38451099     -0.157000005       4541.05908      -1.59449077    
  -3.05008101      -4.56476784     -0.157000005       4138.39844      -1.59852815    
  -2.64863706      -3.96396494     -0.246999994       4138.39844      -1.59852815    
  -1.82441294      -4.40452194     -0.246999994       4138.39844      -1.59852815    
  -2.10093188      -5.07209921     -0.157000005       4138.39844      -1.59852815    
  -3.88201594      -3.88201594     -0.157000005       3621.69702      -1.59886754    
  -3.37107491      -3.37107491     -0.246999994       3621.69702      -1.59886754    
  -2.64863706      -3.96396494     -0.246999994       3621.69702      -1.59886754    
  -3.05008101      -4.56476784     -0.157000005       3621.69702      -1.59886754    
  -4.56476784      -3.05008101     -0.157000005       3005.33008      -1.59493113    
  -3.96396494      -2.64863706     -0.246999994       3005.33008      -1.59493113    
  -3.37107491      -3.37107491     -0.246999994       3005.33008      -1.59493113    
  -3.88201594      -3.88201594     -0.157000005       3005.33008      -1.59493113    
  -5.07209921      -2.10093188     -0.157000005       2206.91895      -1.59818649    
  -4.40452194      -1.82441294     -0.246999994       2206.91895      -1.59818649    
  -3.96396494      -2.64863706     -0.246999994       2206.91895      -1.59818649    
  -4.56476784      -3.05008101     -0.157000005       2206.91895      -1.59818649    
  -5.38451099      -1.07104599     -0.157000005       1357.35388      -1.59889865    
  -4.67581606     -0.930077016     -0.246999994       1357.35388      -1.59889865    
  -4.40452194      -1.82441294     -0.246999994       1357.35388      -1.59889865    
  -5.07209921      -2.10093188     -0.157000005       1357.35388      -1.59889865    
  -5.48999977       0.00000000     -0.157000005       460.769165      -1.59712732    
  -4.76741982       0.00000000     -0.246999994       460.769165      -1.59712732    
  -4.67581606     -0.930077016     -0.246999994       460.769165      -1.59712732    
  -5.38451099      -1.07104599     -0.157000005       460.769165      -1.59712732    
  -5.38451099       1.07104599     -0.157000005       470.989166       1.54934251    
  -4.67581606      0.930077016     -0.246999994       470.989166       1.54934251    
  -4.76741982       0.00000000     -0.246999994       470.989166       1.54934251    
  -5.48999977       0.00000000     -0.157000005       470.989166       1.54934251    
  -5.07209921       2.10093188     -0.157000005       1385.82422       1.54770958    
  -4.40452194       1.82441294     -0.246999994       1385.82422       1.54770958    
  -4.67581606      0.930077016     -0.246999994       1385.82422       1.54770958    
  -5.38451099       1.07104599     -0.157000005       1385.82422       1.54770958    
  -4.56476784       3.05008101     -0.157000005       2244.49707       1.54779100    
  -3.96396494       2.64863706     -0.246999994       2244.49707       1.54779100    
  -4.40452194       1.82441294     -0.246999994       2244.49707       1.54779100    
  -5.07209921       2.10093188     -0.157000005       2244.49707       1.54779100    
  -3.88201594       3.88201594     -0.157000005       2981.23218       1.54351854    
  -3.37107491       3.37107491     -0.246999994       2981.23218       1.54351854    
  -3.96396494       2.64863706     -0.246999994       2981.23218       1.54351854    
  -4.56476784       3.05008101     -0.157000005       2981.23218       1.54351854    
  -3.05008101       4.56476784     -0.157000005       3673.95996       1.54728675    
  -2.64863706       3.96396494     -0.246999994       3673.95996       1.54728675    
  -3.37107491       3.37107491     -0.246999994       3673.95996       1.54728675    
  -3.88201594       3.88201594     -0.157000005       3673.95996       1.54728675    
  -2.10093188       5.07209921     -0.157000005       4141.79639       1.54310381    
  -1.82441294       4.40452194     -0.246999994       4141.79639       1.54310381    
  -2.64863706       3.96396494     -0.246999994       4141.79639       1.54310381    
  -3.05008101       4.56476784     -0.157000005       4141.79639       1.54310381    
  -1.07104599       5.38451099     -0.157000005       4545.05859       1.54750192    
 -0.930077016       4.67581606     -0.246999994       4545.05859       1.54750192    
  -1.82441294       4.40452194     -0.246999994       4545.05859       1.54750192    
  -2.10093188       5.07209921     -0.157000005       4545.05859       1.54750192    
   0.00000000       5.48999977     -0.157000005       4674.92578       1.54311562    
   0.00000000       4.76741982     -0.246999994       4674.92578       1.54311562    
 -0.930077016       4.67581606     -0.246999994       4674.92578       1.54311562    
  -1.07104599       5.38451099     -0.157000005       4674.92578       1.54311562    
   1.07104599       5.38451099     -0.157000005       4724.52197       1.54702115    
  0.930077016       4.67581606     -0.246999994       4724.52197       1.54702115    
   0.00000000       4.76741982     -0.246999994       4724.52197       1.54702115    
   0.00000000       5.48999977     -0.157000005       4724.52197       1.54702115    
   2.10093188       5.07209921     -0.157000005       4489.81494       1.54345822    
   1.82441294       4.40452194     -0.246999994       4489.81494       1.54345822    
  0.930077016       4.67581606     -0.246999994       4489.81494       1.54345822    
   1.07104599       5.38451099     -0.157000005       4489.81494       1.54345822    
   3.05008101       4.56476784     -0.157000005       4135.05957       1.54296184    
   2.64863706       3.96396494     -0.246999994       4135.05957       1.54296184    
   1.82441294       4.40452194     -0.246999994       4135.05957       1.54296184    
   2.10093188       5.07209921     -0.157000005       4135.05957       1.54296184    
   3.88201594       3.88201594     -0.157000005       3667.84009       1.54683673    
   3.37107491       3.37107491     -0.246999994       3667.84009       1.54683673    
   2.64863706       3.96396494     -0.246999994       3667.84009       1.54683673    
   3.05008101       4.56476784     -0.157000005       3667.84009       1.54683673    
   4.56476784       3.05008101     -0.157000005       2990.51245       1.54498625    
   3.96396494       2.64863706     -0.246999994       2990.51245       1.54498625    
   3.37107491       3.37107491     -0.246999994       2990.51245       1.54498625    
   3.88201594       3.88201594     -0.157000005       2990.51245       1.54498625    
   5.07209921       2.10093188     -0.157000005       2231.96069       1.54768693    
   4.40452194       1.82441294     -0.246999994       2231.96069       1.54768693    
   3.96396494       2.64863706     -0.246999994       2231.96069       1.54768693    
   4.56476784       3.05008101     -0.157000005       2231.96069       1.54768693    
   5.38451099       1.07104599     -0.157000005       1360.12024       1.54197228    
   4.67581606      0.930077016     -0.246999994       1360.12024       1.54197228    
   4.40452194       1.82441294     -0.246999994       1360.12024       1.54197228    
   5.07209921       2.10093188     -0.157000005       1360.12024       1.54197228    
   5.48999977       0.00000000     -0.157000005       458.814148       1.54191935    
   4.76741982       0.00000000     -0.246999994       458.814148       1.54191935    
   4.67581606      0.930077016     -0.246999994       458.814148       1.54191935    
   5.38451099       1.07104599     -0.157000005       458.814148       1.54191935    
   5.38451099      -1.07104599     -0.157000005       461.961823      -1.60140169    
   4.67581606     -0.930077016     -0.246999994       461.961823      -1.60140169    
   4.76741982       0.00000000     -0.246999994       461.961823      -1.60140169    
   5.48999977       0.00000000     -0.157000005       461.961823      -1.60140169    
   5.07209921      -2.10093188     -0.157000005       1362.27075      -1.59852207    
   4.40452194      -1.82441294     -0.246999994       1362.27075      -1.59852207    
   4.67581606     -0.930077016     -0.246999994       1362.27075      -1.59852207    
   5.38451099      -1.07104599     -0.157000005       1362.27075      -1.59852207    
   4.56476784      -3.05008101     -0.157000005       2208.96631      -1.59841704    
   3.96396494      -2.64863706     -0.246999994       2208.96631      -1.59841704    
   4.40452194      -1.82441294     -0.246999994       2208.96631      -1.59841704    
   5.07209921      -2.10093188     -0.157000005       2208.96631      -1.59841704    
   3.88201594      -3.88201594     -0.157000005       2976.27539      -1.59881663    
   3.37107491      -3.37107491     -0.246999994       2976.27539      -1.59881663    
   3.96396494      -2.64863706     -0.246999994       2976.27539      -1.59881663    
   4.56476784      -3.05008101     -0.157000005       2976.27539      -1.59881663    
   3.05008101      -4.56476784     -0.157000005       3672.89038      -1.59439230    
   2.64863706      -3.96396494     -0.246999994       3672.89038      -1.59439230    
   3.37107491      -3.37107491     -0.246999994       3672.89038      -1.59439230    
   3.88201594      -3.88201594     -0.157000005       3672.89038      -1.59439230    
   2.10093188      -5.07209921     -0.157000005       4138.15869      -1.59855270    
   1.82441294      -4.40452194     -0.246999994       4138.15869      -1.59855270    
   2.64863706      -3.96396494     -0.246999994       4138.15869      -1.59855270    
   3.05008101      -4.56476784     -0.157000005       4138.15869      -1.59855270    
   1.07104599      -5.38451099     -0.157000005       4482.25635      -1.59881580    
  0.930077016      -4.67581606     -0.246999994       4482.25635      -1.59881580    
   1.82441294      -4.40452194     -0.246999994       4482.25635      -1.59881580    
   2.10093188      -5.07209921     -0.157000005       4482.25635      -1.59881580    
   0.00000000      -1.87709999     -0.606999993       2784.97070      -1.57263958    
   0.00000000      -1.36500001     -0.606999993       2784.97070      -1.57263958    
  0.266297996      -1.33877206     -0.606999993       2784.97070      -1.57263958    
  0.366203994      -1.84103203     -0.606999993       2784.97070      -1.57263958    
   0.00000000      -1.87709999     -0.606999993       1660.87805      -1.57266927    
   0.00000000      -2.59967995     -0.517000020       1660.87805      -1.57266927    
 -0.507171988      -2.54972792     -0.517000020       1660.87805      -1.57266927    
 -0.366203994      -1.84103203     -0.606999993       1660.87805      -1.57266927    
 -0.366203994      -1.84103203     -0.606999993       2784.73657      -1.57263827    
 -0.266297996      -1.33877206     -0.606999993       2784.73657      -1.57263827    
   0.00000000      -1.36500001     -0.606999993       2784.73657      -1.57263827    
   0.00000000      -1.87709999     -0.606999993       2784.73657      -1.57263827    
 -0.366203994      -1.84103203     -0.606999993       1593.46936      -1.57266927    
 -0.507171988      -2.54972792     -0.517000020       1593.46936      -1.57266927    
 -0.994853973      -2.40179110     -0.517000020       1593.46936      -1.57266927    
 -0.718334973      -1.73421395     -0.606999993       1593.46936      -1.57266927    
 -0.718334973      -1.73421395     -0.606999993       2676.11206      -1.57265186    
 -0.522363007      -1.26109600     -0.606999993       2676.11206      -1.57265186    
 -0.266297996      -1.33877206     -0.606999993       2676.11206      -1.57265186    
 -0.366203994      -1.84103203     -0.606999993       2676.11206      -1.57265186    
 -0.718334973      -1.73421395     -0.606999993       1466.31274      -1.57268512    
 -0.994853973      -2.40179110     -0.517000020       1466.31274      -1.57268512    
  -1.44430494      -2.16155505     -0.517000020       1466.31274      -1.57268512    
  -1.04286098      -1.56075203     -0.606999993       1466.31274      -1.57268512    
  -1.04286098      -1.56075203     -0.606999993       2465.28955      -1.57265890    
 -0.758352995      -1.13495600     -0.606999993       2465.28955      -1.57265890    
 -0.522363007      -1.26109600     -0.606999993       2465.28955      -1.57265890    
 -0.718334973      -1.73421395     -0.606999993       2465.28955      -1.57265890    
  -1.04286098      -1.56075203     -0.606999993       1286.79480      -1.57271111    
  -1.44430494      -2.16155505     -0.517000020       1286.79480      -1.57271111    
  -1.83825099      -1.83825099     -0.517000020       1286.79480      -1.57271111    
  -1.32730997      -1.32730997     -0.606999993       1286.79480      -1.57271111    
  -1.32730997      -1.32730997     -0.606999993       2161.04639      -1.57266986    
 -0.965201020     -0.965201020     -0.606999993       2161.04639      -1.57266986    
 -0.758352995      -1.13495600     -0.606999993       2161.04639      -1.57266986    
  -1.04286098      -1.56075203     -0.606999993       2161.04639      -1.57266986    
  -1.32730997      -1.32730997     -0.606999993       1058.95129      -1.57271123    
  -1.83825099      -1.83825099     -0.517000020       1058.95129      -1.57271123    
  -2.16155505      -1.44430494     -0.517000020       1058.95129      -1.57271123    
  -1.56075203      -1.04286098     -0.606999993       1058.95129      -1.57271123    
  -1.56075203      -1.04286098     -0.606999993       1774.00024      -1.57267439    
  -1.13495600     -0.758352995     -0.606999993       1774.00024      -1.57267439    
 -0.965201020     -0.965201020     -0.606999993       1774.00024      -1.57267439    
  -1.32730997      -1.32730997     -0.606999993       1774.00024      -1.57267439    
  -1.56075203      -1.04286098     -0.606999993       787.816711      -1.57267475    
  -2.16155505      -1.44430494     -0.517000020       787.816711      -1.57267475    
  -2.40179110     -0.994853973     -0.517000020       787.816711      -1.57267475    
  -1.73421395     -0.718334973     -0.606999993       787.816711      -1.57267475    
  -1.73421395     -0.718334973     -0.606999993       1317.67053      -1.57267129    
  -1.26109600     -0.522363007     -0.606999993       1317.67053      -1.57267129    
  -1.13495600     -0.758352995     -0.606999993       1317.67053      -1.57267129    
  -1.56075203      -1.04286098     -0.606999993       1317.67053      -1.57267129    
  -1.73421395     -0.718334973     -0.606999993       483.913757      -1.57261145    
  -2.40179110     -0.994853973     -0.517000020       483.913757      -1.57261145    
  -2.54972792     -0.507171988     -0.517000020       483.913757      -1.57261145    
  -1.84103203     -0.366203994     -0.606999993       483.913757      -1.57261145    
  -1.84103203     -0.366203994     -0.606999993       809.379272      -1.57268345    
  -1.33877206     -0.266297996     -0.606999993       809.379272      -1.57268345    
  -1.26109600     -0.522363007     -0.606999993       809.379272      -1.57268345    
  -1.73421395     -0.718334973     -0.606999993       809.379272      -1.57268345    
  -1.84103203     -0.366203994     -0.606999993       162.138763      -1.57264853    
  -2.54972792     -0.507171988     -0.517000020       162.138763      -1.57264853    
  -2.59967995       0.00000000     -0.517000020       162.138763      -1.57264853    
  -1.87709999       0.00000000     -0.606999993       162.138763      -1.57264853    
  -1.87709999       0.00000000     -0.606999993       269.683807      -1.57293475    
  -1.36500001       0.00000000     -0.606999993       269.683807      -1.57293475    
  -1.33877206     -0.266297996     -0.606999993       269.683807      -1.57293475    
  -1.84103203     -0.366203994     -0.606999993       269.683807      -1.57293475    
  -1.87709999       0.00000000     -0.606999993       164.279922       1.56924438    
  -2.59967995       0.00000000     -0.517000020       164.279922       1.56924438    
  -2.54972792      0.507171988     -0.517000020       164.279922       1.56924438    
  -1.84103203      0.366203994     -0.606999993       164.279922       1.56924438    
  -1.84103203      0.366203994     -0.606999993       280.019623       1.56945193    
  -1.33877206      0.266297996     -0.606999993       280.019623       1.56945193    
  -1.36500001       0.00000000     -0.606999993       280.019623       1.56945193    
  -1.87709999       0.00000000     -0.606999993       280.019623       1.56945193    
  -1.84103203      0.366203994     -0.606999993       485.434296       1.56911492    
  -2.54972792      0.507171988     -0.517000020       485.434296       1.56911492    
  -2.40179110      0.994853973     -0.517000020       485.434296       1.56911492    
  -1.73421395      0.718334973     -0.606999993       485.434296       1.56911492    
  -1.73421395      0.718334973     -0.606999993       819.001709       1.56918943    
  -1.26109600      0.522363007     -0.606999993       819.001709       1.56918943    
  -1.33877206      0.266297996     -0.606999993       819.001709       1.56918943    
  -1.84103203      0.366203994     -0.606999993       819.001709       1.56918943    
  -1.73421395      0.718334973     -0.606999993       789.215759       1.56901407    
  -2.40179110      0.994853973     -0.517000020       789.215759       1.56901407    
  -2.16155505       1.44430494     -0.517000020       789.215759       1.56901407    
  -1.56075203       1.04286098     -0.606999993       789.215759       1.56901407    
  -1.56075203       1.04286098     -0.606999993       1326.42944       1.56911230    
  -1.13495600      0.758352995     -0.606999993       1326.42944       1.56911230    
  -1.26109600      0.522363007     -0.606999993       1326.42944       1.56911230    
  -1.73421395      0.718334973     -0.606999993       1326.42944       1.56911230    
  -1.56075203       1.04286098     -0.606999993       1060.79382       1.56896138    
  -2.16155505       1.44430494     -0.517000020       1060.79382       1.56896138    
  -1.83825099       1.83825099     -0.517000020       1060.79382       1.56896138    
  -1.32730997       1.32730997     -0.606999993       1060.79382       1.56896138    
  -1.32730997       1.32730997     -0.606999993       1781.86084       1.56907332    
 -0.965201020      0.965201020     -0.606999993       1781.86084       1.56907332    
  -1.13495600      0.758352995     -0.606999993       1781.86084       1.56907332    
  -1.56075203       1.04286098     -0.606999993       1781.86084       1.56907332    
  -1.32730997       1.32730997     -0.606999993       1288.90430       1.56894851    
  -1.83825099       1.83825099     -0.517000020       1288.90430       1.56894851    
  -1.44430494       2.16155505     -0.517000020       1288.90430       1.56894851    
  -1.04286098       1.56075203     -0.606999993       1288.90430       1.56894851    
  -1.04286098       1.56075203     -0.606999993       2167.73145       1.56905878    
 -0.758352995       1.13495600     -0.606999993       2167.73145       1.56905878    
 -0.965201020      0.965201020     -0.606999993       2167.73145       1.56905878    
  -1.32730997       1.32730997     -0.606999993       2167.73145       1.56905878    
  -1.04286098       1.56075203     -0.606999993       1468.27356       1.56896758    
  -1.44430494       2.16155505     -0.517000020       1468.27356       1.56896758    
 -0.994853973       2.40179110     -0.517000020       1468.27356       1.56896758    
 -0.718334973       1.73421395     -0.606999993       1468.27356       1.56896758    
 -0.718334973       1.73421395     -0.606999993       2470.79517       1.56905484    
 -0.522363007       1.26109600     -0.606999993       2470.79517       1.56905484    
 -0.758352995       1.13495600     -0.606999993       2470.79517       1.56905484    
  -1.04286098       1.56075203     -0.606999993       2470.79517       1.56905484    
 -0.718334973       1.73421395     -0.606999993       1595.07336       1.56898594    
 -0.994853973       2.40179110     -0.517000020       1595.07336       1.56898594    
 -0.507171988       2.54972792     -0.517000020       1595.07336       1.56898594    
 -0.366203994       1.84103203     -0.606999993       1595.07336       1.56898594    
 -0.366203994       1.84103203     -0.606999993       2680.47754       1.56906402    
 -0.266297996       1.33877206     -0.606999993       2680.47754       1.56906402    
 -0.522363007       1.26109600     -0.606999993       2680.47754       1.56906402    
 -0.718334973       1.73421395     -0.606999993       2680.47754       1.56906402    
 -0.366203994       1.84103203     -0.606999993       1662.24036       1.56899929    
 -0.507171988       2.54972792     -0.517000020       1662.24036       1.56899929    
   0.00000000       2.59967995     -0.517000020       1662.24036       1.56899929    
   0.00000000       1.87709999     -0.606999993       1662.24036       1.56899929    
   0.00000000       1.87709999     -0.606999993       2787.85889       1.56907654    
   0.00000000       1.36500001     -0.606999993       2787.85889       1.56907654    
 -0.266297996       1.33877206     -0.606999993       2787.85889       1.56907654    
 -0.366203994       1.84103203     -0.606999993       2787.85889       1.56907654    
   0.00000000       1.87709999     -0.606999993       1662.05359       1.56899977    
   0.00000000       2.59967995     -0.517000020       1662.05359       1.56899977    
  0.507171988       2.54972792     -0.517000020       1662.05359       1.56899977    
  0.366203994       1.84103203     -0.606999993       1662.05359       1.56899977    
  0.366203994       1.84103203     -0.606999993       2786.88330       1.56907427    
  0.266297996       1.33877206     -0.606999993       2786.88330       1.56907427    
   0.00000000       1.36500001     -0.606999993       2786.88330       1.56907427    
   0.00000000       1.87709999     -0.606999993       2786.88330       1.56907427    
  0.366203994       1.84103203     -0.606999993       1594.55615       1.56899846    
  0.507171988       2.54972792     -0.517000020       1594.55615       1.56899846    
  0.994853973       2.40179110     -0.517000020       1594.55615       1.56899846    
  0.718334973       1.73421395     -0.606999993       1594.55615       1.56899846    
  0.718334973       1.73421395     -0.606999993       2677.63281       1.56906319    
  0.522363007       1.26109600     -0.606999993       2677.63281       1.56906319    
  0.266297996       1.33877206     -0.606999993       2677.63281       1.56906319    
  0.366203994       1.84103203     -0.606999993       2677.63281       1.56906319    
  0.718334973       1.73421395     -0.606999993       1467.52856       1.56898963    
  0.994853973       2.40179110     -0.517000020       1467.52856       1.56898963    
   1.44430494       2.16155505     -0.517000020       1467.52856       1.56898963    
   1.04286098       1.56075203     -0.606999993       1467.52856       1.56898963    
   1.04286098       1.56075203     -0.606999993       2466.45435       1.56907749    
  0.758352995       1.13495600     -0.606999993       2466.45435       1.56907749    
  0.522363007       1.26109600     -0.606999993       2466.45435       1.56907749    
  0.718334973       1.73421395     -0.606999993       2466.45435       1.56907749    
   1.04286098       1.56075203     -0.606999993       1288.09473       1.56899047    
   1.44430494       2.16155505     -0.517000020       1288.09473       1.56899047    
   1.83825099       1.83825099     -0.517000020       1288.09473       1.56899047    
   1.32730997       1.32730997     -0.606999993       1288.09473       1.56899047    
   1.32730997       1.32730997     -0.606999993       2162.17334       1.56908476    
  0.965201020      0.965201020     -0.606999993       2162.17334       1.56908476    
  0.758352995       1.13495600     -0.606999993       2162.17334       1.56908476    
   1.04286098       1.56075203     -0.606999993       2162.17334       1.56908476    
   1.32730997       1.32730997     -0.606999993       1059.87183       1.56902421    
   1.83825099       1.83825099     -0.517000020       1059.87183       1.56902421    
   2.16155505       1.44430494     -0.517000020       1059.87183       1.56902421    
   1.56075203       1.04286098     -0.606999993       1059.87183       1.56902421    
   1.56075203       1.04286098     -0.606999993       1775.27039       1.56912053    
   1.13495600      0.758352995     -0.606999993       1775.27039       1.56912053    
  0.965201020      0.965201020     -0.606999993       1775.27039       1.56912053    
   1.32730997       1.32730997     -0.606999993       1775.27039       1.56912053    
   1.56075203       1.04286098     -0.606999993       788.027771       1.56911254    
   2.16155505       1.44430494     -0.517000020       788.027771       1.56911254    
   2.40179110      0.994853973     -0.517000020       788.027771       1.56911254    
   1.73421395      0.718334973     -0.606999993       788.027771       1.56911254    
   1.73421395      0.718334973     -0.606999993       1318.47913       1.56917369    
   1.26109600      0.522363007     -0.606999993       1318.47913       1.56917369    
   1.13495600      0.758352995     -0.606999993       1318.47913       1.56917369    
   1.56075203       1.04286098     -0.606999993       1318.47913       1.56917369    
   1.73421395      0.718334973     -0.606999993       483.868134       1.56924617    
   2.40179110      0.994853973     -0.517000020       483.868134       1.56924617    
   2.54972792      0.507171988     -0.517000020       483.868134       1.56924617    
   1.84103203      0.366203994     -0.606999993       483.868134       1.56924617    
   1.84103203      0.366203994     -0.606999993       809.654846       1.56928623    
   1.33877206      0.266297996     -0.606999993       809.654846       1.56928623    
   1.26109600      0.522363007     -0.606999993       809.654846       1.56928623    
   1.73421395      0.718334973     -0.606999993       809.654846       1.56928623    
   1.84103203      0.366203994     -0.606999993       162.518997       1.56965923    
   2.54972792      0.507171988     -0.517000020       162.518997       1.56965923    
   2.59967995       0.00000000     -0.517000020       162.518997       1.56965923    
   1.87709999       0.00000000     -0.606999993       162.518997       1.56965923    
   1.87709999       0.00000000     -0.606999993       269.997620       1.56975603    
   1.36500001       0.00000000     -0.606999993       269.997620       1.56975603    
   1.33877206      0.266297996     -0.606999993       269.997620       1.56975603    
   1.84103203      0.366203994     -0.606999993       269.997620       1.56975603    
   1.87709999       0.00000000     -0.606999993       163.840652      -1.57306278    
   2.59967995       0.00000000     -0.517000020       163.840652      -1.57306278    
   2.54972792     -0.507171988     -0.517000020       163.840652      -1.57306278    
   1.84103203     -0.366203994     -0.606999993       163.840652      -1.57306278    
   1.84103203     -0.366203994     -0.606999993       279.543854      -1.57317400    
   1.33877206     -0.266297996     -0.606999993       279.543854      -1.57317400    
   1.36500001       0.00000000     -0.606999993       279.543854      -1.57317400    
   1.87709999       0.00000000     -0.606999993       279.543854      -1.57317400    
   1.84103203     -0.366203994     -0.606999993       485.275482      -1.57273972    
   2.54972792     -0.507171988     -0.517000020       485.275482      -1.57273972    
   2.40179110     -0.994853973     -0.517000020       485.275482      -1.57273972    
   1.73421395     -0.718334973     -0.606999993       485.275482      -1.57273972    
   1.73421395     -0.718334973     -0.606999993       818.319641      -1.57276440    
   1.26109600     -0.522363007     -0.606999993       818.319641      -1.57276440    
   1.33877206     -0.266297996     -0.606999993       818.319641      -1.57276440    
   1.84103203     -0.366203994     -0.606999993       818.319641      -1.57276440    
   1.73421395     -0.718334973     -0.606999993       788.636902      -1.57275426    
   2.40179110     -0.994853973     -0.517000020       788.636902      -1.57275426    
   2.16155505      -1.44430494     -0.517000020       788.636902      -1.57275426    
   1.56075203      -1.04286098     -0.606999993       788.636902      -1.57275426    
   1.56075203      -1.04286098     -0.606999993       1325.14355      -1.57271302    
   1.13495600     -0.758352995     -0.606999993       1325.14355      -1.57271302    
   1.26109600     -0.522363007     -0.606999993       1325.14355      -1.57271302    