 VARIABLES="X" "Y" "Z" "abs(p) (Pa)" "angle(p) (rad)"
ZONE N=   2709,E =    2358, F=FEPOINT, ET=QUADRILATERAL
   0.00000000      -5.48999977     -0.157000005       7.86192179      -1.56240714    
   0.00000000      -4.76741982     -0.246999994       7.86192179      -1.56240714    
  0.930077016      -4.67581606     -0.246999994       7.86192179      -1.56240714    
   1.07104599      -5.38451099     -0.157000005       7.86192179      -1.56240714    
  -1.07104599      -5.38451099     -0.157000005       8.08707714       1.58073890    
 -0.930077016      -4.67581606     -0.246999994       8.08707714       1.58073890    
   0.00000000      -4.76741982     -0.246999994       8.08707714       1.58073890    
   0.00000000      -5.48999977     -0.157000005       8.08707714       1.58073890    
  -2.10093188      -5.07209921     -0.157000005       23.3314152       1.60569012    
  -1.82441294      -4.40452194     -0.246999994       23.3314152       1.60569012    
 -0.930077016      -4.67581606     -0.246999994       23.3314152       1.60569012    
  -1.07104599      -5.38451099     -0.157000005       23.3314152       1.60569012    
  -3.05008101      -4.56476784     -0.157000005       35.7063065       1.59496248    
  -2.64863706      -3.96396494     -0.246999994       35.7063065       1.59496248    
  -1.82441294      -4.40452194     -0.246999994       35.7063065       1.59496248    
  -2.10093188      -5.07209921     -0.157000005       35.7063065       1.59496248    
  -3.88201594      -3.88201594     -0.157000005       47.4807587       1.60177255    
  -3.37107491      -3.37107491     -0.246999994       47.4807587       1.60177255    
  -2.64863706      -3.96396494     -0.246999994       47.4807587       1.60177255    
  -3.05008101      -4.56476784     -0.157000005       47.4807587       1.60177255    
  -4.56476784      -3.05008101     -0.157000005       59.2061501       1.60281694    
  -3.96396494      -2.64863706     -0.246999994       59.2061501       1.60281694    
  -3.37107491      -3.37107491     -0.246999994       59.2061501       1.60281694    
  -3.88201594      -3.88201594     -0.157000005       59.2061501       1.60281694    
  -5.07209921      -2.10093188     -0.157000005       66.8611908       1.60076416    
  -4.40452194      -1.82441294     -0.246999994       66.8611908       1.60076416    
  -3.96396494      -2.64863706     -0.246999994       66.8611908       1.60076416    
  -4.56476784      -3.05008101     -0.157000005       66.8611908       1.60076416    
  -5.38451099      -1.07104599     -0.157000005       73.0704041       1.59894943    
  -4.67581606     -0.930077016     -0.246999994       73.0704041       1.59894943    
  -4.40452194      -1.82441294     -0.246999994       73.0704041       1.59894943    
  -5.07209921      -2.10093188     -0.157000005       73.0704041       1.59894943    
  -5.48999977       0.00000000     -0.157000005       76.3750534       1.60216355    
  -4.76741982       0.00000000     -0.246999994       76.3750534       1.60216355    
  -4.67581606     -0.930077016     -0.246999994       76.3750534       1.60216355    
  -5.38451099      -1.07104599     -0.157000005       76.3750534       1.60216355    
  -5.38451099       1.07104599     -0.157000005       76.6107025       1.60338569    
  -4.67581606      0.930077016     -0.246999994       76.6107025       1.60338569    
  -4.76741982       0.00000000     -0.246999994       76.6107025       1.60338569    
  -5.48999977       0.00000000     -0.157000005       76.6107025       1.60338569    
  -5.07209921       2.10093188     -0.157000005       74.8823242       1.60202801    
  -4.40452194       1.82441294     -0.246999994       74.8823242       1.60202801    
  -4.67581606      0.930077016     -0.246999994       74.8823242       1.60202801    
  -5.38451099       1.07104599     -0.157000005       74.8823242       1.60202801    
  -4.56476784       3.05008101     -0.157000005       68.7148285       1.60776269    
  -3.96396494       2.64863706     -0.246999994       68.7148285       1.60776269    
  -4.40452194       1.82441294     -0.246999994       68.7148285       1.60776269    
  -5.07209921       2.10093188     -0.157000005       68.7148285       1.60776269    
  -3.88201594       3.88201594     -0.157000005       58.9152031       1.59747982    
  -3.37107491       3.37107491     -0.246999994       58.9152031       1.59747982    
  -3.96396494       2.64863706     -0.246999994       58.9152031       1.59747982    
  -4.56476784       3.05008101     -0.157000005       58.9152031       1.59747982    
  -3.05008101       4.56476784     -0.157000005       48.5818100       1.60873771    
  -2.64863706       3.96396494     -0.246999994       48.5818100       1.60873771    
  -3.37107491       3.37107491     -0.246999994       48.5818100       1.60873771    
  -3.88201594       3.88201594     -0.157000005       48.5818100       1.60873771    
  -2.10093188       5.07209921     -0.157000005       35.5327492       1.59126163    
  -1.82441294       4.40452194     -0.246999994       35.5327492       1.59126163    
  -2.64863706       3.96396494     -0.246999994       35.5327492       1.59126163    
  -3.05008101       4.56476784     -0.157000005       35.5327492       1.59126163    
  -1.07104599       5.38451099     -0.157000005       22.9799709       1.60872221    
 -0.930077016       4.67581606     -0.246999994       22.9799709       1.60872221    
  -1.82441294       4.40452194     -0.246999994       22.9799709       1.60872221    
  -2.10093188       5.07209921     -0.157000005       22.9799709       1.60872221    
   0.00000000       5.48999977     -0.157000005       7.81378555       1.56812382    
   0.00000000       4.76741982     -0.246999994       7.81378555       1.56812382    
 -0.930077016       4.67581606     -0.246999994       7.81378555       1.56812382    
  -1.07104599       5.38451099     -0.157000005       7.81378555       1.56812382    
   1.07104599       5.38451099     -0.157000005       8.20398331      -1.56321573    
  0.930077016       4.67581606     -0.246999994       8.20398331      -1.56321573    
   0.00000000       4.76741982     -0.246999994       8.20398331      -1.56321573    
   0.00000000       5.48999977     -0.157000005       8.20398331      -1.56321573    
   2.10093188       5.07209921     -0.157000005       22.8793240      -1.53685415    
   1.82441294       4.40452194     -0.246999994       22.8793240      -1.53685415    
  0.930077016       4.67581606     -0.246999994       22.8793240      -1.53685415    
   1.07104599       5.38451099     -0.157000005       22.8793240      -1.53685415    
   3.05008101       4.56476784     -0.157000005       35.6821213      -1.54954422    
   2.64863706       3.96396494     -0.246999994       35.6821213      -1.54954422    
   1.82441294       4.40452194     -0.246999994       35.6821213      -1.54954422    
   2.10093188       5.07209921     -0.157000005       35.6821213      -1.54954422    
   3.88201594       3.88201594     -0.157000005       48.8065567      -1.53199089    
   3.37107491       3.37107491     -0.246999994       48.8065567      -1.53199089    
   2.64863706       3.96396494     -0.246999994       48.8065567      -1.53199089    
   3.05008101       4.56476784     -0.157000005       48.8065567      -1.53199089    
   4.56476784       3.05008101     -0.157000005       59.7282181      -1.54309368    
   3.96396494       2.64863706     -0.246999994       59.7282181      -1.54309368    
   3.37107491       3.37107491     -0.246999994       59.7282181      -1.54309368    
   3.88201594       3.88201594     -0.157000005       59.7282181      -1.54309368    
   5.07209921       2.10093188     -0.157000005       68.7386017      -1.53350234    
   4.40452194       1.82441294     -0.246999994       68.7386017      -1.53350234    
   3.96396494       2.64863706     -0.246999994       68.7386017      -1.53350234    
   4.56476784       3.05008101     -0.157000005       68.7386017      -1.53350234    
   5.38451099       1.07104599     -0.157000005       73.7659912      -1.54444957    
   4.67581606      0.930077016     -0.246999994       73.7659912      -1.54444957    
   4.40452194       1.82441294     -0.246999994       73.7659912      -1.54444957    
   5.07209921       2.10093188     -0.157000005       73.7659912      -1.54444957    
   5.48999977       0.00000000     -0.157000005       75.3003464      -1.54243660    
   4.76741982       0.00000000     -0.246999994       75.3003464      -1.54243660    
   4.67581606      0.930077016     -0.246999994       75.3003464      -1.54243660    
   5.38451099       1.07104599     -0.157000005       75.3003464      -1.54243660    
   5.38451099      -1.07104599     -0.157000005       75.1255951      -1.54471755    
   4.67581606     -0.930077016     -0.246999994       75.1255951      -1.54471755    
   4.76741982       0.00000000     -0.246999994       75.1255951      -1.54471755    
   5.48999977       0.00000000     -0.157000005       75.1255951      -1.54471755    
   5.07209921      -2.10093188     -0.157000005       73.0476456      -1.54216850    
   4.40452194      -1.82441294     -0.246999994       73.0476456      -1.54216850    
   4.67581606     -0.930077016     -0.246999994       73.0476456      -1.54216850    
   5.38451099      -1.07104599     -0.157000005       73.0476456      -1.54216850    
   4.56476784      -3.05008101     -0.157000005       66.7680817      -1.54115355    
   3.96396494      -2.64863706     -0.246999994       66.7680817      -1.54115355    
   4.40452194      -1.82441294     -0.246999994       66.7680817      -1.54115355    
   5.07209921      -2.10093188     -0.157000005       66.7680817      -1.54115355    
   3.88201594      -3.88201594     -0.157000005       58.1524506      -1.54210424    
   3.37107491      -3.37107491     -0.246999994       58.1524506      -1.54210424    
   3.96396494      -2.64863706     -0.246999994       58.1524506      -1.54210424    
   4.56476784      -3.05008101     -0.157000005       58.1524506      -1.54210424    
   3.05008101      -4.56476784     -0.157000005       48.1571808      -1.53609431    
   2.64863706      -3.96396494     -0.246999994       48.1571808      -1.53609431    
   3.37107491      -3.37107491     -0.246999994       48.1571808      -1.53609431    
   3.88201594      -3.88201594     -0.157000005       48.1571808      -1.53609431    
   2.10093188      -5.07209921     -0.157000005       35.4973412      -1.54743040    
   1.82441294      -4.40452194     -0.246999994       35.4973412      -1.54743040    
   2.64863706      -3.96396494     -0.246999994       35.4973412      -1.54743040    
   3.05008101      -4.56476784     -0.157000005       35.4973412      -1.54743040    
   1.07104599      -5.38451099     -0.157000005       22.7616768      -1.54377186    
  0.930077016      -4.67581606     -0.246999994       22.7616768      -1.54377186    
   1.82441294      -4.40452194     -0.246999994       22.7616768      -1.54377186    
   2.10093188      -5.07209921     -0.157000005       22.7616768      -1.54377186    
   0.00000000      -1.87709999     -0.606999993       122.867996      -1.55047536    
   0.00000000      -1.36500001     -0.606999993       122.867996      -1.55047536    
  0.266297996      -1.33877206     -0.606999993       122.867996      -1.55047536    
  0.366203994      -1.84103203     -0.606999993       122.867996      -1.55047536    
   0.00000000      -1.87709999     -0.606999993       34.5208015       1.53170931    
   0.00000000      -2.59967995     -0.517000020       34.5208015       1.53170931    
 -0.507171988      -2.54972792     -0.517000020       34.5208015       1.53170931    
 -0.366203994      -1.84103203     -0.606999993       34.5208015       1.53170931    
 -0.366203994      -1.84103203     -0.606999993       182.502838       1.55717993    
 -0.266297996      -1.33877206     -0.606999993       182.502838       1.55717993    
   0.00000000      -1.36500001     -0.606999993       182.502838       1.55717993    
   0.00000000      -1.87709999     -0.606999993       182.502838       1.55717993    
 -0.366203994      -1.84103203     -0.606999993       63.6871719       1.55332541    
 -0.507171988      -2.54972792     -0.517000020       63.6871719       1.55332541    
 -0.994853973      -2.40179110     -0.517000020       63.6871719       1.55332541    
 -0.718334973      -1.73421395     -0.606999993       63.6871719       1.55332541    
 -0.718334973      -1.73421395     -0.606999993       465.403076       1.56740117    
 -0.522363007      -1.26109600     -0.606999993       465.403076       1.56740117    
 -0.266297996      -1.33877206     -0.606999993       465.403076       1.56740117    
 -0.366203994      -1.84103203     -0.606999993       465.403076       1.56740117    
 -0.718334973      -1.73421395     -0.606999993       68.9750443       1.56303871    
 -0.994853973      -2.40179110     -0.517000020       68.9750443       1.56303871    
  -1.44430494      -2.16155505     -0.517000020       68.9750443       1.56303871    
  -1.04286098      -1.56075203     -0.606999993       68.9750443       1.56303871    
  -1.04286098      -1.56075203     -0.606999993       706.905640       1.57078159    
 -0.758352995      -1.13495600     -0.606999993       706.905640       1.57078159    
 -0.522363007      -1.26109600     -0.606999993       706.905640       1.57078159    
 -0.718334973      -1.73421395     -0.606999993       706.905640       1.57078159    
  -1.04286098      -1.56075203     -0.606999993       61.2608566       1.57257974    
  -1.44430494      -2.16155505     -0.517000020       61.2608566       1.57257974    
  -1.83825099      -1.83825099     -0.517000020       61.2608566       1.57257974    
  -1.32730997      -1.32730997     -0.606999993       61.2608566       1.57257974    
  -1.32730997      -1.32730997     -0.606999993       904.845947       1.57268763    
 -0.965201020     -0.965201020     -0.606999993       904.845947       1.57268763    
 -0.758352995      -1.13495600     -0.606999993       904.845947       1.57268763    
  -1.04286098      -1.56075203     -0.606999993       904.845947       1.57268763    
  -1.32730997      -1.32730997     -0.606999993       54.0845146       1.58066368    
  -1.83825099      -1.83825099     -0.517000020       54.0845146       1.58066368    
  -2.16155505      -1.44430494     -0.517000020       54.0845146       1.58066368    
  -1.56075203      -1.04286098     -0.606999993       54.0845146       1.58066368    
  -1.56075203      -1.04286098     -0.606999993       1066.33813       1.57360065    
  -1.13495600     -0.758352995     -0.606999993       1066.33813       1.57360065    
 -0.965201020     -0.965201020     -0.606999993       1066.33813       1.57360065    
  -1.32730997      -1.32730997     -0.606999993       1066.33813       1.57360065    
  -1.56075203      -1.04286098     -0.606999993       57.4374619       1.58102429    
  -2.16155505      -1.44430494     -0.517000020       57.4374619       1.58102429    
  -2.40179110     -0.994853973     -0.517000020       57.4374619       1.58102429    
  -1.73421395     -0.718334973     -0.606999993       57.4374619       1.58102429    
  -1.73421395     -0.718334973     -0.606999993       1199.23840       1.57362866    
  -1.26109600     -0.522363007     -0.606999993       1199.23840       1.57362866    
  -1.13495600     -0.758352995     -0.606999993       1199.23840       1.57362866    
  -1.56075203      -1.04286098     -0.606999993       1199.23840       1.57362866    
  -1.73421395     -0.718334973     -0.606999993       69.1419373       1.57472038    
  -2.40179110     -0.994853973     -0.517000020       69.1419373       1.57472038    
  -2.54972792     -0.507171988     -0.517000020       69.1419373       1.57472038    
  -1.84103203     -0.366203994     -0.606999993       69.1419373       1.57472038    
  -1.84103203     -0.366203994     -0.606999993       1302.28003       1.57296908    
  -1.33877206     -0.266297996     -0.606999993       1302.28003       1.57296908    
  -1.26109600     -0.522363007     -0.606999993       1302.28003       1.57296908    
  -1.73421395     -0.718334973     -0.606999993       1302.28003       1.57296908    
  -1.84103203     -0.366203994     -0.606999993       82.7981262       1.56666481    
  -2.54972792     -0.507171988     -0.517000020       82.7981262       1.56666481    
  -2.59967995       0.00000000     -0.517000020       82.7981262       1.56666481    
  -1.87709999       0.00000000     -0.606999993       82.7981262       1.56666481    
  -1.87709999       0.00000000     -0.606999993       1367.23682       1.57192123    
  -1.36500001       0.00000000     -0.606999993       1367.23682       1.57192123    
  -1.33877206     -0.266297996     -0.606999993       1367.23682       1.57192123    
  -1.84103203     -0.366203994     -0.606999993       1367.23682       1.57192123    
  -1.87709999       0.00000000     -0.606999993       91.5773239       1.55872083    
  -2.59967995       0.00000000     -0.517000020       91.5773239       1.55872083    
  -2.54972792      0.507171988     -0.517000020       91.5773239       1.55872083    
  -1.84103203      0.366203994     -0.606999993       91.5773239       1.55872083    
  -1.84103203      0.366203994     -0.606999993       1383.68616       1.57078969    
  -1.33877206      0.266297996     -0.606999993       1383.68616       1.57078969    
  -1.36500001       0.00000000     -0.606999993       1383.68616       1.57078969    
  -1.87709999       0.00000000     -0.606999993       1383.68616       1.57078969    
  -1.84103203      0.366203994     -0.606999993       92.0279617       1.55153537    
  -2.54972792      0.507171988     -0.517000020       92.0279617       1.55153537    
  -2.40179110      0.994853973     -0.517000020       92.0279617       1.55153537    
  -1.73421395      0.718334973     -0.606999993       92.0279617       1.55153537    
  -1.73421395      0.718334973     -0.606999993       1345.43103       1.56983614    
  -1.26109600      0.522363007     -0.606999993       1345.43103       1.56983614    
  -1.33877206      0.266297996     -0.606999993       1345.43103       1.56983614    
  -1.84103203      0.366203994     -0.606999993       1345.43103       1.56983614    
  -1.73421395      0.718334973     -0.606999993       85.3348312       1.54661655    
  -2.40179110      0.994853973     -0.517000020       85.3348312       1.54661655    
  -2.16155505       1.44430494     -0.517000020       85.3348312       1.54661655    
  -1.56075203       1.04286098     -0.606999993       85.3348312       1.54661655    
  -1.56075203       1.04286098     -0.606999993       1252.94543       1.56926751    
  -1.13495600      0.758352995     -0.606999993       1252.94543       1.56926751    
  -1.26109600      0.522363007     -0.606999993       1252.94543       1.56926751    
  -1.73421395      0.718334973     -0.606999993       1252.94543       1.56926751    
  -1.56075203       1.04286098     -0.606999993       76.7850113       1.54697394    
  -2.16155505       1.44430494     -0.517000020       76.7850113       1.54697394    
  -1.83825099       1.83825099     -0.517000020       76.7850113       1.54697394    
  -1.32730997       1.32730997     -0.606999993       76.7850113       1.54697394    
  -1.32730997       1.32730997     -0.606999993       1110.77844       1.56924534    
 -0.965201020      0.965201020     -0.606999993       1110.77844       1.56924534    
  -1.13495600      0.758352995     -0.606999993       1110.77844       1.56924534    
  -1.56075203       1.04286098     -0.606999993       1110.77844       1.56924534    
  -1.32730997       1.32730997     -0.606999993       71.5663681       1.55451953    
  -1.83825099       1.83825099     -0.517000020       71.5663681       1.55451953    
  -1.44430494       2.16155505     -0.517000020       71.5663681       1.55451953    
  -1.04286098       1.56075203     -0.606999993       71.5663681       1.55451953    
  -1.04286098       1.56075203     -0.606999993       923.845093       1.56990755    
 -0.758352995       1.13495600     -0.606999993       923.845093       1.56990755    
 -0.965201020      0.965201020     -0.606999993       923.845093       1.56990755    
  -1.32730997       1.32730997     -0.606999993       923.845093       1.56990755    
  -1.04286098       1.56075203     -0.606999993       64.1547546       1.56609201    
  -1.44430494       2.16155505     -0.517000020       64.1547546       1.56609201    
 -0.994853973       2.40179110     -0.517000020       64.1547546       1.56609201    
 -0.718334973       1.73421395     -0.606999993       64.1547546       1.56609201    
 -0.718334973       1.73421395     -0.606999993       693.150757       1.57148111    
 -0.522363007       1.26109600     -0.606999993       693.150757       1.57148111    
 -0.758352995       1.13495600     -0.606999993       693.150757       1.57148111    
  -1.04286098       1.56075203     -0.606999993       693.150757       1.57148111    
 -0.718334973       1.73421395     -0.606999993       45.3097572       1.58244228    
 -0.994853973       2.40179110     -0.517000020       45.3097572       1.58244228    
 -0.507171988       2.54972792     -0.517000020       45.3097572       1.58244228    
 -0.366203994       1.84103203     -0.606999993       45.3097572       1.58244228    
 -0.366203994       1.84103203     -0.606999993       422.512909       1.57489419    
 -0.266297996       1.33877206     -0.606999993       422.512909       1.57489419    
 -0.522363007       1.26109600     -0.606999993       422.512909       1.57489419    
 -0.718334973       1.73421395     -0.606999993       422.512909       1.57489419    
 -0.366203994       1.84103203     -0.606999993       8.35141659       1.70639539    
 -0.507171988       2.54972792     -0.517000020       8.35141659       1.70639539    
   0.00000000       2.59967995     -0.517000020       8.35141659       1.70639539    
   0.00000000       1.87709999     -0.606999993       8.35141659       1.70639539    
   0.00000000       1.87709999     -0.606999993       123.195793       1.59117639    
   0.00000000       1.36500001     -0.606999993       123.195793       1.59117639    
 -0.266297996       1.33877206     -0.606999993       123.195793       1.59117639    
 -0.366203994       1.84103203     -0.606999993       123.195793       1.59117639    
   0.00000000       1.87709999     -0.606999993       33.5446701      -1.61080098    
   0.00000000       2.59967995     -0.517000020       33.5446701      -1.61080098    
  0.507171988       2.54972792     -0.517000020       33.5446701      -1.61080098    
  0.366203994       1.84103203     -0.606999993       33.5446701      -1.61080098    
  0.366203994       1.84103203     -0.606999993       180.858566      -1.58454680    
  0.266297996       1.33877206     -0.606999993       180.858566      -1.58454680    
   0.00000000       1.36500001     -0.606999993       180.858566      -1.58454680    
   0.00000000       1.87709999     -0.606999993       180.858566      -1.58454680    
  0.366203994       1.84103203     -0.606999993       62.3794365      -1.58858120    
  0.507171988       2.54972792     -0.517000020       62.3794365      -1.58858120    
  0.994853973       2.40179110     -0.517000020       62.3794365      -1.58858120    
  0.718334973       1.73421395     -0.606999993       62.3794365      -1.58858120    
  0.718334973       1.73421395     -0.606999993       463.272949      -1.57420802    
  0.522363007       1.26109600     -0.606999993       463.272949      -1.57420802    
  0.266297996       1.33877206     -0.606999993       463.272949      -1.57420802    
  0.366203994       1.84103203     -0.606999993       463.272949      -1.57420802    
  0.718334973       1.73421395     -0.606999993       67.5993729      -1.57898223    
  0.994853973       2.40179110     -0.517000020       67.5993729      -1.57898223    
   1.44430494       2.16155505     -0.517000020       67.5993729      -1.57898223    
   1.04286098       1.56075203     -0.606999993       67.5993729      -1.57898223    
   1.04286098       1.56075203     -0.606999993       705.835815      -1.57084215    
  0.758352995       1.13495600     -0.606999993       705.835815      -1.57084215    
  0.522363007       1.26109600     -0.606999993       705.835815      -1.57084215    
  0.718334973       1.73421395     -0.606999993       705.835815      -1.57084215    
   1.04286098       1.56075203     -0.606999993       60.5768356      -1.56990135    
   1.44430494       2.16155505     -0.517000020       60.5768356      -1.56990135    
   1.83825099       1.83825099     -0.517000020       60.5768356      -1.56990135    
   1.32730997       1.32730997     -0.606999993       60.5768356      -1.56990135    
   1.32730997       1.32730997     -0.606999993       906.575806      -1.56897461    
  0.965201020      0.965201020     -0.606999993       906.575806      -1.56897461    
  0.758352995       1.13495600     -0.606999993       906.575806      -1.56897461    
   1.04286098       1.56075203     -0.606999993       906.575806      -1.56897461    
   1.32730997       1.32730997     -0.606999993       55.3698463      -1.56267166    
   1.83825099       1.83825099     -0.517000020       55.3698463      -1.56267166    
   2.16155505       1.44430494     -0.517000020       55.3698463      -1.56267166    
   1.56075203       1.04286098     -0.606999993       55.3698463      -1.56267166    
   1.56075203       1.04286098     -0.606999993       1071.60632      -1.56809103    
   1.13495600      0.758352995     -0.606999993       1071.60632      -1.56809103    
  0.965201020      0.965201020     -0.606999993       1071.60632      -1.56809103    
   1.32730997       1.32730997     -0.606999993       1071.60632      -1.56809103    
   1.56075203       1.04286098     -0.606999993       60.9368477      -1.56245291    
   2.16155505       1.44430494     -0.517000020       60.9368477      -1.56245291    
   2.40179110      0.994853973     -0.517000020       60.9368477      -1.56245291    
   1.73421395      0.718334973     -0.606999993       60.9368477      -1.56245291    
   1.73421395      0.718334973     -0.606999993       1206.61731      -1.56806183    
   1.26109600      0.522363007     -0.606999993       1206.61731      -1.56806183    
   1.13495600      0.758352995     -0.606999993       1206.61731      -1.56806183    
   1.56075203       1.04286098     -0.606999993       1206.61731      -1.56806183    
   1.73421395      0.718334973     -0.606999993       73.1093674      -1.56768572    
   2.40179110      0.994853973     -0.517000020       73.1093674      -1.56768572    
   2.54972792      0.507171988     -0.517000020       73.1093674      -1.56768572    
   1.84103203      0.366203994     -0.606999993       73.1093674      -1.56768572    
   1.84103203      0.366203994     -0.606999993       1309.07874      -1.56868720    
   1.33877206      0.266297996     -0.606999993       1309.07874      -1.56868720    
   1.26109600      0.522363007     -0.606999993       1309.07874      -1.56868720    
   1.73421395      0.718334973     -0.606999993       1309.07874      -1.56868720    
   1.84103203      0.366203994     -0.606999993       84.8006439      -1.57488143    
   2.54972792      0.507171988     -0.517000020       84.8006439      -1.57488143    
   2.59967995       0.00000000     -0.517000020       84.8006439      -1.57488143    
   1.87709999       0.00000000     -0.606999993       84.8006439      -1.57488143    
   1.87709999       0.00000000     -0.606999993       1370.77332      -1.56968701    
   1.36500001       0.00000000     -0.606999993       1370.77332      -1.56968701    
   1.33877206      0.266297996     -0.606999993       1370.77332      -1.56968701    
   1.84103203      0.366203994     -0.606999993       1370.77332      -1.56968701    
   1.87709999       0.00000000     -0.606999993       90.6807404      -1.58268249    
   2.59967995       0.00000000     -0.517000020       90.6807404      -1.58268249    
   2.54972792     -0.507171988     -0.517000020       90.6807404      -1.58268249    
   1.84103203     -0.366203994     -0.606999993       90.6807404      -1.58268249    
   1.84103203     -0.366203994     -0.606999993       1382.79565      -1.57077241    
   1.33877206     -0.266297996     -0.606999993       1382.79565      -1.57077241    
   1.36500001       0.00000000     -0.606999993       1382.79565      -1.57077241    
   1.87709999       0.00000000     -0.606999993       1382.79565      -1.57077241    
   1.84103203     -0.366203994     -0.606999993       89.2481995      -1.59001315    
   2.54972792     -0.507171988     -0.517000020       89.2481995      -1.59001315    
   2.40179110     -0.994853973     -0.517000020       89.2481995      -1.59001315    
   1.73421395     -0.718334973     -0.606999993       89.2481995      -1.59001315    
   1.73421395     -0.718334973     -0.606999993       1341.48340      -1.57169211    
   1.26109600     -0.522363007     -0.606999993       1341.48340      -1.57169211    
   1.33877206     -0.266297996     -0.606999993       1341.48340      -1.57169211    
   1.84103203     -0.366203994     -0.606999993       1341.48340      -1.57169211    
   1.73421395     -0.718334973     -0.606999993       83.0836411      -1.59465861    
   2.40179110     -0.994853973     -0.517000020       83.0836411      -1.59465861    
   2.16155505      -1.44430494     -0.517000020       83.0836411      -1.59465861    
   1.56075203      -1.04286098     -0.606999993       83.0836411      -1.59465861    
   1.56075203      -1.04286098     -0.606999993       1248.82117      -1.57224286    
   1.13495600     -0.758352995     -0.606999993       1248.82117      -1.57224286    
   1.26109600     -0.522363007     -0.606999993       1248.82117      -1.57224286    