 VARIABLES="X" "Y" "Z" "abs(p) (Pa)" "angle(p) (rad)"
ZONE N=   2709,E =    2358, F=FEPOINT, ET=QUADRILATERAL
   0.00000000      -5.48999977     -0.157000005       5227.40234      -2.49881768    
   0.00000000      -4.76741982     -0.246999994       5227.40234      -2.49881768    
  0.930077016      -4.67581606     -0.246999994       5227.40234      -2.49881768    
   1.07104599      -5.38451099     -0.157000005       5227.40234      -2.49881768    
  -1.07104599      -5.38451099     -0.157000005       4928.33545      -2.78583288    
 -0.930077016      -4.67581606     -0.246999994       4928.33545      -2.78583288    
   0.00000000      -4.76741982     -0.246999994       4928.33545      -2.78583288    
   0.00000000      -5.48999977     -0.157000005       4928.33545      -2.78583288    
  -2.10093188      -5.07209921     -0.157000005       4687.23145      -3.06998658    
  -1.82441294      -4.40452194     -0.246999994       4687.23145      -3.06998658    
 -0.930077016      -4.67581606     -0.246999994       4687.23145      -3.06998658    
  -1.07104599      -5.38451099     -0.157000005       4687.23145      -3.06998658    
  -3.05008101      -4.56476784     -0.157000005       4405.14941       2.97453189    
  -2.64863706      -3.96396494     -0.246999994       4405.14941       2.97453189    
  -1.82441294      -4.40452194     -0.246999994       4405.14941       2.97453189    
  -2.10093188      -5.07209921     -0.157000005       4405.14941       2.97453189    
  -3.88201594      -3.88201594     -0.157000005       4154.94727       2.74456263    
  -3.37107491      -3.37107491     -0.246999994       4154.94727       2.74456263    
  -2.64863706      -3.96396494     -0.246999994       4154.94727       2.74456263    
  -3.05008101      -4.56476784     -0.157000005       4154.94727       2.74456263    
  -4.56476784      -3.05008101     -0.157000005       3957.66992       2.52207375    
  -3.96396494      -2.64863706     -0.246999994       3957.66992       2.52207375    
  -3.37107491      -3.37107491     -0.246999994       3957.66992       2.52207375    
  -3.88201594      -3.88201594     -0.157000005       3957.66992       2.52207375    
  -5.07209921      -2.10093188     -0.157000005       3790.20142       2.38597441    
  -4.40452194      -1.82441294     -0.246999994       3790.20142       2.38597441    
  -3.96396494      -2.64863706     -0.246999994       3790.20142       2.38597441    
  -4.56476784      -3.05008101     -0.157000005       3790.20142       2.38597441    
  -5.38451099      -1.07104599     -0.157000005       3667.40625       2.27953839    
  -4.67581606     -0.930077016     -0.246999994       3667.40625       2.27953839    
  -4.40452194      -1.82441294     -0.246999994       3667.40625       2.27953839    
  -5.07209921      -2.10093188     -0.157000005       3667.40625       2.27953839    
  -5.48999977       0.00000000     -0.157000005       3593.12158       2.19972277    
  -4.76741982       0.00000000     -0.246999994       3593.12158       2.19972277    
  -4.67581606     -0.930077016     -0.246999994       3593.12158       2.19972277    
  -5.38451099      -1.07104599     -0.157000005       3593.12158       2.19972277    
  -5.38451099       1.07104599     -0.157000005       3588.06079       2.19811463    
  -4.67581606      0.930077016     -0.246999994       3588.06079       2.19811463    
  -4.76741982       0.00000000     -0.246999994       3588.06079       2.19811463    
  -5.48999977       0.00000000     -0.157000005       3588.06079       2.19811463    
  -5.07209921       2.10093188     -0.157000005       3645.01709       2.25820684    
  -4.40452194       1.82441294     -0.246999994       3645.01709       2.25820684    
  -4.67581606      0.930077016     -0.246999994       3645.01709       2.25820684    
  -5.38451099       1.07104599     -0.157000005       3645.01709       2.25820684    
  -4.56476784       3.05008101     -0.157000005       3762.22778       2.37482691    
  -3.96396494       2.64863706     -0.246999994       3762.22778       2.37482691    
  -4.40452194       1.82441294     -0.246999994       3762.22778       2.37482691    
  -5.07209921       2.10093188     -0.157000005       3762.22778       2.37482691    
  -3.88201594       3.88201594     -0.157000005       3935.60596       2.55672908    
  -3.37107491       3.37107491     -0.246999994       3935.60596       2.55672908    
  -3.96396494       2.64863706     -0.246999994       3935.60596       2.55672908    
  -4.56476784       3.05008101     -0.157000005       3935.60596       2.55672908    
  -3.05008101       4.56476784     -0.157000005       4165.75977       2.73932648    
  -2.64863706       3.96396494     -0.246999994       4165.75977       2.73932648    
  -3.37107491       3.37107491     -0.246999994       4165.75977       2.73932648    
  -3.88201594       3.88201594     -0.157000005       4165.75977       2.73932648    
  -2.10093188       5.07209921     -0.157000005       4400.51025       2.98297858    
  -1.82441294       4.40452194     -0.246999994       4400.51025       2.98297858    
  -2.64863706       3.96396494     -0.246999994       4400.51025       2.98297858    
  -3.05008101       4.56476784     -0.157000005       4400.51025       2.98297858    
  -1.07104599       5.38451099     -0.157000005       4690.31934      -3.06019950    
 -0.930077016       4.67581606     -0.246999994       4690.31934      -3.06019950    
  -1.82441294       4.40452194     -0.246999994       4690.31934      -3.06019950    
  -2.10093188       5.07209921     -0.157000005       4690.31934      -3.06019950    
   0.00000000       5.48999977     -0.157000005       4928.46631      -2.77874637    
   0.00000000       4.76741982     -0.246999994       4928.46631      -2.77874637    
 -0.930077016       4.67581606     -0.246999994       4928.46631      -2.77874637    
  -1.07104599       5.38451099     -0.157000005       4928.46631      -2.77874637    
   1.07104599       5.38451099     -0.157000005       5261.87891      -2.49908710    
  0.930077016       4.67581606     -0.246999994       5261.87891      -2.49908710    
   0.00000000       4.76741982     -0.246999994       5261.87891      -2.49908710    
   0.00000000       5.48999977     -0.157000005       5261.87891      -2.49908710    
   2.10093188       5.07209921     -0.157000005       5593.18262      -2.20202804    
   1.82441294       4.40452194     -0.246999994       5593.18262      -2.20202804    
  0.930077016       4.67581606     -0.246999994       5593.18262      -2.20202804    
   1.07104599       5.38451099     -0.157000005       5593.18262      -2.20202804    
   3.05008101       4.56476784     -0.157000005       6093.55322      -1.92118561    
   2.64863706       3.96396494     -0.246999994       6093.55322      -1.92118561    
   1.82441294       4.40452194     -0.246999994       6093.55322      -1.92118561    
   2.10093188       5.07209921     -0.157000005       6093.55322      -1.92118561    
   3.88201594       3.88201594     -0.157000005       6763.56836      -1.67332053    
   3.37107491       3.37107491     -0.246999994       6763.56836      -1.67332053    
   2.64863706       3.96396494     -0.246999994       6763.56836      -1.67332053    
   3.05008101       4.56476784     -0.157000005       6763.56836      -1.67332053    
   4.56476784       3.05008101     -0.157000005       7468.20068      -1.47003305    
   3.96396494       2.64863706     -0.246999994       7468.20068      -1.47003305    
   3.37107491       3.37107491     -0.246999994       7468.20068      -1.47003305    
   3.88201594       3.88201594     -0.157000005       7468.20068      -1.47003305    
   5.07209921       2.10093188     -0.157000005       8154.07422      -1.31888032    
   4.40452194       1.82441294     -0.246999994       8154.07422      -1.31888032    
   3.96396494       2.64863706     -0.246999994       8154.07422      -1.31888032    
   4.56476784       3.05008101     -0.157000005       8154.07422      -1.31888032    
   5.38451099       1.07104599     -0.157000005       8684.34277      -1.22211039    
   4.67581606      0.930077016     -0.246999994       8684.34277      -1.22211039    
   4.40452194       1.82441294     -0.246999994       8684.34277      -1.22211039    
   5.07209921       2.10093188     -0.157000005       8684.34277      -1.22211039    
   5.48999977       0.00000000     -0.157000005       8984.91504      -1.17436028    
   4.76741982       0.00000000     -0.246999994       8984.91504      -1.17436028    
   4.67581606      0.930077016     -0.246999994       8984.91504      -1.17436028    
   5.38451099       1.07104599     -0.157000005       8984.91504      -1.17436028    
   5.38451099      -1.07104599     -0.157000005       8989.88672      -1.17482436    
   4.67581606     -0.930077016     -0.246999994       8989.88672      -1.17482436    
   4.76741982       0.00000000     -0.246999994       8989.88672      -1.17482436    
   5.48999977       0.00000000     -0.157000005       8989.88672      -1.17482436    
   5.07209921      -2.10093188     -0.157000005       8695.62109      -1.22365463    
   4.40452194      -1.82441294     -0.246999994       8695.62109      -1.22365463    
   4.67581606     -0.930077016     -0.246999994       8695.62109      -1.22365463    
   5.38451099      -1.07104599     -0.157000005       8695.62109      -1.22365463    
   4.56476784      -3.05008101     -0.157000005       8156.37012      -1.32262731    
   3.96396494      -2.64863706     -0.246999994       8156.37012      -1.32262731    
   4.40452194      -1.82441294     -0.246999994       8156.37012      -1.32262731    
   5.07209921      -2.10093188     -0.157000005       8156.37012      -1.32262731    
   3.88201594      -3.88201594     -0.157000005       7472.06738      -1.47407997    
   3.37107491      -3.37107491     -0.246999994       7472.06738      -1.47407997    
   3.96396494      -2.64863706     -0.246999994       7472.06738      -1.47407997    
   4.56476784      -3.05008101     -0.157000005       7472.06738      -1.47407997    
   3.05008101      -4.56476784     -0.157000005       6787.22070      -1.67877173    
   2.64863706      -3.96396494     -0.246999994       6787.22070      -1.67877173    
   3.37107491      -3.37107491     -0.246999994       6787.22070      -1.67877173    
   3.88201594      -3.88201594     -0.157000005       6787.22070      -1.67877173    
   2.10093188      -5.07209921     -0.157000005       6117.51807      -1.92687094    
   1.82441294      -4.40452194     -0.246999994       6117.51807      -1.92687094    
   2.64863706      -3.96396494     -0.246999994       6117.51807      -1.92687094    
   3.05008101      -4.56476784     -0.157000005       6117.51807      -1.92687094    
   1.07104599      -5.38451099     -0.157000005       5606.54297      -2.20728874    
  0.930077016      -4.67581606     -0.246999994       5606.54297      -2.20728874    
   1.82441294      -4.40452194     -0.246999994       5606.54297      -2.20728874    
   2.10093188      -5.07209921     -0.157000005       5606.54297      -2.20728874    
   0.00000000      -1.87709999     -0.606999993       7175.45166      -2.89962077    
   0.00000000      -1.36500001     -0.606999993       7175.45166      -2.89962077    
  0.266297996      -1.33877206     -0.606999993       7175.45166      -2.89962077    
  0.366203994      -1.84103203     -0.606999993       7175.45166      -2.89962077    
   0.00000000      -1.87709999     -0.606999993       7353.53076      -3.05549312    
   0.00000000      -2.59967995     -0.517000020       7353.53076      -3.05549312    
 -0.507171988      -2.54972792     -0.517000020       7353.53076      -3.05549312    
 -0.366203994      -1.84103203     -0.606999993       7353.53076      -3.05549312    
 -0.366203994      -1.84103203     -0.606999993       7143.67725      -3.01338148    
 -0.266297996      -1.33877206     -0.606999993       7143.67725      -3.01338148    
   0.00000000      -1.36500001     -0.606999993       7143.67725      -3.01338148    
   0.00000000      -1.87709999     -0.606999993       7143.67725      -3.01338148    
 -0.366203994      -1.84103203     -0.606999993       7362.06152       3.07751822    
 -0.507171988      -2.54972792     -0.517000020       7362.06152       3.07751822    
 -0.994853973      -2.40179110     -0.517000020       7362.06152       3.07751822    
 -0.718334973      -1.73421395     -0.606999993       7362.06152       3.07751822    
 -0.718334973      -1.73421395     -0.606999993       7222.02783      -3.12407088    
 -0.522363007      -1.26109600     -0.606999993       7222.02783      -3.12407088    
 -0.266297996      -1.33877206     -0.606999993       7222.02783      -3.12407088    
 -0.366203994      -1.84103203     -0.606999993       7222.02783      -3.12407088    
 -0.718334973      -1.73421395     -0.606999993       7411.70947       2.93911505    
 -0.994853973      -2.40179110     -0.517000020       7411.70947       2.93911505    
  -1.44430494      -2.16155505     -0.517000020       7411.70947       2.93911505    
  -1.04286098      -1.56075203     -0.606999993       7411.70947       2.93911505    
  -1.04286098      -1.56075203     -0.606999993       7390.80859       3.05863214    
 -0.758352995      -1.13495600     -0.606999993       7390.80859       3.05863214    
 -0.522363007      -1.26109600     -0.606999993       7390.80859       3.05863214    
 -0.718334973      -1.73421395     -0.606999993       7390.80859       3.05863214    
  -1.04286098      -1.56075203     -0.606999993       7487.91992       2.81874847    
  -1.44430494      -2.16155505     -0.517000020       7487.91992       2.81874847    
  -1.83825099      -1.83825099     -0.517000020       7487.91992       2.81874847    
  -1.32730997      -1.32730997     -0.606999993       7487.91992       2.81874847    
  -1.32730997      -1.32730997     -0.606999993       7617.83887       2.97361970    
 -0.965201020     -0.965201020     -0.606999993       7617.83887       2.97361970    
 -0.758352995      -1.13495600     -0.606999993       7617.83887       2.97361970    
  -1.04286098      -1.56075203     -0.606999993       7617.83887       2.97361970    
  -1.32730997      -1.32730997     -0.606999993       7574.72510       2.72098112    
  -1.83825099      -1.83825099     -0.517000020       7574.72510       2.72098112    
  -2.16155505      -1.44430494     -0.517000020       7574.72510       2.72098112    
  -1.56075203      -1.04286098     -0.606999993       7574.72510       2.72098112    
  -1.56075203      -1.04286098     -0.606999993       7863.75732       2.90665770    
  -1.13495600     -0.758352995     -0.606999993       7863.75732       2.90665770    
 -0.965201020     -0.965201020     -0.606999993       7863.75732       2.90665770    
  -1.32730997      -1.32730997     -0.606999993       7863.75732       2.90665770    
  -1.56075203      -1.04286098     -0.606999993       7654.50928       2.64782524    
  -2.16155505      -1.44430494     -0.517000020       7654.50928       2.64782524    
  -2.40179110     -0.994853973     -0.517000020       7654.50928       2.64782524    
  -1.73421395     -0.718334973     -0.606999993       7654.50928       2.64782524    
  -1.73421395     -0.718334973     -0.606999993       8087.75439       2.85801244    
  -1.26109600     -0.522363007     -0.606999993       8087.75439       2.85801244    
  -1.13495600     -0.758352995     -0.606999993       8087.75439       2.85801244    
  -1.56075203      -1.04286098     -0.606999993       8087.75439       2.85801244    
  -1.73421395     -0.718334973     -0.606999993       7712.16650       2.59927535    
  -2.40179110     -0.994853973     -0.517000020       7712.16650       2.59927535    
  -2.54972792     -0.507171988     -0.517000020       7712.16650       2.59927535    
  -1.84103203     -0.366203994     -0.606999993       7712.16650       2.59927535    
  -1.84103203     -0.366203994     -0.606999993       8253.79590       2.82657623    
  -1.33877206     -0.266297996     -0.606999993       8253.79590       2.82657623    
  -1.26109600     -0.522363007     -0.606999993       8253.79590       2.82657623    
  -1.73421395     -0.718334973     -0.606999993       8253.79590       2.82657623    
  -1.84103203     -0.366203994     -0.606999993       7739.30225       2.57491207    
  -2.54972792     -0.507171988     -0.517000020       7739.30225       2.57491207    
  -2.59967995       0.00000000     -0.517000020       7739.30225       2.57491207    
  -1.87709999       0.00000000     -0.606999993       7739.30225       2.57491207    
  -1.87709999       0.00000000     -0.606999993       8336.25781       2.81105113    
  -1.36500001       0.00000000     -0.606999993       8336.25781       2.81105113    
  -1.33877206     -0.266297996     -0.606999993       8336.25781       2.81105113    
  -1.84103203     -0.366203994     -0.606999993       8336.25781       2.81105113    
  -1.87709999       0.00000000     -0.606999993       7733.76318       2.57469153    
  -2.59967995       0.00000000     -0.517000020       7733.76318       2.57469153    
  -2.54972792      0.507171988     -0.517000020       7733.76318       2.57469153    
  -1.84103203      0.366203994     -0.606999993       7733.76318       2.57469153    
  -1.84103203      0.366203994     -0.606999993       8322.97266       2.81072402    
  -1.33877206      0.266297996     -0.606999993       8322.97266       2.81072402    
  -1.36500001       0.00000000     -0.606999993       8322.97266       2.81072402    
  -1.87709999       0.00000000     -0.606999993       8322.97266       2.81072402    
  -1.84103203      0.366203994     -0.606999993       7696.06494       2.59872103    
  -2.54972792      0.507171988     -0.517000020       7696.06494       2.59872103    
  -2.40179110      0.994853973     -0.517000020       7696.06494       2.59872103    
  -1.73421395      0.718334973     -0.606999993       7696.06494       2.59872103    
  -1.73421395      0.718334973     -0.606999993       8215.66797       2.82569599    
  -1.26109600      0.522363007     -0.606999993       8215.66797       2.82569599    
  -1.33877206      0.266297996     -0.606999993       8215.66797       2.82569599    
  -1.84103203      0.366203994     -0.606999993       8215.66797       2.82569599    
  -1.73421395      0.718334973     -0.606999993       7629.29443       2.64715600    
  -2.40179110      0.994853973     -0.517000020       7629.29443       2.64715600    
  -2.16155505       1.44430494     -0.517000020       7629.29443       2.64715600    
  -1.56075203       1.04286098     -0.606999993       7629.29443       2.64715600    
  -1.56075203       1.04286098     -0.606999993       8029.80371       2.85686707    
  -1.13495600      0.758352995     -0.606999993       8029.80371       2.85686707    
  -1.26109600      0.522363007     -0.606999993       8029.80371       2.85686707    
  -1.73421395      0.718334973     -0.606999993       8029.80371       2.85686707    
  -1.56075203       1.04286098     -0.606999993       7542.73047       2.72037125    
  -2.16155505       1.44430494     -0.517000020       7542.73047       2.72037125    
  -1.83825099       1.83825099     -0.517000020       7542.73047       2.72037125    
  -1.32730997       1.32730997     -0.606999993       7542.73047       2.72037125    
  -1.32730997       1.32730997     -0.606999993       7793.85400       2.90563488    
 -0.965201020      0.965201020     -0.606999993       7793.85400       2.90563488    
  -1.13495600      0.758352995     -0.606999993       7793.85400       2.90563488    
  -1.56075203       1.04286098     -0.606999993       7793.85400       2.90563488    
  -1.32730997       1.32730997     -0.606999993       7452.88672       2.81838608    
  -1.83825099       1.83825099     -0.517000020       7452.88672       2.81838608    
  -1.44430494       2.16155505     -0.517000020       7452.88672       2.81838608    
  -1.04286098       1.56075203     -0.606999993       7452.88672       2.81838608    
  -1.04286098       1.56075203     -0.606999993       7546.00781       2.97311974    
 -0.758352995       1.13495600     -0.606999993       7546.00781       2.97311974    
 -0.965201020      0.965201020     -0.606999993       7546.00781       2.97311974    
  -1.32730997       1.32730997     -0.606999993       7546.00781       2.97311974    
  -1.04286098       1.56075203     -0.606999993       7379.06250       2.93921232    
  -1.44430494       2.16155505     -0.517000020       7379.06250       2.93921232    
 -0.994853973       2.40179110     -0.517000020       7379.06250       2.93921232    
 -0.718334973       1.73421395     -0.606999993       7379.06250       2.93921232    
 -0.718334973       1.73421395     -0.606999993       7328.33496       3.05890894    
 -0.522363007       1.26109600     -0.606999993       7328.33496       3.05890894    
 -0.758352995       1.13495600     -0.606999993       7328.33496       3.05890894    
  -1.04286098       1.56075203     -0.606999993       7328.33496       3.05890894    
 -0.718334973       1.73421395     -0.606999993       7337.40967       3.07809925    
 -0.994853973       2.40179110     -0.517000020       7337.40967       3.07809925    
 -0.507171988       2.54972792     -0.517000020       7337.40967       3.07809925    
 -0.366203994       1.84103203     -0.606999993       7337.40967       3.07809925    
 -0.366203994       1.84103203     -0.606999993       7179.23242      -3.12316394    
 -0.266297996       1.33877206     -0.606999993       7179.23242      -3.12316394    
 -0.522363007       1.26109600     -0.606999993       7179.23242      -3.12316394    
 -0.718334973       1.73421395     -0.606999993       7179.23242      -3.12316394    
 -0.366203994       1.84103203     -0.606999993       7340.73242      -3.05473065    
 -0.507171988       2.54972792     -0.517000020       7340.73242      -3.05473065    
   0.00000000       2.59967995     -0.517000020       7340.73242      -3.05473065    
   0.00000000       1.87709999     -0.606999993       7340.73242      -3.05473065    
   0.00000000       1.87709999     -0.606999993       7127.75879      -3.01240420    
   0.00000000       1.36500001     -0.606999993       7127.75879      -3.01240420    
 -0.266297996       1.33877206     -0.606999993       7127.75879      -3.01240420    
 -0.366203994       1.84103203     -0.606999993       7127.75879      -3.01240420    
   0.00000000       1.87709999     -0.606999993       7399.84131      -2.90000415    
   0.00000000       2.59967995     -0.517000020       7399.84131      -2.90000415    
  0.507171988       2.54972792     -0.517000020       7399.84131      -2.90000415    
  0.366203994       1.84103203     -0.606999993       7399.84131      -2.90000415    
  0.366203994       1.84103203     -0.606999993       7188.16016      -2.89945674    
  0.266297996       1.33877206     -0.606999993       7188.16016      -2.89945674    
   0.00000000       1.36500001     -0.606999993       7188.16016      -2.89945674    
   0.00000000       1.87709999     -0.606999993       7188.16016      -2.89945674    
  0.366203994       1.84103203     -0.606999993       7517.97412      -2.74834967    
  0.507171988       2.54972792     -0.517000020       7517.97412      -2.74834967    
  0.994853973       2.40179110     -0.517000020       7517.97412      -2.74834967    
  0.718334973       1.73421395     -0.606999993       7517.97412      -2.74834967    
  0.718334973       1.73421395     -0.606999993       7355.58350      -2.79202151    
  0.522363007       1.26109600     -0.606999993       7355.58350      -2.79202151    
  0.266297996       1.33877206     -0.606999993       7355.58350      -2.79202151    
  0.366203994       1.84103203     -0.606999993       7355.58350      -2.79202151    
  0.718334973       1.73421395     -0.606999993       7685.11621      -2.60727334    
  0.994853973       2.40179110     -0.517000020       7685.11621      -2.60727334    
   1.44430494       2.16155505     -0.517000020       7685.11621      -2.60727334    
   1.04286098       1.56075203     -0.606999993       7685.11621      -2.60727334    
   1.04286098       1.56075203     -0.606999993       7605.74268      -2.69644332    
  0.758352995       1.13495600     -0.606999993       7605.74268      -2.69644332    
  0.522363007       1.26109600     -0.606999993       7605.74268      -2.69644332    
  0.718334973       1.73421395     -0.606999993       7605.74268      -2.69644332    
   1.04286098       1.56075203     -0.606999993       7877.66455      -2.48349380    
   1.44430494       2.16155505     -0.517000020       7877.66455      -2.48349380    
   1.83825099       1.83825099     -0.517000020       7877.66455      -2.48349380    
   1.32730997       1.32730997     -0.606999993       7877.66455      -2.48349380    
   1.32730997       1.32730997     -0.606999993       7899.92725      -2.61672187    
  0.965201020      0.965201020     -0.606999993       7899.92725      -2.61672187    
  0.758352995       1.13495600     -0.606999993       7899.92725      -2.61672187    
   1.04286098       1.56075203     -0.606999993       7899.92725      -2.61672187    
   1.32730997       1.32730997     -0.606999993       8067.40332      -2.38167119    
   1.83825099       1.83825099     -0.517000020       8067.40332      -2.38167119    
   2.16155505       1.44430494     -0.517000020       8067.40332      -2.38167119    
   1.56075203       1.04286098     -0.606999993       8067.40332      -2.38167119    
   1.56075203       1.04286098     -0.606999993       8194.52637      -2.55431437    
   1.13495600      0.758352995     -0.606999993       8194.52637      -2.55431437    
  0.965201020      0.965201020     -0.606999993       8194.52637      -2.55431437    
   1.32730997       1.32730997     -0.606999993       8194.52637      -2.55431437    
   1.56075203       1.04286098     -0.606999993       8229.04004      -2.30418134    
   2.16155505       1.44430494     -0.517000020       8229.04004      -2.30418134    
   2.40179110      0.994853973     -0.517000020       8229.04004      -2.30418134    
   1.73421395      0.718334973     -0.606999993       8229.04004      -2.30418134    
   1.73421395      0.718334973     -0.606999993       8448.91699      -2.50883865    
   1.26109600      0.522363007     -0.606999993       8448.91699      -2.50883865    
   1.13495600      0.758352995     -0.606999993       8448.91699      -2.50883865    
   1.56075203       1.04286098     -0.606999993       8448.91699      -2.50883865    
   1.73421395      0.718334973     -0.606999993       8344.75293      -2.25193548    
   2.40179110      0.994853973     -0.517000020       8344.75293      -2.25193548    
   2.54972792      0.507171988     -0.517000020       8344.75293      -2.25193548    
   1.84103203      0.366203994     -0.606999993       8344.75293      -2.25193548    
   1.84103203      0.366203994     -0.606999993       8631.70996      -2.47911119    
   1.33877206      0.266297996     -0.606999993       8631.70996      -2.47911119    
   1.26109600      0.522363007     -0.606999993       8631.70996      -2.47911119    
   1.73421395      0.718334973     -0.606999993       8631.70996      -2.47911119    
   1.84103203      0.366203994     -0.606999993       8403.27539      -2.22536612    
   2.54972792      0.507171988     -0.517000020       8403.27539      -2.22536612    
   2.59967995       0.00000000     -0.517000020       8403.27539      -2.22536612    
   1.87709999       0.00000000     -0.606999993       8403.27539      -2.22536612    
   1.87709999       0.00000000     -0.606999993       8721.99609      -2.46402550    
   1.36500001       0.00000000     -0.606999993       8721.99609      -2.46402550    
   1.33877206      0.266297996     -0.606999993       8721.99609      -2.46402550    
   1.84103203      0.366203994     -0.606999993       8721.99609      -2.46402550    
   1.87709999       0.00000000     -0.606999993       8399.59863      -2.22479463    
   2.59967995       0.00000000     -0.517000020       8399.59863      -2.22479463    
   2.54972792     -0.507171988     -0.517000020       8399.59863      -2.22479463    
   1.84103203     -0.366203994     -0.606999993       8399.59863      -2.22479463    
   1.84103203     -0.366203994     -0.606999993       8710.09180      -2.46304369    
   1.33877206     -0.266297996     -0.606999993       8710.09180      -2.46304369    
   1.36500001       0.00000000     -0.606999993       8710.09180      -2.46304369    
   1.87709999       0.00000000     -0.606999993       8710.09180      -2.46304369    
   1.84103203     -0.366203994     -0.606999993       8334.17578      -2.25033236    
   2.54972792     -0.507171988     -0.517000020       8334.17578      -2.25033236    
   2.40179110     -0.994853973     -0.517000020       8334.17578      -2.25033236    
   1.73421395     -0.718334973     -0.606999993       8334.17578      -2.25033236    
   1.73421395     -0.718334973     -0.606999993       8597.61621      -2.47634959    
   1.26109600     -0.522363007     -0.606999993       8597.61621      -2.47634959    
   1.33877206     -0.266297996     -0.606999993       8597.61621      -2.47634959    
   1.84103203     -0.366203994     -0.606999993       8597.61621      -2.47634959    
   1.73421395     -0.718334973     -0.606999993       8212.86816      -2.30189872    
   2.40179110     -0.994853973     -0.517000020       8212.86816      -2.30189872    
   2.16155505      -1.44430494     -0.517000020       8212.86816      -2.30189872    
   1.56075203      -1.04286098     -0.606999993       8212.86816      -2.30189872    
   1.56075203      -1.04286098     -0.606999993       8397.14551      -2.50480342    
   1.13495600     -0.758352995     -0.606999993       8397.14551      -2.50480342    
   1.26109600     -0.522363007     -0.606999993       8397.14551      -2.50480342    