 VARIABLES="X" "Y" "Z" "abs(p) (Pa)" "angle(p) (rad)"
ZONE N=   2709,E =    2358, F=FEPOINT, ET=QUADRILATERAL
   0.00000000      -5.48999977     -0.157000005       239.860825      -1.55896938    
   0.00000000      -4.76741982     -0.246999994       239.860825      -1.55896938    
  0.930077016      -4.67581606     -0.246999994       239.860825      -1.55896938    
   1.07104599      -5.38451099     -0.157000005       239.860825      -1.55896938    
  -1.07104599      -5.38451099     -0.157000005       250.769363       1.58749902    
 -0.930077016      -4.67581606     -0.246999994       250.769363       1.58749902    
   0.00000000      -4.76741982     -0.246999994       250.769363       1.58749902    
   0.00000000      -5.48999977     -0.157000005       250.769363       1.58749902    
  -2.10093188      -5.07209921     -0.157000005       736.634705       1.58579612    
  -1.82441294      -4.40452194     -0.246999994       736.634705       1.58579612    
 -0.930077016      -4.67581606     -0.246999994       736.634705       1.58579612    
  -1.07104599      -5.38451099     -0.157000005       736.634705       1.58579612    
  -3.05008101      -4.56476784     -0.157000005       1183.12378       1.58560646    
  -2.64863706      -3.96396494     -0.246999994       1183.12378       1.58560646    
  -1.82441294      -4.40452194     -0.246999994       1183.12378       1.58560646    
  -2.10093188      -5.07209921     -0.157000005       1183.12378       1.58560646    
  -3.88201594      -3.88201594     -0.157000005       1591.58887       1.58544838    
  -3.37107491      -3.37107491     -0.246999994       1591.58887       1.58544838    
  -2.64863706      -3.96396494     -0.246999994       1591.58887       1.58544838    
  -3.05008101      -4.56476784     -0.157000005       1591.58887       1.58544838    
  -4.56476784      -3.05008101     -0.157000005       1954.12561       1.58522737    
  -3.96396494      -2.64863706     -0.246999994       1954.12561       1.58522737    
  -3.37107491      -3.37107491     -0.246999994       1954.12561       1.58522737    
  -3.88201594      -3.88201594     -0.157000005       1954.12561       1.58522737    
  -5.07209921      -2.10093188     -0.157000005       2210.42505       1.58533514    
  -4.40452194      -1.82441294     -0.246999994       2210.42505       1.58533514    
  -3.96396494      -2.64863706     -0.246999994       2210.42505       1.58533514    
  -4.56476784      -3.05008101     -0.157000005       2210.42505       1.58533514    
  -5.38451099      -1.07104599     -0.157000005       2396.12231       1.58532512    
  -4.67581606     -0.930077016     -0.246999994       2396.12231       1.58532512    
  -4.40452194      -1.82441294     -0.246999994       2396.12231       1.58532512    
  -5.07209921      -2.10093188     -0.157000005       2396.12231       1.58532512    
  -5.48999977       0.00000000     -0.157000005       2510.57593       1.58517349    
  -4.76741982       0.00000000     -0.246999994       2510.57593       1.58517349    
  -4.67581606     -0.930077016     -0.246999994       2510.57593       1.58517349    
  -5.38451099      -1.07104599     -0.157000005       2510.57593       1.58517349    
  -5.38451099       1.07104599     -0.157000005       2513.09741       1.58514798    
  -4.67581606      0.930077016     -0.246999994       2513.09741       1.58514798    
  -4.76741982       0.00000000     -0.246999994       2513.09741       1.58514798    
  -5.48999977       0.00000000     -0.157000005       2513.09741       1.58514798    
  -5.07209921       2.10093188     -0.157000005       2416.07520       1.58515263    
  -4.40452194       1.82441294     -0.246999994       2416.07520       1.58515263    
  -4.67581606      0.930077016     -0.246999994       2416.07520       1.58515263    
  -5.38451099       1.07104599     -0.157000005       2416.07520       1.58515263    
  -4.56476784       3.05008101     -0.157000005       2223.69092       1.58518255    
  -3.96396494       2.64863706     -0.246999994       2223.69092       1.58518255    
  -4.40452194       1.82441294     -0.246999994       2223.69092       1.58518255    
  -5.07209921       2.10093188     -0.157000005       2223.69092       1.58518255    
  -3.88201594       3.88201594     -0.157000005       1933.93652       1.58533871    
  -3.37107491       3.37107491     -0.246999994       1933.93652       1.58533871    
  -3.96396494       2.64863706     -0.246999994       1933.93652       1.58533871    
  -4.56476784       3.05008101     -0.157000005       1933.93652       1.58533871    
  -3.05008101       4.56476784     -0.157000005       1594.80249       1.58529317    
  -2.64863706       3.96396494     -0.246999994       1594.80249       1.58529317    
  -3.37107491       3.37107491     -0.246999994       1594.80249       1.58529317    
  -3.88201594       3.88201594     -0.157000005       1594.80249       1.58529317    
  -2.10093188       5.07209921     -0.157000005       1177.50061       1.58550346    
  -1.82441294       4.40452194     -0.246999994       1177.50061       1.58550346    
  -2.64863706       3.96396494     -0.246999994       1177.50061       1.58550346    
  -3.05008101       4.56476784     -0.157000005       1177.50061       1.58550346    
  -1.07104599       5.38451099     -0.157000005       727.924072       1.58567178    
 -0.930077016       4.67581606     -0.246999994       727.924072       1.58567178    
  -1.82441294       4.40452194     -0.246999994       727.924072       1.58567178    
  -2.10093188       5.07209921     -0.157000005       727.924072       1.58567178    
   0.00000000       5.48999977     -0.157000005       242.357224       1.58712316    
   0.00000000       4.76741982     -0.246999994       242.357224       1.58712316    
 -0.930077016       4.67581606     -0.246999994       242.357224       1.58712316    
  -1.07104599       5.38451099     -0.157000005       242.357224       1.58712316    
   1.07104599       5.38451099     -0.157000005       251.200867      -1.55861318    
  0.930077016       4.67581606     -0.246999994       251.200867      -1.55861318    
   0.00000000       4.76741982     -0.246999994       251.200867      -1.55861318    
   0.00000000       5.48999977     -0.157000005       251.200867      -1.55861318    
   2.10093188       5.07209921     -0.157000005       729.977783      -1.55717373    
   1.82441294       4.40452194     -0.246999994       729.977783      -1.55717373    
  0.930077016       4.67581606     -0.246999994       729.977783      -1.55717373    
   1.07104599       5.38451099     -0.157000005       729.977783      -1.55717373    
   3.05008101       4.56476784     -0.157000005       1183.63708      -1.55694091    
   2.64863706       3.96396494     -0.246999994       1183.63708      -1.55694091    
   1.82441294       4.40452194     -0.246999994       1183.63708      -1.55694091    
   2.10093188       5.07209921     -0.157000005       1183.63708      -1.55694091    
   3.88201594       3.88201594     -0.157000005       1604.72107      -1.55698419    
   3.37107491       3.37107491     -0.246999994       1604.72107      -1.55698419    
   2.64863706       3.96396494     -0.246999994       1604.72107      -1.55698419    
   3.05008101       4.56476784     -0.157000005       1604.72107      -1.55698419    
   4.56476784       3.05008101     -0.157000005       1951.95618      -1.55690992    
   3.96396494       2.64863706     -0.246999994       1951.95618      -1.55690992    
   3.37107491       3.37107491     -0.246999994       1951.95618      -1.55690992    
   3.88201594       3.88201594     -0.157000005       1951.95618      -1.55690992    
   5.07209921       2.10093188     -0.157000005       2228.70142      -1.55689824    
   4.40452194       1.82441294     -0.246999994       2228.70142      -1.55689824    
   3.96396494       2.64863706     -0.246999994       2228.70142      -1.55689824    
   4.56476784       3.05008101     -0.157000005       2228.70142      -1.55689824    
   5.38451099       1.07104599     -0.157000005       2395.05176      -1.55672288    
   4.67581606      0.930077016     -0.246999994       2395.05176      -1.55672288    
   4.40452194       1.82441294     -0.246999994       2395.05176      -1.55672288    
   5.07209921       2.10093188     -0.157000005       2395.05176      -1.55672288    
   5.48999977       0.00000000     -0.157000005       2484.59766      -1.55668497    
   4.76741982       0.00000000     -0.246999994       2484.59766      -1.55668497    
   4.67581606      0.930077016     -0.246999994       2484.59766      -1.55668497    
   5.38451099       1.07104599     -0.157000005       2484.59766      -1.55668497    
   5.38451099      -1.07104599     -0.157000005       2482.24170      -1.55668139    
   4.67581606     -0.930077016     -0.246999994       2482.24170      -1.55668139    
   4.76741982       0.00000000     -0.246999994       2482.24170      -1.55668139    
   5.48999977       0.00000000     -0.157000005       2482.24170      -1.55668139    
   5.07209921      -2.10093188     -0.157000005       2385.37476      -1.55669188    
   4.40452194      -1.82441294     -0.246999994       2385.37476      -1.55669188    
   4.67581606     -0.930077016     -0.246999994       2385.37476      -1.55669188    
   5.38451099      -1.07104599     -0.157000005       2385.37476      -1.55669188    
   4.56476784      -3.05008101     -0.157000005       2196.92017      -1.55671823    
   3.96396494      -2.64863706     -0.246999994       2196.92017      -1.55671823    
   4.40452194      -1.82441294     -0.246999994       2196.92017      -1.55671823    
   5.07209921      -2.10093188     -0.157000005       2196.92017      -1.55671823    
   3.88201594      -3.88201594     -0.157000005       1925.58386      -1.55677390    
   3.37107491      -3.37107491     -0.246999994       1925.58386      -1.55677390    
   3.96396494      -2.64863706     -0.246999994       1925.58386      -1.55677390    
   4.56476784      -3.05008101     -0.157000005       1925.58386      -1.55677390    
   3.05008101      -4.56476784     -0.157000005       1590.20667      -1.55696762    
   2.64863706      -3.96396494     -0.246999994       1590.20667      -1.55696762    
   3.37107491      -3.37107491     -0.246999994       1590.20667      -1.55696762    
   3.88201594      -3.88201594     -0.157000005       1590.20667      -1.55696762    
   2.10093188      -5.07209921     -0.157000005       1173.57043      -1.55699694    
   1.82441294      -4.40452194     -0.246999994       1173.57043      -1.55699694    
   2.64863706      -3.96396494     -0.246999994       1173.57043      -1.55699694    
   3.05008101      -4.56476784     -0.157000005       1173.57043      -1.55699694    
   1.07104599      -5.38451099     -0.157000005       720.224609      -1.55729401    
  0.930077016      -4.67581606     -0.246999994       720.224609      -1.55729401    
   1.82441294      -4.40452194     -0.246999994       720.224609      -1.55729401    
   2.10093188      -5.07209921     -0.157000005       720.224609      -1.55729401    
   0.00000000      -1.87709999     -0.606999993       133.813354      -1.56806111    
   0.00000000      -1.36500001     -0.606999993       133.813354      -1.56806111    
  0.266297996      -1.33877206     -0.606999993       133.813354      -1.56806111    
  0.366203994      -1.84103203     -0.606999993       133.813354      -1.56806111    
   0.00000000      -1.87709999     -0.606999993       197.350830       1.58149529    
   0.00000000      -2.59967995     -0.517000020       197.350830       1.58149529    
 -0.507171988      -2.54972792     -0.517000020       197.350830       1.58149529    
 -0.366203994      -1.84103203     -0.606999993       197.350830       1.58149529    
 -0.366203994      -1.84103203     -0.606999993       127.198250       1.58161819    
 -0.266297996      -1.33877206     -0.606999993       127.198250       1.58161819    
   0.00000000      -1.36500001     -0.606999993       127.198250       1.58161819    
   0.00000000      -1.87709999     -0.606999993       127.198250       1.58161819    
 -0.366203994      -1.84103203     -0.606999993       581.948181       1.57960141    
 -0.507171988      -2.54972792     -0.517000020       581.948181       1.57960141    
 -0.994853973      -2.40179110     -0.517000020       581.948181       1.57960141    
 -0.718334973      -1.73421395     -0.606999993       581.948181       1.57960141    
 -0.718334973      -1.73421395     -0.606999993       383.096252       1.57879460    
 -0.522363007      -1.26109600     -0.606999993       383.096252       1.57879460    
 -0.266297996      -1.33877206     -0.606999993       383.096252       1.57879460    
 -0.366203994      -1.84103203     -0.606999993       383.096252       1.57879460    
 -0.718334973      -1.73421395     -0.606999993       941.966003       1.57913733    
 -0.994853973      -2.40179110     -0.517000020       941.966003       1.57913733    
  -1.44430494      -2.16155505     -0.517000020       941.966003       1.57913733    
  -1.04286098      -1.56075203     -0.606999993       941.966003       1.57913733    
  -1.04286098      -1.56075203     -0.606999993       624.335388       1.57816601    
 -0.758352995      -1.13495600     -0.606999993       624.335388       1.57816601    
 -0.522363007      -1.26109600     -0.606999993       624.335388       1.57816601    
 -0.718334973      -1.73421395     -0.606999993       624.335388       1.57816601    
  -1.04286098      -1.56075203     -0.606999993       1267.67566       1.57889104    
  -1.44430494      -2.16155505     -0.517000020       1267.67566       1.57889104    
  -1.83825099      -1.83825099     -0.517000020       1267.67566       1.57889104    
  -1.32730997      -1.32730997     -0.606999993       1267.67566       1.57889104    
  -1.32730997      -1.32730997     -0.606999993       843.120789       1.57785594    
 -0.965201020     -0.965201020     -0.606999993       843.120789       1.57785594    
 -0.758352995      -1.13495600     -0.606999993       843.120789       1.57785594    
  -1.04286098      -1.56075203     -0.606999993       843.120789       1.57785594    
  -1.32730997      -1.32730997     -0.606999993       1549.44849       1.57875371    
  -1.83825099      -1.83825099     -0.517000020       1549.44849       1.57875371    
  -2.16155505      -1.44430494     -0.517000020       1549.44849       1.57875371    
  -1.56075203      -1.04286098     -0.606999993       1549.44849       1.57875371    
  -1.56075203      -1.04286098     -0.606999993       1031.73962       1.57768381    
  -1.13495600     -0.758352995     -0.606999993       1031.73962       1.57768381    
 -0.965201020     -0.965201020     -0.606999993       1031.73962       1.57768381    
  -1.32730997      -1.32730997     -0.606999993       1031.73962       1.57768381    
  -1.56075203      -1.04286098     -0.606999993       1773.19116       1.57870066    
  -2.16155505      -1.44430494     -0.517000020       1773.19116       1.57870066    
  -2.40179110     -0.994853973     -0.517000020       1773.19116       1.57870066    
  -1.73421395     -0.718334973     -0.606999993       1773.19116       1.57870066    
  -1.73421395     -0.718334973     -0.606999993       1181.18042       1.57760394    
  -1.26109600     -0.522363007     -0.606999993       1181.18042       1.57760394    
  -1.13495600     -0.758352995     -0.606999993       1181.18042       1.57760394    
  -1.56075203      -1.04286098     -0.606999993       1181.18042       1.57760394    
  -1.73421395     -0.718334973     -0.606999993       1925.12329       1.57870209    
  -2.40179110     -0.994853973     -0.517000020       1925.12329       1.57870209    
  -2.54972792     -0.507171988     -0.517000020       1925.12329       1.57870209    
  -1.84103203     -0.366203994     -0.606999993       1925.12329       1.57870209    
  -1.84103203     -0.366203994     -0.606999993       1283.73633       1.57758307    
  -1.33877206     -0.266297996     -0.606999993       1283.73633       1.57758307    
  -1.26109600     -0.522363007     -0.606999993       1283.73633       1.57758307    
  -1.73421395     -0.718334973     -0.606999993       1283.73633       1.57758307    
  -1.84103203     -0.366203994     -0.606999993       2000.43250       1.57871723    
  -2.54972792     -0.507171988     -0.517000020       2000.43250       1.57871723    
  -2.59967995       0.00000000     -0.517000020       2000.43250       1.57871723    
  -1.87709999       0.00000000     -0.606999993       2000.43250       1.57871723    
  -1.87709999       0.00000000     -0.606999993       1335.76038       1.57758403    
  -1.36500001       0.00000000     -0.606999993       1335.76038       1.57758403    
  -1.33877206     -0.266297996     -0.606999993       1335.76038       1.57758403    
  -1.84103203     -0.366203994     -0.606999993       1335.76038       1.57758403    
  -1.87709999       0.00000000     -0.606999993       2001.05176       1.57871377    
  -2.59967995       0.00000000     -0.517000020       2001.05176       1.57871377    
  -2.54972792      0.507171988     -0.517000020       2001.05176       1.57871377    
  -1.84103203      0.366203994     -0.606999993       2001.05176       1.57871377    
  -1.84103203      0.366203994     -0.606999993       1336.91895       1.57757854    
  -1.33877206      0.266297996     -0.606999993       1336.91895       1.57757854    
  -1.36500001       0.00000000     -0.606999993       1336.91895       1.57757854    
  -1.87709999       0.00000000     -0.606999993       1336.91895       1.57757854    
  -1.84103203      0.366203994     -0.606999993       1927.75208       1.57868505    
  -2.54972792      0.507171988     -0.517000020       1927.75208       1.57868505    
  -2.40179110      0.994853973     -0.517000020       1927.75208       1.57868505    
  -1.73421395      0.718334973     -0.606999993       1927.75208       1.57868505    
  -1.73421395      0.718334973     -0.606999993       1287.49414       1.57756126    
  -1.26109600      0.522363007     -0.606999993       1287.49414       1.57756126    
  -1.33877206      0.266297996     -0.606999993       1287.49414       1.57756126    
  -1.84103203      0.366203994     -0.606999993       1287.49414       1.57756126    
  -1.73421395      0.718334973     -0.606999993       1778.70874       1.57865798    
  -2.40179110      0.994853973     -0.517000020       1778.70874       1.57865798    
  -2.16155505       1.44430494     -0.517000020       1778.70874       1.57865798    
  -1.56075203       1.04286098     -0.606999993       1778.70874       1.57865798    
  -1.56075203       1.04286098     -0.606999993       1187.82239       1.57755673    
  -1.13495600      0.758352995     -0.606999993       1187.82239       1.57755673    
  -1.26109600      0.522363007     -0.606999993       1187.82239       1.57755673    
  -1.73421395      0.718334973     -0.606999993       1187.82239       1.57755673    
  -1.56075203       1.04286098     -0.606999993       1556.67542       1.57867599    
  -2.16155505       1.44430494     -0.517000020       1556.67542       1.57867599    
  -1.83825099       1.83825099     -0.517000020       1556.67542       1.57867599    
  -1.32730997       1.32730997     -0.606999993       1556.67542       1.57867599    
  -1.32730997       1.32730997     -0.606999993       1040.80127       1.57760060    
 -0.965201020      0.965201020     -0.606999993       1040.80127       1.57760060    
  -1.13495600      0.758352995     -0.606999993       1040.80127       1.57760060    
  -1.56075203       1.04286098     -0.606999993       1040.80127       1.57760060    
  -1.32730997       1.32730997     -0.606999993       1274.17957       1.57877612    
  -1.83825099       1.83825099     -0.517000020       1274.17957       1.57877612    
  -1.44430494       2.16155505     -0.517000020       1274.17957       1.57877612    
  -1.04286098       1.56075203     -0.606999993       1274.17957       1.57877612    
  -1.04286098       1.56075203     -0.606999993       853.388062       1.57773256    
 -0.758352995       1.13495600     -0.606999993       853.388062       1.57773256    
 -0.965201020      0.965201020     -0.606999993       853.388062       1.57773256    
  -1.32730997       1.32730997     -0.606999993       853.388062       1.57773256    
  -1.04286098       1.56075203     -0.606999993       946.479431       1.57897949    
  -1.44430494       2.16155505     -0.517000020       946.479431       1.57897949    
 -0.994853973       2.40179110     -0.517000020       946.479431       1.57897949    
 -0.718334973       1.73421395     -0.606999993       946.479431       1.57897949    
 -0.718334973       1.73421395     -0.606999993       634.505371       1.57799554    
 -0.522363007       1.26109600     -0.606999993       634.505371       1.57799554    
 -0.758352995       1.13495600     -0.606999993       634.505371       1.57799554    
  -1.04286098       1.56075203     -0.606999993       634.505371       1.57799554    
 -0.718334973       1.73421395     -0.606999993       584.504700       1.57937574    
 -0.994853973       2.40179110     -0.517000020       584.504700       1.57937574    
 -0.507171988       2.54972792     -0.517000020       584.504700       1.57937574    
 -0.366203994       1.84103203     -0.606999993       584.504700       1.57937574    
 -0.366203994       1.84103203     -0.606999993       392.272186       1.57855022    
 -0.266297996       1.33877206     -0.606999993       392.272186       1.57855022    
 -0.522363007       1.26109600     -0.606999993       392.272186       1.57855022    
 -0.718334973       1.73421395     -0.606999993       392.272186       1.57855022    
 -0.366203994       1.84103203     -0.606999993       198.295898       1.58097577    
 -0.507171988       2.54972792     -0.517000020       198.295898       1.58097577    
   0.00000000       2.59967995     -0.517000020       198.295898       1.58097577    
   0.00000000       1.87709999     -0.606999993       198.295898       1.58097577    
   0.00000000       1.87709999     -0.606999993       134.817825       1.58099103    
   0.00000000       1.36500001     -0.606999993       134.817825       1.58099103    
 -0.266297996       1.33877206     -0.606999993       134.817825       1.58099103    
 -0.366203994       1.84103203     -0.606999993       134.817825       1.58099103    
   0.00000000       1.87709999     -0.606999993       197.007462      -1.56529510    
   0.00000000       2.59967995     -0.517000020       197.007462      -1.56529510    
  0.507171988       2.54972792     -0.517000020       197.007462      -1.56529510    
  0.366203994       1.84103203     -0.606999993       197.007462      -1.56529510    
  0.366203994       1.84103203     -0.606999993       128.091141      -1.56809270    
  0.266297996       1.33877206     -0.606999993       128.091141      -1.56809270    
   0.00000000       1.36500001     -0.606999993       128.091141      -1.56809270    
   0.00000000       1.87709999     -0.606999993       128.091141      -1.56809270    
  0.366203994       1.84103203     -0.606999993       583.130798      -1.56380415    
  0.507171988       2.54972792     -0.517000020       583.130798      -1.56380415    
  0.994853973       2.40179110     -0.517000020       583.130798      -1.56380415    
  0.718334973       1.73421395     -0.606999993       583.130798      -1.56380415    
  0.718334973       1.73421395     -0.606999993       385.563080      -1.56557572    
  0.522363007       1.26109600     -0.606999993       385.563080      -1.56557572    
  0.266297996       1.33877206     -0.606999993       385.563080      -1.56557572    
  0.366203994       1.84103203     -0.606999993       385.563080      -1.56557572    
  0.718334973       1.73421395     -0.606999993       944.951477      -1.56359959    
  0.994853973       2.40179110     -0.517000020       944.951477      -1.56359959    
   1.44430494       2.16155505     -0.517000020       944.951477      -1.56359959    
   1.04286098       1.56075203     -0.606999993       944.951477      -1.56359959    
   1.04286098       1.56075203     -0.606999993       627.922424      -1.56516385    
  0.758352995       1.13495600     -0.606999993       627.922424      -1.56516385    
  0.522363007       1.26109600     -0.606999993       627.922424      -1.56516385    
  0.718334973       1.73421395     -0.606999993       627.922424      -1.56516385    
   1.04286098       1.56075203     -0.606999993       1272.35986      -1.56355655    
   1.44430494       2.16155505     -0.517000020       1272.35986      -1.56355655    
   1.83825099       1.83825099     -0.517000020       1272.35986      -1.56355655    
   1.32730997       1.32730997     -0.606999993       1272.35986      -1.56355655    
   1.32730997       1.32730997     -0.606999993       846.949585      -1.56502771    
  0.965201020      0.965201020     -0.606999993       846.949585      -1.56502771    
  0.758352995       1.13495600     -0.606999993       846.949585      -1.56502771    
   1.04286098       1.56075203     -0.606999993       846.949585      -1.56502771    
   1.32730997       1.32730997     -0.606999993       1554.42004      -1.56352818    
   1.83825099       1.83825099     -0.517000020       1554.42004      -1.56352818    
   2.16155505       1.44430494     -0.517000020       1554.42004      -1.56352818    
   1.56075203       1.04286098     -0.606999993       1554.42004      -1.56352818    
   1.56075203       1.04286098     -0.606999993       1034.63367      -1.56495178    
   1.13495600      0.758352995     -0.606999993       1034.63367      -1.56495178    
  0.965201020      0.965201020     -0.606999993       1034.63367      -1.56495178    
   1.32730997       1.32730997     -0.606999993       1034.63367      -1.56495178    
   1.56075203       1.04286098     -0.606999993       1775.95105      -1.56347561    
   2.16155505       1.44430494     -0.517000020       1775.95105      -1.56347561    
   2.40179110      0.994853973     -0.517000020       1775.95105      -1.56347561    
   1.73421395      0.718334973     -0.606999993       1775.95105      -1.56347561    
   1.73421395      0.718334973     -0.606999993       1182.31055      -1.56487846    
   1.26109600      0.522363007     -0.606999993       1182.31055      -1.56487846    
   1.13495600      0.758352995     -0.606999993       1182.31055      -1.56487846    
   1.56075203       1.04286098     -0.606999993       1182.31055      -1.56487846    
   1.73421395      0.718334973     -0.606999993       1924.53394      -1.56341195    
   2.40179110      0.994853973     -0.517000020       1924.53394      -1.56341195    
   2.54972792      0.507171988     -0.517000020       1924.53394      -1.56341195    
   1.84103203      0.366203994     -0.606999993       1924.53394      -1.56341195    
   1.84103203      0.366203994     -0.606999993       1282.79688      -1.56481004    
   1.33877206      0.266297996     -0.606999993       1282.79688      -1.56481004    
   1.26109600      0.522363007     -0.606999993       1282.79688      -1.56481004    
   1.73421395      0.718334973     -0.606999993       1282.79688      -1.56481004    
   1.84103203      0.366203994     -0.606999993       1997.50842      -1.56337106    
   2.54972792      0.507171988     -0.517000020       1997.50842      -1.56337106    
   2.59967995       0.00000000     -0.517000020       1997.50842      -1.56337106    
   1.87709999       0.00000000     -0.606999993       1997.50842      -1.56337106    
   1.87709999       0.00000000     -0.606999993       1333.11890      -1.56476748    
   1.36500001       0.00000000     -0.606999993       1333.11890      -1.56476748    
   1.33877206      0.266297996     -0.606999993       1333.11890      -1.56476748    
   1.84103203      0.366203994     -0.606999993       1333.11890      -1.56476748    
   1.87709999       0.00000000     -0.606999993       1996.78723      -1.56337476    
   2.59967995       0.00000000     -0.517000020       1996.78723      -1.56337476    
   2.54972792     -0.507171988     -0.517000020       1996.78723      -1.56337476    
   1.84103203     -0.366203994     -0.606999993       1996.78723      -1.56337476    
   1.84103203     -0.366203994     -0.606999993       1333.04724      -1.56476712    
   1.33877206     -0.266297996     -0.606999993       1333.04724      -1.56476712    
   1.36500001       0.00000000     -0.606999993       1333.04724      -1.56476712    
   1.87709999       0.00000000     -0.606999993       1333.04724      -1.56476712    
   1.84103203     -0.366203994     -0.606999993       1921.63635      -1.56341887    
   2.54972792     -0.507171988     -0.517000020       1921.63635      -1.56341887    
   2.40179110     -0.994853973     -0.517000020       1921.63635      -1.56341887    
   1.73421395     -0.718334973     -0.606999993       1921.63635      -1.56341887    
   1.73421395     -0.718334973     -0.606999993       1282.28894      -1.56480479    
   1.26109600     -0.522363007     -0.606999993       1282.28894      -1.56480479    
   1.33877206     -0.266297996     -0.606999993       1282.28894      -1.56480479    
   1.84103203     -0.366203994     -0.606999993       1282.28894      -1.56480479    
   1.73421395     -0.718334973     -0.606999993       1770.06458      -1.56347585    
   2.40179110     -0.994853973     -0.517000020       1770.06458      -1.56347585    
   2.16155505      -1.44430494     -0.517000020       1770.06458      -1.56347585    
   1.56075203      -1.04286098     -0.606999993       1770.06458      -1.56347585    
   1.56075203      -1.04286098     -0.606999993       1181.11780      -1.56485903    
   1.13495600     -0.758352995     -0.606999993       1181.11780      -1.56485903    
   1.26109600     -0.522363007     -0.606999993       1181.11780      -1.56485903    