 VARIABLES="X" "Y" "Z" "abs(p) (Pa)" "angle(p) (rad)"
ZONE N=   2709,E =    2358, F=FEPOINT, ET=QUADRILATERAL
   0.00000000      -5.48999977     -0.157000005       809.050476       1.57786894    
   0.00000000      -4.76741982     -0.246999994       809.050476       1.57786894    
  0.930077016      -4.67581606     -0.246999994       809.050476       1.57786894    
   1.07104599      -5.38451099     -0.157000005       809.050476       1.57786894    
  -1.07104599      -5.38451099     -0.157000005       808.731201       1.57693207    
 -0.930077016      -4.67581606     -0.246999994       808.731201       1.57693207    
   0.00000000      -4.76741982     -0.246999994       808.731201       1.57693207    
   0.00000000      -5.48999977     -0.157000005       808.731201       1.57693207    
  -2.10093188      -5.07209921     -0.157000005       817.902466       1.58173501    
  -1.82441294      -4.40452194     -0.246999994       817.902466       1.58173501    
 -0.930077016      -4.67581606     -0.246999994       817.902466       1.58173501    
  -1.07104599      -5.38451099     -0.157000005       817.902466       1.58173501    
  -3.05008101      -4.56476784     -0.157000005       809.224060       1.57717562    
  -2.64863706      -3.96396494     -0.246999994       809.224060       1.57717562    
  -1.82441294      -4.40452194     -0.246999994       809.224060       1.57717562    
  -2.10093188      -5.07209921     -0.157000005       809.224060       1.57717562    
  -3.88201594      -3.88201594     -0.157000005       809.479736       1.57793784    
  -3.37107491      -3.37107491     -0.246999994       809.479736       1.57793784    
  -2.64863706      -3.96396494     -0.246999994       809.479736       1.57793784    
  -3.05008101      -4.56476784     -0.157000005       809.479736       1.57793784    
  -4.56476784      -3.05008101     -0.157000005       816.097839       1.57979679    
  -3.96396494      -2.64863706     -0.246999994       816.097839       1.57979679    
  -3.37107491      -3.37107491     -0.246999994       816.097839       1.57979679    
  -3.88201594      -3.88201594     -0.157000005       816.097839       1.57979679    
  -5.07209921      -2.10093188     -0.157000005       809.868286       1.57723165    
  -4.40452194      -1.82441294     -0.246999994       809.868286       1.57723165    
  -3.96396494      -2.64863706     -0.246999994       809.868286       1.57723165    
  -4.56476784      -3.05008101     -0.157000005       809.868286       1.57723165    
  -5.38451099      -1.07104599     -0.157000005       808.667603       1.57777345    
  -4.67581606     -0.930077016     -0.246999994       808.667603       1.57777345    
  -4.40452194      -1.82441294     -0.246999994       808.667603       1.57777345    
  -5.07209921      -2.10093188     -0.157000005       808.667603       1.57777345    
  -5.48999977       0.00000000     -0.157000005       817.914978       1.58092153    
  -4.76741982       0.00000000     -0.246999994       817.914978       1.58092153    
  -4.67581606     -0.930077016     -0.246999994       817.914978       1.58092153    
  -5.38451099      -1.07104599     -0.157000005       817.914978       1.58092153    
  -5.38451099       1.07104599     -0.157000005       818.552185       1.58074605    
  -4.67581606      0.930077016     -0.246999994       818.552185       1.58074605    
  -4.76741982       0.00000000     -0.246999994       818.552185       1.58074605    
  -5.48999977       0.00000000     -0.157000005       818.552185       1.58074605    
  -5.07209921       2.10093188     -0.157000005       817.786011       1.58151627    
  -4.40452194       1.82441294     -0.246999994       817.786011       1.58151627    
  -4.67581606      0.930077016     -0.246999994       817.786011       1.58151627    
  -5.38451099       1.07104599     -0.157000005       817.786011       1.58151627    
  -4.56476784       3.05008101     -0.157000005       819.088013       1.58076608    
  -3.96396494       2.64863706     -0.246999994       819.088013       1.58076608    
  -4.40452194       1.82441294     -0.246999994       819.088013       1.58076608    
  -5.07209921       2.10093188     -0.157000005       819.088013       1.58076608    
  -3.88201594       3.88201594     -0.157000005       808.959900       1.57781923    
  -3.37107491       3.37107491     -0.246999994       808.959900       1.57781923    
  -3.96396494       2.64863706     -0.246999994       808.959900       1.57781923    
  -4.56476784       3.05008101     -0.157000005       808.959900       1.57781923    
  -3.05008101       4.56476784     -0.157000005       818.762573       1.58118367    
  -2.64863706       3.96396494     -0.246999994       818.762573       1.58118367    
  -3.37107491       3.37107491     -0.246999994       818.762573       1.58118367    
  -3.88201594       3.88201594     -0.157000005       818.762573       1.58118367    
  -2.10093188       5.07209921     -0.157000005       808.840881       1.57725167    
  -1.82441294       4.40452194     -0.246999994       808.840881       1.57725167    
  -2.64863706       3.96396494     -0.246999994       808.840881       1.57725167    
  -3.05008101       4.56476784     -0.157000005       808.840881       1.57725167    
  -1.07104599       5.38451099     -0.157000005       818.539856       1.58177149    
 -0.930077016       4.67581606     -0.246999994       818.539856       1.58177149    
  -1.82441294       4.40452194     -0.246999994       818.539856       1.58177149    
  -2.10093188       5.07209921     -0.157000005       818.539856       1.58177149    
   0.00000000       5.48999977     -0.157000005       809.198853       1.57704687    
   0.00000000       4.76741982     -0.246999994       809.198853       1.57704687    
 -0.930077016       4.67581606     -0.246999994       809.198853       1.57704687    
  -1.07104599       5.38451099     -0.157000005       809.198853       1.57704687    
   1.07104599       5.38451099     -0.157000005       817.745239       1.58155823    
  0.930077016       4.67581606     -0.246999994       817.745239       1.58155823    
   0.00000000       4.76741982     -0.246999994       817.745239       1.58155823    
   0.00000000       5.48999977     -0.157000005       817.745239       1.58155823    
   2.10093188       5.07209921     -0.157000005       809.684814       1.57772207    
   1.82441294       4.40452194     -0.246999994       809.684814       1.57772207    
  0.930077016       4.67581606     -0.246999994       809.684814       1.57772207    
   1.07104599       5.38451099     -0.157000005       809.684814       1.57772207    
   3.05008101       4.56476784     -0.157000005       808.888123       1.57707989    
   2.64863706       3.96396494     -0.246999994       808.888123       1.57707989    
   1.82441294       4.40452194     -0.246999994       808.888123       1.57707989    
   2.10093188       5.07209921     -0.157000005       808.888123       1.57707989    
   3.88201594       3.88201594     -0.157000005       818.193665       1.58211064    
   3.37107491       3.37107491     -0.246999994       818.193665       1.58211064    
   2.64863706       3.96396494     -0.246999994       818.193665       1.58211064    
   3.05008101       4.56476784     -0.157000005       818.193665       1.58211064    
   4.56476784       3.05008101     -0.157000005       813.440735       1.57713425    
   3.96396494       2.64863706     -0.246999994       813.440735       1.57713425    
   3.37107491       3.37107491     -0.246999994       813.440735       1.57713425    
   3.88201594       3.88201594     -0.157000005       813.440735       1.57713425    
   5.07209921       2.10093188     -0.157000005       818.240356       1.58172131    
   4.40452194       1.82441294     -0.246999994       818.240356       1.58172131    
   3.96396494       2.64863706     -0.246999994       818.240356       1.58172131    
   4.56476784       3.05008101     -0.157000005       818.240356       1.58172131    
   5.38451099       1.07104599     -0.157000005       808.789551       1.57728243    
   4.67581606      0.930077016     -0.246999994       808.789551       1.57728243    
   4.40452194       1.82441294     -0.246999994       808.789551       1.57728243    
   5.07209921       2.10093188     -0.157000005       808.789551       1.57728243    
   5.48999977       0.00000000     -0.157000005       809.420410       1.57768059    
   4.76741982       0.00000000     -0.246999994       809.420410       1.57768059    
   4.67581606      0.930077016     -0.246999994       809.420410       1.57768059    
   5.38451099       1.07104599     -0.157000005       809.420410       1.57768059    
   5.38451099      -1.07104599     -0.157000005       808.703186       1.57771921    
   4.67581606     -0.930077016     -0.246999994       808.703186       1.57771921    
   4.76741982       0.00000000     -0.246999994       808.703186       1.57771921    
   5.48999977       0.00000000     -0.157000005       808.703186       1.57771921    
   5.07209921      -2.10093188     -0.157000005       808.633606       1.57716537    
   4.40452194      -1.82441294     -0.246999994       808.633606       1.57716537    
   4.67581606     -0.930077016     -0.246999994       808.633606       1.57716537    
   5.38451099      -1.07104599     -0.157000005       808.633606       1.57716537    
   4.56476784      -3.05008101     -0.157000005       809.366333       1.57809389    
   3.96396494      -2.64863706     -0.246999994       809.366333       1.57809389    
   4.40452194      -1.82441294     -0.246999994       809.366333       1.57809389    
   5.07209921      -2.10093188     -0.157000005       809.366333       1.57809389    
   3.88201594      -3.88201594     -0.157000005       808.445129       1.57687032    
   3.37107491      -3.37107491     -0.246999994       808.445129       1.57687032    
   3.96396494      -2.64863706     -0.246999994       808.445129       1.57687032    
   4.56476784      -3.05008101     -0.157000005       808.445129       1.57687032    
   3.05008101      -4.56476784     -0.157000005       818.047363       1.58162773    
   2.64863706      -3.96396494     -0.246999994       818.047363       1.58162773    
   3.37107491      -3.37107491     -0.246999994       818.047363       1.58162773    
   3.88201594      -3.88201594     -0.157000005       818.047363       1.58162773    
   2.10093188      -5.07209921     -0.157000005       809.229736       1.57737851    
   1.82441294      -4.40452194     -0.246999994       809.229736       1.57737851    
   2.64863706      -3.96396494     -0.246999994       809.229736       1.57737851    
   3.05008101      -4.56476784     -0.157000005       809.229736       1.57737851    
   1.07104599      -5.38451099     -0.157000005       809.046692       1.57760501    
  0.930077016      -4.67581606     -0.246999994       809.046692       1.57760501    
   1.82441294      -4.40452194     -0.246999994       809.046692       1.57760501    
   2.10093188      -5.07209921     -0.157000005       809.046692       1.57760501    
   0.00000000      -1.87709999     -0.606999993       946.700073       1.56971753    
   0.00000000      -1.36500001     -0.606999993       946.700073       1.56971753    
  0.266297996      -1.33877206     -0.606999993       946.700073       1.56971753    
  0.366203994      -1.84103203     -0.606999993       946.700073       1.56971753    
   0.00000000      -1.87709999     -0.606999993       148.429428      -1.57111275    
   0.00000000      -2.59967995     -0.517000020       148.429428      -1.57111275    
 -0.507171988      -2.54972792     -0.517000020       148.429428      -1.57111275    
 -0.366203994      -1.84103203     -0.606999993       148.429428      -1.57111275    
 -0.366203994      -1.84103203     -0.606999993       946.363403       1.56971312    
 -0.266297996      -1.33877206     -0.606999993       946.363403       1.56971312    
   0.00000000      -1.36500001     -0.606999993       946.363403       1.56971312    
   0.00000000      -1.87709999     -0.606999993       946.363403       1.56971312    
 -0.366203994      -1.84103203     -0.606999993       148.762909      -1.57113540    
 -0.507171988      -2.54972792     -0.517000020       148.762909      -1.57113540    
 -0.994853973      -2.40179110     -0.517000020       148.762909      -1.57113540    
 -0.718334973      -1.73421395     -0.606999993       148.762909      -1.57113540    
 -0.718334973      -1.73421395     -0.606999993       945.498535       1.56970549    
 -0.522363007      -1.26109600     -0.606999993       945.498535       1.56970549    
 -0.266297996      -1.33877206     -0.606999993       945.498535       1.56970549    
 -0.366203994      -1.84103203     -0.606999993       945.498535       1.56970549    
 -0.718334973      -1.73421395     -0.606999993       149.145233      -1.57113647    
 -0.994853973      -2.40179110     -0.517000020       149.145233      -1.57113647    
  -1.44430494      -2.16155505     -0.517000020       149.145233      -1.57113647    
  -1.04286098      -1.56075203     -0.606999993       149.145233      -1.57113647    
  -1.04286098      -1.56075203     -0.606999993       944.534790       1.56970072    
 -0.758352995      -1.13495600     -0.606999993       944.534790       1.56970072    
 -0.522363007      -1.26109600     -0.606999993       944.534790       1.56970072    
 -0.718334973      -1.73421395     -0.606999993       944.534790       1.56970072    
  -1.04286098      -1.56075203     -0.606999993       149.426834      -1.57109571    
  -1.44430494      -2.16155505     -0.517000020       149.426834      -1.57109571    
  -1.83825099      -1.83825099     -0.517000020       149.426834      -1.57109571    
  -1.32730997      -1.32730997     -0.606999993       149.426834      -1.57109571    
  -1.32730997      -1.32730997     -0.606999993       943.750916       1.56969512    
 -0.965201020     -0.965201020     -0.606999993       943.750916       1.56969512    
 -0.758352995      -1.13495600     -0.606999993       943.750916       1.56969512    
  -1.04286098      -1.56075203     -0.606999993       943.750916       1.56969512    
  -1.32730997      -1.32730997     -0.606999993       149.502579      -1.57105124    
  -1.83825099      -1.83825099     -0.517000020       149.502579      -1.57105124    
  -2.16155505      -1.44430494     -0.517000020       149.502579      -1.57105124    
  -1.56075203      -1.04286098     -0.606999993       149.502579      -1.57105124    
  -1.56075203      -1.04286098     -0.606999993       943.507690       1.56969380    
  -1.13495600     -0.758352995     -0.606999993       943.507690       1.56969380    
 -0.965201020     -0.965201020     -0.606999993       943.507690       1.56969380    
  -1.32730997      -1.32730997     -0.606999993       943.507690       1.56969380    
  -1.56075203      -1.04286098     -0.606999993       149.324158      -1.57103634    
  -2.16155505      -1.44430494     -0.517000020       149.324158      -1.57103634    
  -2.40179110     -0.994853973     -0.517000020       149.324158      -1.57103634    
  -1.73421395     -0.718334973     -0.606999993       149.324158      -1.57103634    
  -1.73421395     -0.718334973     -0.606999993       944.090088       1.56969738    
  -1.26109600     -0.522363007     -0.606999993       944.090088       1.56969738    
  -1.13495600     -0.758352995     -0.606999993       944.090088       1.56969738    
  -1.56075203      -1.04286098     -0.606999993       944.090088       1.56969738    
  -1.73421395     -0.718334973     -0.606999993       148.954773      -1.57106864    
  -2.40179110     -0.994853973     -0.517000020       148.954773      -1.57106864    
  -2.54972792     -0.507171988     -0.517000020       148.954773      -1.57106864    
  -1.84103203     -0.366203994     -0.606999993       148.954773      -1.57106864    
  -1.84103203     -0.366203994     -0.606999993       945.132385       1.56970489    
  -1.33877206     -0.266297996     -0.606999993       945.132385       1.56970489    
  -1.26109600     -0.522363007     -0.606999993       945.132385       1.56970489    
  -1.73421395     -0.718334973     -0.606999993       945.132385       1.56970489    
  -1.84103203     -0.366203994     -0.606999993       148.545685      -1.57108855    
  -2.54972792     -0.507171988     -0.517000020       148.545685      -1.57108855    
  -2.59967995       0.00000000     -0.517000020       148.545685      -1.57108855    
  -1.87709999       0.00000000     -0.606999993       148.545685      -1.57108855    
  -1.87709999       0.00000000     -0.606999993       946.080872       1.56971574    
  -1.36500001       0.00000000     -0.606999993       946.080872       1.56971574    
  -1.33877206     -0.266297996     -0.606999993       946.080872       1.56971574    
  -1.84103203     -0.366203994     -0.606999993       946.080872       1.56971574    
  -1.87709999       0.00000000     -0.606999993       148.299225      -1.57109392    
  -2.59967995       0.00000000     -0.517000020       148.299225      -1.57109392    
  -2.54972792      0.507171988     -0.517000020       148.299225      -1.57109392    
  -1.84103203      0.366203994     -0.606999993       148.299225      -1.57109392    
  -1.84103203      0.366203994     -0.606999993       946.626648       1.56972373    
  -1.33877206      0.266297996     -0.606999993       946.626648       1.56972373    
  -1.36500001       0.00000000     -0.606999993       946.626648       1.56972373    
  -1.87709999       0.00000000     -0.606999993       946.626648       1.56972373    
  -1.84103203      0.366203994     -0.606999993       148.343140      -1.57107174    
  -2.54972792      0.507171988     -0.517000020       148.343140      -1.57107174    
  -2.40179110      0.994853973     -0.517000020       148.343140      -1.57107174    
  -1.73421395      0.718334973     -0.606999993       148.343140      -1.57107174    
  -1.73421395      0.718334973     -0.606999993       946.548218       1.56972837    
  -1.26109600      0.522363007     -0.606999993       946.548218       1.56972837    
  -1.33877206      0.266297996     -0.606999993       946.548218       1.56972837    
  -1.84103203      0.366203994     -0.606999993       946.548218       1.56972837    
  -1.73421395      0.718334973     -0.606999993       148.670517      -1.57104838    
  -2.40179110      0.994853973     -0.517000020       148.670517      -1.57104838    
  -2.16155505       1.44430494     -0.517000020       148.670517      -1.57104838    
  -1.56075203       1.04286098     -0.606999993       148.670517      -1.57104838    
  -1.56075203       1.04286098     -0.606999993       945.788086       1.56972957    
  -1.13495600      0.758352995     -0.606999993       945.788086       1.56972957    
  -1.26109600      0.522363007     -0.606999993       945.788086       1.56972957    
  -1.73421395      0.718334973     -0.606999993       945.788086       1.56972957    
  -1.56075203       1.04286098     -0.606999993       149.186264      -1.57102633    
  -2.16155505       1.44430494     -0.517000020       149.186264      -1.57102633    
  -1.83825099       1.83825099     -0.517000020       149.186264      -1.57102633    
  -1.32730997       1.32730997     -0.606999993       149.186264      -1.57102633    
  -1.32730997       1.32730997     -0.606999993       944.499756       1.56972837    
 -0.965201020      0.965201020     -0.606999993       944.499756       1.56972837    
  -1.13495600      0.758352995     -0.606999993       944.499756       1.56972837    
  -1.56075203       1.04286098     -0.606999993       944.499756       1.56972837    
  -1.32730997       1.32730997     -0.606999993       149.777466      -1.57105649    
  -1.83825099       1.83825099     -0.517000020       149.777466      -1.57105649    
  -1.44430494       2.16155505     -0.517000020       149.777466      -1.57105649    
  -1.04286098       1.56075203     -0.606999993       149.777466      -1.57105649    
  -1.04286098       1.56075203     -0.606999993       943.037048       1.56972337    
 -0.758352995       1.13495600     -0.606999993       943.037048       1.56972337    
 -0.965201020      0.965201020     -0.606999993       943.037048       1.56972337    
  -1.32730997       1.32730997     -0.606999993       943.037048       1.56972337    
  -1.04286098       1.56075203     -0.606999993       150.280701      -1.57107472    
  -1.44430494       2.16155505     -0.517000020       150.280701      -1.57107472    
 -0.994853973       2.40179110     -0.517000020       150.280701      -1.57107472    
 -0.718334973       1.73421395     -0.606999993       150.280701      -1.57107472    
 -0.718334973       1.73421395     -0.606999993       941.813660       1.56971884    
 -0.522363007       1.26109600     -0.606999993       941.813660       1.56971884    
 -0.758352995       1.13495600     -0.606999993       941.813660       1.56971884    
  -1.04286098       1.56075203     -0.606999993       941.813660       1.56971884    
 -0.718334973       1.73421395     -0.606999993       150.562454      -1.57104874    
 -0.994853973       2.40179110     -0.517000020       150.562454      -1.57104874    
 -0.507171988       2.54972792     -0.517000020       150.562454      -1.57104874    
 -0.366203994       1.84103203     -0.606999993       150.562454      -1.57104874    
 -0.366203994       1.84103203     -0.606999993       941.231384       1.56971276    
 -0.266297996       1.33877206     -0.606999993       941.231384       1.56971276    
 -0.522363007       1.26109600     -0.606999993       941.231384       1.56971276    
 -0.718334973       1.73421395     -0.606999993       941.231384       1.56971276    
 -0.366203994       1.84103203     -0.606999993       150.572342      -1.57103050    
 -0.507171988       2.54972792     -0.517000020       150.572342      -1.57103050    
   0.00000000       2.59967995     -0.517000020       150.572342      -1.57103050    
   0.00000000       1.87709999     -0.606999993       150.572342      -1.57103050    
   0.00000000       1.87709999     -0.606999993       941.381042       1.56971097    
   0.00000000       1.36500001     -0.606999993       941.381042       1.56971097    
 -0.266297996       1.33877206     -0.606999993       941.381042       1.56971097    
 -0.366203994       1.84103203     -0.606999993       941.381042       1.56971097    
   0.00000000       1.87709999     -0.606999993       150.191666      -1.57103312    
   0.00000000       2.59967995     -0.517000020       150.191666      -1.57103312    
  0.507171988       2.54972792     -0.517000020       150.191666      -1.57103312    
  0.366203994       1.84103203     -0.606999993       150.191666      -1.57103312    
  0.366203994       1.84103203     -0.606999993       942.231445       1.56970918    
  0.266297996       1.33877206     -0.606999993       942.231445       1.56970918    
   0.00000000       1.36500001     -0.606999993       942.231445       1.56970918    
   0.00000000       1.87709999     -0.606999993       942.231445       1.56970918    
  0.366203994       1.84103203     -0.606999993       149.535904      -1.57107115    
  0.507171988       2.54972792     -0.517000020       149.535904      -1.57107115    
  0.994853973       2.40179110     -0.517000020       149.535904      -1.57107115    
  0.718334973       1.73421395     -0.606999993       149.535904      -1.57107115    
  0.718334973       1.73421395     -0.606999993       943.574341       1.56970751    
  0.522363007       1.26109600     -0.606999993       943.574341       1.56970751    
  0.266297996       1.33877206     -0.606999993       943.574341       1.56970751    
  0.366203994       1.84103203     -0.606999993       943.574341       1.56970751    
  0.718334973       1.73421395     -0.606999993       148.779343      -1.57113421    
  0.994853973       2.40179110     -0.517000020       148.779343      -1.57113421    
   1.44430494       2.16155505     -0.517000020       148.779343      -1.57113421    
   1.04286098       1.56075203     -0.606999993       148.779343      -1.57113421    
   1.04286098       1.56075203     -0.606999993       945.133118       1.56971633    
  0.758352995       1.13495600     -0.606999993       945.133118       1.56971633    
  0.522363007       1.26109600     -0.606999993       945.133118       1.56971633    
  0.718334973       1.73421395     -0.606999993       945.133118       1.56971633    
   1.04286098       1.56075203     -0.606999993       148.163361      -1.57117867    
   1.44430494       2.16155505     -0.517000020       148.163361      -1.57117867    
   1.83825099       1.83825099     -0.517000020       148.163361      -1.57117867    
   1.32730997       1.32730997     -0.606999993       148.163361      -1.57117867    
   1.32730997       1.32730997     -0.606999993       946.460693       1.56972194    
  0.965201020      0.965201020     -0.606999993       946.460693       1.56972194    
  0.758352995       1.13495600     -0.606999993       946.460693       1.56972194    
   1.04286098       1.56075203     -0.606999993       946.460693       1.56972194    
   1.32730997       1.32730997     -0.606999993       147.939392      -1.57116926    
   1.83825099       1.83825099     -0.517000020       147.939392      -1.57116926    
   2.16155505       1.44430494     -0.517000020       147.939392      -1.57116926    
   1.56075203       1.04286098     -0.606999993       147.939392      -1.57116926    
   1.56075203       1.04286098     -0.606999993       947.109558       1.56972623    
   1.13495600      0.758352995     -0.606999993       947.109558       1.56972623    
  0.965201020      0.965201020     -0.606999993       947.109558       1.56972623    
   1.32730997       1.32730997     -0.606999993       947.109558       1.56972623    
   1.56075203       1.04286098     -0.606999993       148.250061      -1.57118165    
   2.16155505       1.44430494     -0.517000020       148.250061      -1.57118165    
   2.40179110      0.994853973     -0.517000020       148.250061      -1.57118165    
   1.73421395      0.718334973     -0.606999993       148.250061      -1.57118165    
   1.73421395      0.718334973     -0.606999993       946.339539       1.56972337    
   1.26109600      0.522363007     -0.606999993       946.339539       1.56972337    
   1.13495600      0.758352995     -0.606999993       946.339539       1.56972337    
   1.56075203       1.04286098     -0.606999993       946.339539       1.56972337    
   1.73421395      0.718334973     -0.606999993       148.989212      -1.57116210    
   2.40179110      0.994853973     -0.517000020       148.989212      -1.57116210    
   2.54972792      0.507171988     -0.517000020       148.989212      -1.57116210    
   1.84103203      0.366203994     -0.606999993       148.989212      -1.57116210    
   1.84103203      0.366203994     -0.606999993       944.646545       1.56971705    
   1.33877206      0.266297996     -0.606999993       944.646545       1.56971705    
   1.26109600      0.522363007     -0.606999993       944.646545       1.56971705    
   1.73421395      0.718334973     -0.606999993       944.646545       1.56971705    
   1.84103203      0.366203994     -0.606999993       149.801666      -1.57115877    
   2.54972792      0.507171988     -0.517000020       149.801666      -1.57115877    
   2.59967995       0.00000000     -0.517000020       149.801666      -1.57115877    
   1.87709999       0.00000000     -0.606999993       149.801666      -1.57115877    
   1.87709999       0.00000000     -0.606999993       942.978333       1.56971049    
   1.36500001       0.00000000     -0.606999993       942.978333       1.56971049    
   1.33877206      0.266297996     -0.606999993       942.978333       1.56971049    
   1.84103203      0.366203994     -0.606999993       942.978333       1.56971049    
   1.87709999       0.00000000     -0.606999993       150.393188      -1.57114041    
   2.59967995       0.00000000     -0.517000020       150.393188      -1.57114041    
   2.54972792     -0.507171988     -0.517000020       150.393188      -1.57114041    
   1.84103203     -0.366203994     -0.606999993       150.393188      -1.57114041    
   1.84103203     -0.366203994     -0.606999993       941.809875       1.56970549    
   1.33877206     -0.266297996     -0.606999993       941.809875       1.56970549    
   1.36500001       0.00000000     -0.606999993       941.809875       1.56970549    
   1.87709999       0.00000000     -0.606999993       941.809875       1.56970549    
   1.84103203     -0.366203994     -0.606999993       150.625824      -1.57111692    
   2.54972792     -0.507171988     -0.517000020       150.625824      -1.57111692    
   2.40179110     -0.994853973     -0.517000020       150.625824      -1.57111692    
   1.73421395     -0.718334973     -0.606999993       150.625824      -1.57111692    
   1.73421395     -0.718334973     -0.606999993       941.390259       1.56970215    
   1.26109600     -0.522363007     -0.606999993       941.390259       1.56970215    
   1.33877206     -0.266297996     -0.606999993       941.390259       1.56970215    
   1.84103203     -0.366203994     -0.606999993       941.390259       1.56970215    
   1.73421395     -0.718334973     -0.606999993       150.453064      -1.57111156    
   2.40179110     -0.994853973     -0.517000020       150.453064      -1.57111156    
   2.16155505      -1.44430494     -0.517000020       150.453064      -1.57111156    
   1.56075203      -1.04286098     -0.606999993       150.453064      -1.57111156    
   1.56075203      -1.04286098     -0.606999993       941.765991       1.56970167    
   1.13495600     -0.758352995     -0.606999993       941.765991       1.56970167    
   1.26109600     -0.522363007     -0.606999993       941.765991       1.56970167    