VARIABLES="w (rad/s)"  
"abs(F   1   1)" "angle(F   1   1)"
"abs(F   1   2)" "angle(F   1   2)"
"abs(F   1   3)" "angle(F   1   3)"
"abs(F   1   4)" "angle(F   1   4)"
"abs(F   1   5)" "angle(F   1   5)"
"abs(F   1   6)" "angle(F   1   6)"
"abs(F   2   1)" "angle(F   2   1)"
"abs(F   2   2)" "angle(F   2   2)"
"abs(F   2   3)" "angle(F   2   3)"
"abs(F   2   4)" "angle(F   2   4)"
"abs(F   2   5)" "angle(F   2   5)"
"abs(F   2   6)" "angle(F   2   6)"
"abs(F   3   1)" "angle(F   3   1)"
"abs(F   3   2)" "angle(F   3   2)"
"abs(F   3   3)" "angle(F   3   3)"
"abs(F   3   4)" "angle(F   3   4)"
"abs(F   3   5)" "angle(F   3   5)"
"abs(F   3   6)" "angle(F   3   6)"
"abs(F   4   1)" "angle(F   4   1)"
"abs(F   4   2)" "angle(F   4   2)"
"abs(F   4   3)" "angle(F   4   3)"
"abs(F   4   4)" "angle(F   4   4)"
"abs(F   4   5)" "angle(F   4   5)"
"abs(F   4   6)" "angle(F   4   6)"
"abs(F   5   1)" "angle(F   5   1)"
"abs(F   5   2)" "angle(F   5   2)"
"abs(F   5   3)" "angle(F   5   3)"
"abs(F   5   4)" "angle(F   5   4)"
"abs(F   5   5)" "angle(F   5   5)"
"abs(F   5   6)" "angle(F   5   6)"
"abs(F   6   1)" "angle(F   6   1)"
"abs(F   6   2)" "angle(F   6   2)"
"abs(F   6   3)" "angle(F   6   3)"
"abs(F   6   4)" "angle(F   6   4)"
"abs(F   6   5)" "angle(F   6   5)"
"abs(F   6   6)" "angle(F   6   6)"
Zone t="Diffraction force - beta =   0.000 deg",I=    50,F=POINT
  0.1000000E+00  0.8883038E+01  0.1594699E+01  0.1054203E+01 -0.9830208E+00  0.4280515E+04 -0.3135411E+01  0.7462616E+01 -0.2766779E+01  0.2508842E+04 -0.1573074E+01  0.2129923E+00 -0.1815039E+00  0.4365132E+04 -0.1570862E+01  0.1764638E+01  0.7620602E+00  0.1507537E+04 -0.3141360E+01  0.9145713E+01 -0.1798897E+01  0.4102292E+04  0.1571090E+01  0.1175529E+02  0.1571734E+01  0.8883038E+01  0.1594699E+01  0.1054203E+01 -0.9830208E+00  0.4280515E+04 -0.3135411E+01  0.7462616E+01 -0.2766779E+01  0.2508842E+04 -0.1573074E+01  0.2129923E+00 -0.1815039E+00  0.4365132E+04 -0.1570862E+01  0.1764638E+01  0.7620602E+00  0.1507537E+04 -0.3141360E+01  0.9145713E+01 -0.1798897E+01  0.4102292E+04  0.1571090E+01  0.1175529E+02  0.1571734E+01  0.8883038E+01  0.1594699E+01  0.1054203E+01 -0.9830208E+00  0.4280515E+04 -0.3135411E+01  0.7462616E+01 -0.2766779E+01  0.2508842E+04 -0.1573074E+01  0.2129923E+00 -0.1815039E+00  0.4365132E+04 -0.1570862E+01  0.1764638E+01  0.7620602E+00  0.1507537E+04 -0.3141360E+01  0.9145713E+01 -0.1798897E+01  0.4102292E+04  0.1571090E+01  0.1175529E+02  0.1571734E+01
  0.2204082E+00  0.3700308E+02  0.1597002E+01  0.4922157E+01 -0.9659969E+00  0.2132313E+05 -0.3110226E+01  0.3580003E+02 -0.2748073E+01  0.1173560E+05 -0.1573002E+01  0.1024712E+01 -0.1958387E+00  0.2039928E+05 -0.1570821E+01  0.8307762E+01  0.7839956E+00  0.6777438E+04  0.3141135E+01  0.4325615E+02 -0.1768870E+01  0.1772645E+05  0.1571176E+01  0.5614528E+02  0.1571825E+01  0.3700308E+02  0.1597002E+01  0.4922157E+01 -0.9659969E+00  0.2132313E+05 -0.3110226E+01  0.3580003E+02 -0.2748073E+01  0.1173560E+05 -0.1573002E+01  0.1024712E+01 -0.1958387E+00  0.2039928E+05 -0.1570821E+01  0.8307762E+01  0.7839956E+00  0.6777438E+04  0.3141135E+01  0.4325615E+02 -0.1768870E+01  0.1772645E+05  0.1571176E+01  0.5614528E+02  0.1571825E+01  0.3700308E+02  0.1597002E+01  0.4922157E+01 -0.9659969E+00  0.2132313E+05 -0.3110226E+01  0.3580003E+02 -0.2748073E+01  0.1173560E+05 -0.1573002E+01  0.1024712E+01 -0.1958387E+00  0.2039928E+05 -0.1570821E+01  0.8307762E+01  0.7839956E+00  0.6777438E+04  0.3141135E+01  0.4325615E+02 -0.1768870E+01  0.1772645E+05  0.1571176E+01  0.5614528E+02  0.1571825E+01
  0.3408163E+00  0.6287333E+02  0.1586634E+01  0.1096616E+02 -0.9356450E+00  0.5225195E+05 -0.3066630E+01  0.8377195E+02 -0.2708694E+01  0.2622697E+05 -0.1571720E+01  0.2416818E+01 -0.2223156E+00  0.4561169E+05 -0.1570364E+01  0.1881902E+02  0.8249554E+00  0.1408034E+05  0.3134515E+01  0.9887391E+02 -0.1710296E+01  0.3392334E+05  0.1571876E+01  0.1303371E+03  0.1572284E+01  0.6287333E+02  0.1586634E+01  0.1096616E+02 -0.9356450E+00  0.5225195E+05 -0.3066630E+01  0.8377195E+02 -0.2708694E+01  0.2622697E+05 -0.1571720E+01  0.2416818E+01 -0.2223156E+00  0.4561169E+05 -0.1570364E+01  0.1881902E+02  0.8249554E+00  0.1408034E+05  0.3134515E+01  0.9887391E+02 -0.1710296E+01  0.3392334E+05  0.1571876E+01  0.1303371E+03  0.1572284E+01  0.6287333E+02  0.1586634E+01  0.1096616E+02 -0.9356450E+00  0.5225195E+05 -0.3066630E+01  0.8377195E+02 -0.2708694E+01  0.2622697E+05 -0.1571720E+01  0.2416818E+01 -0.2223156E+00  0.4561169E+05 -0.1570364E+01  0.1881902E+02  0.8249554E+00  0.1408034E+05  0.3134515E+01  0.9887391E+02 -0.1710296E+01  0.3392334E+05  0.1571876E+01  0.1303371E+03  0.1572284E+01
  0.4612245E+00  0.5336412E+02  0.1411203E+01  0.1822233E+02 -0.8905158E+00  0.9690316E+05 -0.3008448E+01  0.1488558E+03 -0.2651586E+01  0.4340668E+05 -0.1565333E+01  0.4375633E+01 -0.2624695E+00  0.7601025E+05 -0.1568355E+01  0.3197647E+02  0.8910502E+00  0.2091271E+05  0.3111007E+01  0.1706226E+03 -0.1625647E+01  0.4274938E+05  0.1575052E+01  0.2288367E+03  0.1574203E+01  0.5336412E+02  0.1411203E+01  0.1822233E+02 -0.8905158E+00  0.9690316E+05 -0.3008448E+01  0.1488558E+03 -0.2651586E+01  0.4340668E+05 -0.1565333E+01  0.4375633E+01 -0.2624695E+00  0.7601025E+05 -0.1568355E+01  0.3197647E+02  0.8910502E+00  0.2091271E+05  0.3111007E+01  0.1706226E+03 -0.1625647E+01  0.4274938E+05  0.1575052E+01  0.2288367E+03  0.1574203E+01  0.5336412E+02  0.1411203E+01  0.1822233E+02 -0.8905158E+00  0.9690316E+05 -0.3008448E+01  0.1488558E+03 -0.2651586E+01  0.4340668E+05 -0.1565333E+01  0.4375633E+01 -0.2624695E+00  0.7601025E+05 -0.1568355E+01  0.3197647E+02  0.8910502E+00  0.2091271E+05  0.3111007E+01  0.1706226E+03 -0.1625647E+01  0.4274938E+05  0.1575052E+01  0.2288367E+03  0.1574203E+01
  0.5816327E+00  0.6214386E+02 -0.4105252E+00  0.2552801E+02 -0.8273413E+00  0.1529462E+06 -0.2943193E+01  0.2278231E+03 -0.2578630E+01  0.5968564E+05 -0.1545671E+01  0.6763273E+01 -0.3251906E+00  0.1070457E+06 -0.1563051E+01  0.4643527E+02  0.9939429E+00  0.2520046E+05  0.3052643E+01  0.2535244E+03 -0.1508151E+01  0.3468756E+05  0.1585675E+01  0.3440429E+03  0.1579167E+01  0.6214386E+02 -0.4105252E+00  0.2552801E+02 -0.8273413E+00  0.1529462E+06 -0.2943193E+01  0.2278231E+03 -0.2578630E+01  0.5968564E+05 -0.1545671E+01  0.6763273E+01 -0.3251906E+00  0.1070457E+06 -0.1563051E+01  0.4643527E+02  0.9939429E+00  0.2520046E+05  0.3052643E+01  0.2535244E+03 -0.1508151E+01  0.3468756E+05  0.1585675E+01  0.3440429E+03  0.1579167E+01  0.6214386E+02 -0.4105252E+00  0.2552801E+02 -0.8273413E+00  0.1529462E+06 -0.2943193E+01  0.2278231E+03 -0.2578630E+01  0.5968564E+05 -0.1545671E+01  0.6763273E+01 -0.3251906E+00  0.1070457E+06 -0.1563051E+01  0.4643527E+02  0.9939429E+00  0.2520046E+05  0.3052643E+01  0.2535244E+03 -0.1508151E+01  0.3468756E+05  0.1585675E+01  0.3440429E+03  0.1579167E+01
  0.7020409E+00  0.2586195E+03 -0.6711265E+00  0.3184478E+02 -0.7388851E+00  0.2161434E+06 -0.2879348E+01  0.3174351E+03 -0.2487324E+01  0.7013805E+05 -0.1498514E+01  0.9447733E+01 -0.4125921E+00  0.1342722E+06 -0.1553066E+01  0.6135904E+02  0.1147725E+01  0.2622605E+05  0.2934501E+01  0.3459749E+03 -0.1360544E+01  0.3944572E+04  0.1739625E+01  0.4659253E+03  0.1588688E+01  0.2586195E+03 -0.6711265E+00  0.3184478E+02 -0.7388851E+00  0.2161434E+06 -0.2879348E+01  0.3174351E+03 -0.2487324E+01  0.7013805E+05 -0.1498514E+01  0.9447733E+01 -0.4125921E+00  0.1342722E+06 -0.1553066E+01  0.6135904E+02  0.1147725E+01  0.2622605E+05  0.2934501E+01  0.3459749E+03 -0.1360544E+01  0.3944572E+04  0.1739625E+01  0.4659253E+03  0.1588688E+01  0.2586195E+03 -0.6711265E+00  0.3184478E+02 -0.7388851E+00  0.2161434E+06 -0.2879348E+01  0.3174351E+03 -0.2487324E+01  0.7013805E+05 -0.1498514E+01  0.9447733E+01 -0.4125921E+00  0.1342722E+06 -0.1553066E+01  0.6135904E+02  0.1147725E+01  0.2622605E+05  0.2934501E+01  0.3459749E+03 -0.1360544E+01  0.3944572E+04  0.1739625E+01  0.4659253E+03  0.1588688E+01
  0.8224490E+00  0.5751415E+03 -0.4734213E+00  0.3601435E+02 -0.6146587E+00  0.2815743E+06 -0.2823243E+01  0.4159458E+03 -0.2358691E+01  0.6846720E+05 -0.1392858E+01  0.1287505E+02 -0.5041842E+00  0.1539290E+06 -0.1538587E+01  0.7721162E+02  0.1372470E+01  0.2497158E+05  0.2728488E+01  0.4553150E+03 -0.1189475E+01  0.4892991E+05 -0.1560243E+01  0.5815818E+03  0.1602795E+01  0.5751415E+03 -0.4734213E+00  0.3601435E+02 -0.6146587E+00  0.2815743E+06 -0.2823243E+01  0.4159458E+03 -0.2358691E+01  0.6846720E+05 -0.1392858E+01  0.1287505E+02 -0.5041842E+00  0.1539290E+06 -0.1538587E+01  0.7721162E+02  0.1372470E+01  0.2497158E+05  0.2728488E+01  0.4553150E+03 -0.1189475E+01  0.4892991E+05 -0.1560243E+01  0.5815818E+03  0.1602795E+01  0.5751415E+03 -0.4734213E+00  0.3601435E+02 -0.6146587E+00  0.2815743E+06 -0.2823243E+01  0.4159458E+03 -0.2358691E+01  0.6846720E+05 -0.1392858E+01  0.1287505E+02 -0.5041842E+00  0.1539290E+06 -0.1538587E+01  0.7721162E+02  0.1372470E+01  0.2497158E+05  0.2728488E+01  0.4553150E+03 -0.1189475E+01  0.4892991E+05 -0.1560243E+01  0.5815818E+03  0.1602795E+01
  0.9428571E+00  0.1006259E+04 -0.1149366E+00  0.3734491E+02 -0.4408574E+00  0.3447712E+06 -0.2778010E+01  0.5173021E+03 -0.2199762E+01  0.4893496E+05 -0.1097622E+01  0.1657520E+02 -0.6099629E+00  0.1635892E+06 -0.1522212E+01  0.9664067E+02  0.1665684E+01  0.2349254E+05  0.2423524E+01  0.5933182E+03 -0.1008886E+01  0.1158068E+06 -0.1534544E+01  0.6762861E+03  0.1619236E+01  0.1006259E+04 -0.1149366E+00  0.3734491E+02 -0.4408574E+00  0.3447712E+06 -0.2778010E+01  0.5173021E+03 -0.2199762E+01  0.4893496E+05 -0.1097622E+01  0.1657520E+02 -0.6099629E+00  0.1635892E+06 -0.1522212E+01  0.9664067E+02  0.1665684E+01  0.2349254E+05  0.2423524E+01  0.5933182E+03 -0.1008886E+01  0.1158068E+06 -0.1534544E+01  0.6762861E+03  0.1619236E+01  0.1006259E+04 -0.1149366E+00  0.3734491E+02 -0.4408574E+00  0.3447712E+06 -0.2778010E+01  0.5173021E+03 -0.2199762E+01  0.4893496E+05 -0.1097622E+01  0.1657520E+02 -0.6099629E+00  0.1635892E+06 -0.1522212E+01  0.9664067E+02  0.1665684E+01  0.2349254E+05  0.2423524E+01  0.5933182E+03 -0.1008886E+01  0.1158068E+06 -0.1534544E+01  0.6762861E+03  0.1619236E+01
  0.1063265E+01  0.1651312E+04  0.3592112E+00  0.3560128E+02 -0.1962652E+00  0.4020940E+06 -0.2744200E+01  0.6202120E+03 -0.2002142E+01  0.3378273E+05  0.2906280E+00  0.2065720E+02 -0.7171293E+00  0.1626560E+06 -0.1509146E+01  0.1240696E+03  0.1994355E+01  0.2359255E+05  0.2067112E+01  0.7754758E+03 -0.8315578E+00  0.1831340E+06 -0.1517027E+01  0.7360035E+03  0.1633373E+01  0.1651312E+04  0.3592112E+00  0.3560128E+02 -0.1962652E+00  0.4020940E+06 -0.2744200E+01  0.6202120E+03 -0.2002142E+01  0.3378273E+05  0.2906280E+00  0.2065720E+02 -0.7171293E+00  0.1626560E+06 -0.1509146E+01  0.1240696E+03  0.1994355E+01  0.2359255E+05  0.2067112E+01  0.7754758E+03 -0.8315578E+00  0.1831340E+06 -0.1517027E+01  0.7360035E+03  0.1633373E+01  0.1651312E+04  0.3592112E+00  0.3560128E+02 -0.1962652E+00  0.4020940E+06 -0.2744200E+01  0.6202120E+03 -0.2002142E+01  0.3378273E+05  0.2906280E+00  0.2065720E+02 -0.7171293E+00  0.1626560E+06 -0.1509146E+01  0.1240696E+03  0.1994355E+01  0.2359255E+05  0.2067112E+01  0.7754758E+03 -0.8315578E+00  0.1831340E+06 -0.1517027E+01  0.7360035E+03  0.1633373E+01
  0.1183674E+01  0.2803019E+04  0.8495803E+00  0.3170234E+02  0.1619119E+00  0.4505672E+06 -0.2720800E+01  0.7210104E+03 -0.1773981E+01  0.1038359E+06  0.1214404E+01  0.2490984E+02 -0.8244057E+00  0.1524477E+06 -0.1506826E+01  0.1624631E+03  0.2304107E+01  0.2548895E+05  0.1745346E+01  0.1008016E+04 -0.6679971E+00  0.2364417E+06 -0.1511159E+01  0.7508301E+03  0.1637770E+01  0.2803019E+04  0.8495803E+00  0.3170234E+02  0.1619119E+00  0.4505672E+06 -0.2720800E+01  0.7210104E+03 -0.1773981E+01  0.1038359E+06  0.1214404E+01  0.2490984E+02 -0.8244057E+00  0.1524477E+06 -0.1506826E+01  0.1624631E+03  0.2304107E+01  0.2548895E+05  0.1745346E+01  0.1008016E+04 -0.6679971E+00  0.2364417E+06 -0.1511159E+01  0.7508301E+03  0.1637770E+01  0.2803019E+04  0.8495803E+00  0.3170234E+02  0.1619119E+00  0.4505672E+06 -0.2720800E+01  0.7210104E+03 -0.1773981E+01  0.1038359E+06  0.1214404E+01  0.2490984E+02 -0.8244057E+00  0.1524477E+06 -0.1506826E+01  0.1624631E+03  0.2304107E+01  0.2548895E+05  0.1745346E+01  0.1008016E+04 -0.6679971E+00  0.2364417E+06 -0.1511159E+01  0.7508301E+03  0.1637770E+01
  0.1304082E+01  0.4817896E+04  0.1257683E+01  0.2878142E+02  0.6824315E+00  0.4877356E+06 -0.2706325E+01  0.8214943E+03 -0.1535512E+01  0.2203622E+06  0.1447758E+01  0.2881811E+02 -0.9407290E+00  0.1357449E+06 -0.1524060E+01  0.2105184E+03  0.2560102E+01  0.2811174E+05  0.1497344E+01  0.1281763E+04 -0.5232244E+00  0.2659708E+06 -0.1525570E+01  0.7187084E+03  0.1622951E+01  0.4817896E+04  0.1257683E+01  0.2878142E+02  0.6824315E+00  0.4877356E+06 -0.2706325E+01  0.8214943E+03 -0.1535512E+01  0.2203622E+06  0.1447758E+01  0.2881811E+02 -0.9407290E+00  0.1357449E+06 -0.1524060E+01  0.2105184E+03  0.2560102E+01  0.2811174E+05  0.1497344E+01  0.1281763E+04 -0.5232244E+00  0.2659708E+06 -0.1525570E+01  0.7187084E+03  0.1622951E+01  0.4817896E+04  0.1257683E+01  0.2878142E+02  0.6824315E+00  0.4877356E+06 -0.2706325E+01  0.8214943E+03 -0.1535512E+01  0.2203622E+06  0.1447758E+01  0.2881811E+02 -0.9407290E+00  0.1357449E+06 -0.1524060E+01  0.2105184E+03  0.2560102E+01  0.2811174E+05  0.1497344E+01  0.1281763E+04 -0.5232244E+00  0.2659708E+06 -0.1525570E+01  0.7187084E+03  0.1622951E+01
  0.1424490E+01  0.7902400E+04  0.1567370E+01  0.3143798E+02  0.1285616E+01  0.5114858E+06 -0.2699136E+01  0.9175593E+03 -0.1308748E+01  0.3671386E+06  0.1569874E+01  0.3164713E+02 -0.1080788E+01  0.1158350E+06 -0.1569988E+01  0.2627199E+03  0.2755257E+01  0.3042743E+05  0.1312503E+01  0.1570915E+04 -0.3996920E+00  0.2695809E+06 -0.1570264E+01  0.6454042E+03  0.1576512E+01  0.7902400E+04  0.1567370E+01  0.3143798E+02  0.1285616E+01  0.5114858E+06 -0.2699136E+01  0.9175593E+03 -0.1308748E+01  0.3671386E+06  0.1569874E+01  0.3164713E+02 -0.1080788E+01  0.1158350E+06 -0.1569988E+01  0.2627199E+03  0.2755257E+01  0.3042743E+05  0.1312503E+01  0.1570915E+04 -0.3996920E+00  0.2695809E+06 -0.1570264E+01  0.6454042E+03  0.1576512E+01  0.7902400E+04  0.1567370E+01  0.3143798E+02  0.1285616E+01  0.5114858E+06 -0.2699136E+01  0.9175593E+03 -0.1308748E+01  0.3671386E+06  0.1569874E+01  0.3164713E+02 -0.1080788E+01  0.1158350E+06 -0.1569988E+01  0.2627199E+03  0.2755257E+01  0.3042743E+05  0.1312503E+01  0.1570915E+04 -0.3996920E+00  0.2695809E+06 -0.1570264E+01  0.6454042E+03  0.1576512E+01
  0.1544898E+01  0.1207602E+05  0.1802819E+01  0.4163315E+02  0.1755735E+01  0.5201151E+06 -0.2697808E+01  0.1006236E+04 -0.1109777E+01  0.5335848E+06  0.1653203E+01  0.3353790E+02 -0.1258456E+01  0.9566128E+05 -0.1653123E+01  0.3125110E+03  0.2896240E+01  0.3181979E+05  0.1167647E+01  0.1841628E+04 -0.2991828E+00  0.2520810E+06 -0.1656063E+01  0.5432706E+03  0.1480615E+01  0.1207602E+05  0.1802819E+01  0.4163315E+02  0.1755735E+01  0.5201151E+06 -0.2697808E+01  0.1006236E+04 -0.1109777E+01  0.5335848E+06  0.1653203E+01  0.3353790E+02 -0.1258456E+01  0.9566128E+05 -0.1653123E+01  0.3125110E+03  0.2896240E+01  0.3181979E+05  0.1167647E+01  0.1841628E+04 -0.2991828E+00  0.2520810E+06 -0.1656063E+01  0.5432706E+03  0.1480615E+01  0.1207602E+05  0.1802819E+01  0.4163315E+02  0.1755735E+01  0.5201151E+06 -0.2697808E+01  0.1006236E+04 -0.1109777E+01  0.5335848E+06  0.1653203E+01  0.3353790E+02 -0.1258456E+01  0.9566128E+05 -0.1653123E+01  0.3125110E+03  0.2896240E+01  0.3181979E+05  0.1167647E+01  0.1841628E+04 -0.2991828E+00  0.2520810E+06 -0.1656063E+01  0.5432706E+03  0.1480615E+01
  0.1665306E+01  0.1719683E+05  0.1986510E+01  0.5635774E+02  0.2039335E+01  0.5123617E+06 -0.2701172E+01  0.1098650E+04 -0.9577814E+00  0.7073655E+06  0.1714618E+01  0.3525155E+02 -0.1489411E+01  0.7737839E+05 -0.1780580E+01  0.3534440E+03  0.2994372E+01  0.3220603E+05  0.1041104E+01  0.2057226E+04 -0.2202921E+00  0.2225196E+06 -0.1794065E+01  0.4292578E+03  0.1302323E+01  0.1719683E+05  0.1986510E+01  0.5635774E+02  0.2039335E+01  0.5123617E+06 -0.2701172E+01  0.1098650E+04 -0.9577814E+00  0.7073655E+06  0.1714618E+01  0.3525155E+02 -0.1489411E+01  0.7737839E+05 -0.1780580E+01  0.3534440E+03  0.2994372E+01  0.3220603E+05  0.1041104E+01  0.2057226E+04 -0.2202921E+00  0.2225196E+06 -0.1794065E+01  0.4292578E+03  0.1302323E+01  0.1719683E+05  0.1986510E+01  0.5635774E+02  0.2039335E+01  0.5123617E+06 -0.2701172E+01  0.1098650E+04 -0.9577814E+00  0.7073655E+06  0.1714618E+01  0.3525155E+02 -0.1489411E+01  0.7737839E+05 -0.1780580E+01  0.3534440E+03  0.2994372E+01  0.3220603E+05  0.1041104E+01  0.2057226E+04 -0.2202921E+00  0.2225196E+06 -0.1794065E+01  0.4292578E+03  0.1302323E+01
  0.1785714E+01  0.2297164E+05  0.2133990E+01  0.7337164E+02  0.2205418E+01  0.4877199E+06 -0.2708214E+01  0.1184818E+04 -0.8521486E+00  0.8748216E+06  0.1760447E+01  0.3701698E+02 -0.1802095E+01  0.6214944E+05 -0.1957634E+01  0.3807729E+03  0.3056795E+01  0.3154713E+05  0.9280425E+00  0.2187057E+04 -0.1642583E+00  0.1898841E+06 -0.1993593E+01  0.3278647E+03  0.9816845E+00  0.2297164E+05  0.2133990E+01  0.7337164E+02  0.2205418E+01  0.4877199E+06 -0.2708214E+01  0.1184818E+04 -0.8521486E+00  0.8748216E+06  0.1760447E+01  0.3701698E+02 -0.1802095E+01  0.6214944E+05 -0.1957634E+01  0.3807729E+03  0.3056795E+01  0.3154713E+05  0.9280425E+00  0.2187057E+04 -0.1642583E+00  0.1898841E+06 -0.1993593E+01  0.3278647E+03  0.9816845E+00  0.2297164E+05  0.2133990E+01  0.7337164E+02  0.2205418E+01  0.4877199E+06 -0.2708214E+01  0.1184818E+04 -0.8521486E+00  0.8748216E+06  0.1760447E+01  0.3701698E+02 -0.1802095E+01  0.6214944E+05 -0.1957634E+01  0.3807729E+03  0.3056795E+01  0.3154713E+05  0.9280425E+00  0.2187057E+04 -0.1642583E+00  0.1898841E+06 -0.1993593E+01  0.3278647E+03  0.9816845E+00
  0.1906122E+01  0.2898646E+05  0.2255759E+01  0.9243269E+02  0.2296292E+01  0.4464714E+06 -0.2718077E+01  0.1253038E+04 -0.7833045E+00  0.1021890E+07  0.1794233E+01  0.4204056E+02 -0.2157129E+01  0.5034558E+05 -0.2184476E+01  0.3907100E+03  0.3087758E+01  0.2998031E+05  0.8164808E+00  0.2211342E+04 -0.1332058E+00  0.1618593E+06 -0.2262200E+01  0.2762773E+03  0.4702034E+00  0.2898646E+05  0.2255759E+01  0.9243269E+02  0.2296292E+01  0.4464714E+06 -0.2718077E+01  0.1253038E+04 -0.7833045E+00  0.1021890E+07  0.1794233E+01  0.4204056E+02 -0.2157129E+01  0.5034558E+05 -0.2184476E+01  0.3907100E+03  0.3087758E+01  0.2998031E+05  0.8164808E+00  0.2211342E+04 -0.1332058E+00  0.1618593E+06 -0.2262200E+01  0.2762773E+03  0.4702034E+00  0.2898646E+05  0.2255759E+01  0.9243269E+02  0.2296292E+01  0.4464714E+06 -0.2718077E+01  0.1253038E+04 -0.7833045E+00  0.1021890E+07  0.1794233E+01  0.4204056E+02 -0.2157129E+01  0.5034558E+05 -0.2184476E+01  0.3907100E+03  0.3087758E+01  0.2998031E+05  0.8164808E+00  0.2211342E+04 -0.1332058E+00  0.1618593E+06 -0.2262200E+01  0.2762773E+03  0.4702034E+00
  0.2026531E+01  0.3473150E+05  0.2358857E+01  0.1103795E+03  0.2355767E+01  0.3899678E+06 -0.2730117E+01  0.1292623E+04 -0.7532558E+00  0.1134932E+07  0.1818423E+01  0.5200301E+02 -0.2489644E+01  0.4194140E+05 -0.2451148E+01  0.3825480E+03  0.3088413E+01  0.2772229E+05  0.7053004E+00  0.2125959E+04 -0.1287711E+00  0.1424555E+06 -0.2581565E+01  0.3013101E+03 -0.6278086E-01  0.3473150E+05  0.2358857E+01  0.1103795E+03  0.2355767E+01  0.3899678E+06 -0.2730117E+01  0.1292623E+04 -0.7532558E+00  0.1134932E+07  0.1818423E+01  0.5200301E+02 -0.2489644E+01  0.4194140E+05 -0.2451148E+01  0.3825480E+03  0.3088413E+01  0.2772229E+05  0.7053004E+00  0.2125959E+04 -0.1287711E+00  0.1424555E+06 -0.2581565E+01  0.3013101E+03 -0.6278086E-01  0.3473150E+05  0.2358857E+01  0.1103795E+03  0.2355767E+01  0.3899678E+06 -0.2730117E+01  0.1292623E+04 -0.7532558E+00  0.1134932E+07  0.1818423E+01  0.5200301E+02 -0.2489644E+01  0.4194140E+05 -0.2451148E+01  0.3825480E+03  0.3088413E+01  0.2772229E+05  0.7053004E+00  0.2125959E+04 -0.1287711E+00  0.1424555E+06 -0.2581565E+01  0.3013101E+03 -0.6278086E-01
  0.2146939E+01  0.3961963E+05  0.2449203E+01  0.1260709E+03  0.2380640E+01  0.3207169E+06 -0.2743634E+01  0.1284450E+04 -0.7499622E+00  0.1201364E+07  0.1835132E+01  0.6678506E+02 -0.2751478E+01  0.3619247E+05 -0.2744241E+01  0.3559724E+03  0.3055804E+01  0.2489133E+05  0.5881944E+00  0.1942973E+04 -0.1572791E+00  0.1331110E+06 -0.2921595E+01  0.3717272E+03 -0.4073772E+00  0.3961963E+05  0.2449203E+01  0.1260709E+03  0.2380640E+01  0.3207169E+06 -0.2743634E+01  0.1284450E+04 -0.7499622E+00  0.1201364E+07  0.1835132E+01  0.6678506E+02 -0.2751478E+01  0.3619247E+05 -0.2744241E+01  0.3559724E+03  0.3055804E+01  0.2489133E+05  0.5881944E+00  0.1942973E+04 -0.1572791E+00  0.1331110E+06 -0.2921595E+01  0.3717272E+03 -0.4073772E+00  0.3961963E+05  0.2449203E+01  0.1260709E+03  0.2380640E+01  0.3207169E+06 -0.2743634E+01  0.1284450E+04 -0.7499622E+00  0.1201364E+07  0.1835132E+01  0.6678506E+02 -0.2751478E+01  0.3619247E+05 -0.2744241E+01  0.3559724E+03  0.3055804E+01  0.2489133E+05  0.5881944E+00  0.1942973E+04 -0.1572791E+00  0.1331110E+06 -0.2921595E+01  0.3717272E+03 -0.4073772E+00
  0.2267347E+01  0.4303611E+05  0.2531198E+01  0.1340255E+03  0.2386896E+01  0.2424203E+06 -0.2758042E+01  0.1202431E+04 -0.7973974E+00  0.1211157E+07  0.1845999E+01  0.8499693E+02 -0.2930131E+01  0.3237014E+05 -0.3034857E+01  0.3150805E+03  0.2980537E+01  0.2171083E+05  0.4658191E+00  0.1682419E+04 -0.2277907E+00  0.1297416E+06  0.3040434E+01  0.4377926E+03 -0.5978885E+00  0.4303611E+05  0.2531198E+01  0.1340255E+03  0.2386896E+01  0.2424203E+06 -0.2758042E+01  0.1202431E+04 -0.7973974E+00  0.1211157E+07  0.1845999E+01  0.8499693E+02 -0.2930131E+01  0.3237014E+05 -0.3034857E+01  0.3150805E+03  0.2980537E+01  0.2171083E+05  0.4658191E+00  0.1682419E+04 -0.2277907E+00  0.1297416E+06  0.3040434E+01  0.4377926E+03 -0.5978885E+00  0.4303611E+05  0.2531198E+01  0.1340255E+03  0.2386896E+01  0.2424203E+06 -0.2758042E+01  0.1202431E+04 -0.7973974E+00  0.1211157E+07  0.1845999E+01  0.8499693E+02 -0.2930131E+01  0.3237014E+05 -0.3034857E+01  0.3150805E+03  0.2980537E+01  0.2171083E+05  0.4658191E+00  0.1682419E+04 -0.2277907E+00  0.1297416E+06  0.3040434E+01  0.4377926E+03 -0.5978885E+00
  0.2387755E+01  0.4440006E+05  0.2609617E+01  0.1303668E+03  0.2336997E+01  0.1598659E+06 -0.2772235E+01  0.1047767E+04 -0.9333303E+00  0.1158078E+07  0.1852644E+01  0.1033929E+03 -0.3043205E+01  0.2969970E+05  0.2965405E+01  0.2643374E+03  0.2839157E+01  0.1841278E+05  0.3322597E+00  0.1380840E+04 -0.3598928E+00  0.1295961E+06  0.2758856E+01  0.4690504E+03 -0.7174498E+00  0.4440006E+05  0.2609617E+01  0.1303668E+03  0.2336997E+01  0.1598659E+06 -0.2772235E+01  0.1047767E+04 -0.9333303E+00  0.1158078E+07  0.1852644E+01  0.1033929E+03 -0.3043205E+01  0.2969970E+05  0.2965405E+01  0.2643374E+03  0.2839157E+01  0.1841278E+05  0.3322597E+00  0.1380840E+04 -0.3598928E+00  0.1295961E+06  0.2758856E+01  0.4690504E+03 -0.7174498E+00  0.4440006E+05  0.2609617E+01  0.1303668E+03  0.2336997E+01  0.1598659E+06 -0.2772235E+01  0.1047767E+04 -0.9333303E+00  0.1158078E+07  0.1852644E+01  0.1033929E+03 -0.3043205E+01  0.2969970E+05  0.2965405E+01  0.2643374E+03  0.2839157E+01  0.1841278E+05  0.3322597E+00  0.1380840E+04 -0.3598928E+00  0.1295961E+06  0.2758856E+01  0.4690504E+03 -0.7174498E+00
  0.2508163E+01  0.4324151E+05  0.2689795E+01  0.1138414E+03  0.2180838E+01  0.7863056E+05 -0.2782620E+01  0.9068158E+03 -0.1246006E+01  0.1041273E+07  0.1856613E+01  0.1175527E+03 -0.3104635E+01  0.2738874E+05  0.2703150E+01  0.2166021E+03  0.2593360E+01  0.1499254E+05  0.1863437E+00  0.1094435E+04 -0.5957835E+00  0.1291967E+06  0.2509372E+01  0.4578729E+03 -0.8233843E+00  0.4324151E+05  0.2689795E+01  0.1138414E+03  0.2180838E+01  0.7863056E+05 -0.2782620E+01  0.9068158E+03 -0.1246006E+01  0.1041273E+07  0.1856613E+01  0.1175527E+03 -0.3104635E+01  0.2738874E+05  0.2703150E+01  0.2166021E+03  0.2593360E+01  0.1499254E+05  0.1863437E+00  0.1094435E+04 -0.5957835E+00  0.1291967E+06  0.2509372E+01  0.4578729E+03 -0.8233843E+00  0.4324151E+05  0.2689795E+01  0.1138414E+03  0.2180838E+01  0.7863056E+05 -0.2782620E+01  0.9068158E+03 -0.1246006E+01  0.1041273E+07  0.1856613E+01  0.1175527E+03 -0.3104635E+01  0.2738874E+05  0.2703150E+01  0.2166021E+03  0.2593360E+01  0.1499254E+05  0.1863437E+00  0.1094435E+04 -0.5957835E+00  0.1291967E+06  0.2509372E+01  0.4578729E+03 -0.8233843E+00
  0.2628571E+01  0.3930748E+05  0.2780410E+01  0.9665769E+02  0.1748741E+01  0.4748427E+04 -0.2583807E+01  0.9473918E+03 -0.1709951E+01  0.8664409E+06  0.1859979E+01  0.1227936E+03 -0.3124586E+01  0.2518985E+05  0.2460624E+01  0.1893919E+03  0.2231817E+01  0.1190245E+05  0.2932734E-01  0.9082703E+03 -0.9537352E+00  0.1269549E+06  0.2290335E+01  0.4150255E+03 -0.9466847E+00  0.3930748E+05  0.2780410E+01  0.9665769E+02  0.1748741E+01  0.4748427E+04 -0.2583807E+01  0.9473918E+03 -0.1709951E+01  0.8664409E+06  0.1859979E+01  0.1227936E+03 -0.3124586E+01  0.2518985E+05  0.2460624E+01  0.1893919E+03  0.2231817E+01  0.1190245E+05  0.2932734E-01  0.9082703E+03 -0.9537352E+00  0.1269549E+06  0.2290335E+01  0.4150255E+03 -0.9466847E+00  0.3930748E+05  0.2780410E+01  0.9665769E+02  0.1748741E+01  0.4748427E+04 -0.2583807E+01  0.9473918E+03 -0.1709951E+01  0.8664409E+06  0.1859979E+01  0.1227936E+03 -0.3124586E+01  0.2518985E+05  0.2460624E+01  0.1893919E+03  0.2231817E+01  0.1190245E+05  0.2932734E-01  0.9082703E+03 -0.9537352E+00  0.1269549E+06  0.2290335E+01  0.4150255E+03 -0.9466847E+00
  0.2748980E+01  0.3269447E+05  0.2898976E+01  0.1175903E+03  0.1128793E+01  0.5658442E+05  0.2901544E+00  0.1219475E+04 -0.2051475E+01  0.6464847E+06  0.1866513E+01  0.1146141E+03 -0.3115185E+01  0.2302497E+05  0.2229223E+01  0.1897652E+03  0.1855749E+01  0.8951025E+04 -0.1575973E+00  0.8614167E+03 -0.1357929E+01  0.1227437E+06  0.2092302E+01  0.3563842E+03 -0.1094182E+01  0.3269447E+05  0.2898976E+01  0.1175903E+03  0.1128793E+01  0.5658442E+05  0.2901544E+00  0.1219475E+04 -0.2051475E+01  0.6464847E+06  0.1866513E+01  0.1146141E+03 -0.3115185E+01  0.2302497E+05  0.2229223E+01  0.1897652E+03  0.1855749E+01  0.8951025E+04 -0.1575973E+00  0.8614167E+03 -0.1357929E+01  0.1227437E+06  0.2092302E+01  0.3563842E+03 -0.1094182E+01  0.3269447E+05  0.2898976E+01  0.1175903E+03  0.1128793E+01  0.5658442E+05  0.2901544E+00  0.1219475E+04 -0.2051475E+01  0.6464847E+06  0.1866513E+01  0.1146141E+03 -0.3115185E+01  0.2302497E+05  0.2229223E+01  0.1897652E+03  0.1855749E+01  0.8951025E+04 -0.1575973E+00  0.8614167E+03 -0.1357929E+01  0.1227437E+06  0.2092302E+01  0.3563842E+03 -0.1094182E+01
  0.2869388E+01  0.2407169E+05  0.3092168E+01  0.1797388E+03  0.8119938E+00  0.1003835E+06  0.2799830E+00  0.1562493E+04 -0.2218593E+01  0.4012173E+06  0.1887514E+01  0.9263372E+02 -0.3092628E+01  0.2058343E+05  0.2011451E+01  0.2020970E+03  0.1582636E+01  0.6442795E+04 -0.3632552E+00  0.8918323E+03 -0.1679438E+01  0.1162625E+06  0.1910757E+01  0.2882374E+03 -0.1261310E+01  0.2407169E+05  0.3092168E+01  0.1797388E+03  0.8119938E+00  0.1003835E+06  0.2799830E+00  0.1562493E+04 -0.2218593E+01  0.4012173E+06  0.1887514E+01  0.9263372E+02 -0.3092628E+01  0.2058343E+05  0.2011451E+01  0.2020970E+03  0.1582636E+01  0.6442795E+04 -0.3632552E+00  0.8918323E+03 -0.1679438E+01  0.1162625E+06  0.1910757E+01  0.2882374E+03 -0.1261310E+01  0.2407169E+05  0.3092168E+01  0.1797388E+03  0.8119938E+00  0.1003835E+06  0.2799830E+00  0.1562493E+04 -0.2218593E+01  0.4012173E+06  0.1887514E+01  0.9263372E+02 -0.3092628E+01  0.2058343E+05  0.2011451E+01  0.2020970E+03  0.1582636E+01  0.6442795E+04 -0.3632552E+00  0.8918323E+03 -0.1679438E+01  0.1162625E+06  0.1910757E+01  0.2882374E+03 -0.1261310E+01
  0.2989796E+01  0.1540653E+05 -0.2767967E+01  0.2481535E+03  0.7060353E+00  0.1239958E+06  0.2637967E+00  0.1862283E+04 -0.2300985E+01  0.1564491E+06  0.1996867E+01  0.6281145E+02 -0.3045453E+01  0.1820964E+05  0.1812974E+01  0.2139538E+03  0.1376294E+01  0.4424823E+04 -0.6204796E+00  0.9461702E+03 -0.1912857E+01  0.1081583E+06  0.1750409E+01  0.2352625E+03 -0.1471882E+01  0.1540653E+05 -0.2767967E+01  0.2481535E+03  0.7060353E+00  0.1239958E+06  0.2637967E+00  0.1862283E+04 -0.2300985E+01  0.1564491E+06  0.1996867E+01  0.6281145E+02 -0.3045453E+01  0.1820964E+05  0.1812974E+01  0.2139538E+03  0.1376294E+01  0.4424823E+04 -0.6204796E+00  0.9461702E+03 -0.1912857E+01  0.1081583E+06  0.1750409E+01  0.2352625E+03 -0.1471882E+01  0.1540653E+05 -0.2767967E+01  0.2481535E+03  0.7060353E+00  0.1239958E+06  0.2637967E+00  0.1862283E+04 -0.2300985E+01  0.1564491E+06  0.1996867E+01  0.6281145E+02 -0.3045453E+01  0.1820964E+05  0.1812974E+01  0.2139538E+03  0.1376294E+01  0.4424823E+04 -0.6204796E+00  0.9461702E+03 -0.1912857E+01  0.1081583E+06  0.1750409E+01  0.2352625E+03 -0.1471882E+01
  0.3110204E+01  0.1263675E+05 -0.1865400E+01  0.2996921E+03  0.6211665E+00  0.1269764E+06  0.2454362E+00  0.2082133E+04 -0.2343293E+01  0.7327980E+05 -0.1768448E+01  0.3175128E+02 -0.2729753E+01  0.1576540E+05  0.1628689E+01  0.1907331E+03  0.1147012E+01  0.2860962E+04 -0.9868078E+00  0.8214895E+03 -0.2202493E+01  0.9870168E+05  0.1610508E+01  0.1408772E+03 -0.1870264E+01  0.1263675E+05 -0.1865400E+01  0.2996921E+03  0.6211665E+00  0.1269764E+06  0.2454362E+00  0.2082133E+04 -0.2343293E+01  0.7327980E+05 -0.1768448E+01  0.3175128E+02 -0.2729753E+01  0.1576540E+05  0.1628689E+01  0.1907331E+03  0.1147012E+01  0.2860962E+04 -0.9868078E+00  0.8214895E+03 -0.2202493E+01  0.9870168E+05  0.1610508E+01  0.1408772E+03 -0.1870264E+01  0.1263675E+05 -0.1865400E+01  0.2996921E+03  0.6211665E+00  0.1269764E+06  0.2454362E+00  0.2082133E+04 -0.2343293E+01  0.7327980E+05 -0.1768448E+01  0.3175128E+02 -0.2729753E+01  0.1576540E+05  0.1628689E+01  0.1907331E+03  0.1147012E+01  0.2860962E+04 -0.9868078E+00  0.8214895E+03 -0.2202493E+01  0.9870168E+05  0.1610508E+01  0.1408772E+03 -0.1870264E+01