VARIABLES="w (rad/s)"  
"abs(F   1   1)" "angle(F   1   1)"
"abs(F   1   2)" "angle(F   1   2)"
"abs(F   1   3)" "angle(F   1   3)"
"abs(F   1   4)" "angle(F   1   4)"
"abs(F   1   5)" "angle(F   1   5)"
"abs(F   1   6)" "angle(F   1   6)"
"abs(F   2   1)" "angle(F   2   1)"
"abs(F   2   2)" "angle(F   2   2)"
"abs(F   2   3)" "angle(F   2   3)"
"abs(F   2   4)" "angle(F   2   4)"
"abs(F   2   5)" "angle(F   2   5)"
"abs(F   2   6)" "angle(F   2   6)"
"abs(F   3   1)" "angle(F   3   1)"
"abs(F   3   2)" "angle(F   3   2)"
"abs(F   3   3)" "angle(F   3   3)"
"abs(F   3   4)" "angle(F   3   4)"
"abs(F   3   5)" "angle(F   3   5)"
"abs(F   3   6)" "angle(F   3   6)"
"abs(F   4   1)" "angle(F   4   1)"
"abs(F   4   2)" "angle(F   4   2)"
"abs(F   4   3)" "angle(F   4   3)"
"abs(F   4   4)" "angle(F   4   4)"
"abs(F   4   5)" "angle(F   4   5)"
"abs(F   4   6)" "angle(F   4   6)"
"abs(F   5   1)" "angle(F   5   1)"
"abs(F   5   2)" "angle(F   5   2)"
"abs(F   5   3)" "angle(F   5   3)"
"abs(F   5   4)" "angle(F   5   4)"
"abs(F   5   5)" "angle(F   5   5)"
"abs(F   5   6)" "angle(F   5   6)"
"abs(F   6   1)" "angle(F   6   1)"
"abs(F   6   2)" "angle(F   6   2)"
"abs(F   6   3)" "angle(F   6   3)"
"abs(F   6   4)" "angle(F   6   4)"
"abs(F   6   5)" "angle(F   6   5)"
"abs(F   6   6)" "angle(F   6   6)"
Zone t="Excitation force - beta =   0.000 deg",I=    50,F=POINT
  0.1000000E+00  0.3172801E+03 -0.1571457E+01  0.1054466E+01 -0.9826996E+00  0.8829136E+06 -0.2996935E-04  0.7432876E+01 -0.2769377E+01  0.9327418E+04 -0.1571404E+01  0.1580558E+00 -0.2087985E+00  0.6013414E+04 -0.1570845E+01  0.1763005E+01  0.7629437E+00  0.6326200E+04 -0.5555890E-04  0.1012868E+02 -0.2064934E+01  0.7474083E+04  0.1570958E+01  0.1451321E+02  0.1571973E+01  0.3172801E+03 -0.1571457E+01  0.1054466E+01 -0.9826996E+00  0.8829136E+06 -0.2996935E-04  0.7432876E+01 -0.2769377E+01  0.9327418E+04 -0.1571404E+01  0.1580558E+00 -0.2087985E+00  0.6013414E+04 -0.1570845E+01  0.1763005E+01  0.7629437E+00  0.6326200E+04 -0.5555890E-04  0.1012868E+02 -0.2064934E+01  0.7474083E+04  0.1570958E+01  0.1451321E+02  0.1571973E+01  0.3172801E+03 -0.1571457E+01  0.1054466E+01 -0.9826996E+00  0.8829136E+06 -0.2996935E-04  0.7432876E+01 -0.2769377E+01  0.9327418E+04 -0.1571404E+01  0.1580558E+00 -0.2087985E+00  0.6013414E+04 -0.1570845E+01  0.1763005E+01  0.7629437E+00  0.6326200E+04 -0.5555890E-04  0.1012868E+02 -0.2064934E+01  0.7474083E+04  0.1570958E+01  0.1451321E+02  0.1571973E+01
  0.2204082E+00  0.1546085E+04 -0.1571423E+01  0.4921067E+01 -0.9665675E+00  0.8645422E+06 -0.7735050E-03  0.3574348E+02 -0.2751645E+01  0.4481948E+05 -0.1571375E+01  0.7520919E+00 -0.2310915E+00  0.2804530E+05 -0.1570814E+01  0.8305333E+01  0.7843088E+00  0.4942214E+04  0.3140966E+01  0.4771481E+02 -0.2044915E+01  0.3271252E+05  0.1570990E+01  0.6938773E+02  0.1570768E+01  0.1546085E+04 -0.1571423E+01  0.4921067E+01 -0.9665675E+00  0.8645422E+06 -0.7735050E-03  0.3574348E+02 -0.2751645E+01  0.4481948E+05 -0.1571375E+01  0.7520919E+00 -0.2310915E+00  0.2804530E+05 -0.1570814E+01  0.8305333E+01  0.7843088E+00  0.4942214E+04  0.3140966E+01  0.4771481E+02 -0.2044915E+01  0.3271252E+05  0.1570990E+01  0.6938773E+02  0.1570768E+01  0.1546085E+04 -0.1571423E+01  0.4921067E+01 -0.9665675E+00  0.8645422E+06 -0.7735050E-03  0.3574348E+02 -0.2751645E+01  0.4481948E+05 -0.1571375E+01  0.7520919E+00 -0.2310915E+00  0.2804530E+05 -0.1570814E+01  0.8305333E+01  0.7843088E+00  0.4942214E+04  0.3140966E+01  0.4771481E+02 -0.2044915E+01  0.3271252E+05  0.1570990E+01  0.6938773E+02  0.1570768E+01
  0.3408163E+00  0.3715537E+04 -0.1571065E+01  0.1096825E+02 -0.9359995E+00  0.8311574E+06 -0.4708220E-02  0.8364334E+02 -0.2712351E+01  0.1051474E+06 -0.1571027E+01  0.1767038E+01 -0.2692377E+00  0.6248730E+05 -0.1570481E+01  0.1881695E+02  0.8251555E+00  0.2147845E+05  0.3136953E+01  0.1077744E+03 -0.1999538E+01  0.6442996E+05  0.1571354E+01  0.1613552E+03  0.1570961E+01  0.3715537E+04 -0.1571065E+01  0.1096825E+02 -0.9359995E+00  0.8311574E+06 -0.4708220E-02  0.8364334E+02 -0.2712351E+01  0.1051474E+06 -0.1571027E+01  0.1767038E+01 -0.2692377E+00  0.6248730E+05 -0.1570481E+01  0.1881695E+02  0.8251555E+00  0.2147845E+05  0.3136953E+01  0.1077744E+03 -0.1999538E+01  0.6442996E+05  0.1571354E+01  0.1613552E+03  0.1570961E+01  0.3715537E+04 -0.1571065E+01  0.1096825E+02 -0.9359995E+00  0.8311574E+06 -0.4708220E-02  0.8364334E+02 -0.2712351E+01  0.1051474E+06 -0.1571027E+01  0.1767038E+01 -0.2692377E+00  0.6248730E+05 -0.1570481E+01  0.1881695E+02  0.8251555E+00  0.2147845E+05  0.3136953E+01  0.1077744E+03 -0.1999538E+01  0.6442996E+05  0.1571354E+01  0.1613552E+03  0.1570961E+01
  0.4612245E+00  0.6845750E+04 -0.1569557E+01  0.1823288E+02 -0.8909669E+00  0.7830373E+06 -0.1642919E-01  0.1485934E+03 -0.2655267E+01  0.1874027E+06 -0.1569531E+01  0.3202849E+01 -0.3259862E+00  0.1036270E+06 -0.1569005E+01  0.3198383E+02  0.8909413E+00  0.3905584E+05  0.3125218E+01  0.1823634E+03 -0.1932238E+01  0.8654580E+05  0.1572883E+01  0.2839780E+03  0.1572397E+01  0.6845750E+04 -0.1569557E+01  0.1823288E+02 -0.8909669E+00  0.7830373E+06 -0.1642919E-01  0.1485934E+03 -0.2655267E+01  0.1874027E+06 -0.1569531E+01  0.3202849E+01 -0.3259862E+00  0.1036270E+06 -0.1569005E+01  0.3198383E+02  0.8909413E+00  0.3905584E+05  0.3125218E+01  0.1823634E+03 -0.1932238E+01  0.8654580E+05  0.1572883E+01  0.2839780E+03  0.1572397E+01  0.6845750E+04 -0.1569557E+01  0.1823288E+02 -0.8909669E+00  0.7830373E+06 -0.1642919E-01  0.1485934E+03 -0.2655267E+01  0.1874027E+06 -0.1569531E+01  0.3202849E+01 -0.3259862E+00  0.1036270E+06 -0.1569005E+01  0.3198383E+02  0.8909413E+00  0.3905584E+05  0.3125218E+01  0.1823634E+03 -0.1932238E+01  0.8654580E+05  0.1572883E+01  0.2839780E+03  0.1572397E+01
  0.5816327E+00  0.1094126E+05 -0.1565589E+01  0.2555443E+02 -0.8281518E+00  0.7231251E+06 -0.4170024E-01  0.2273152E+03 -0.2582172E+01  0.2873947E+06 -0.1565579E+01  0.4956880E+01 -0.4149128E+00  0.1451123E+06 -0.1565083E+01  0.4644223E+02  0.9940796E+00  0.5375826E+05  0.3099939E+01  0.2624785E+03 -0.1834575E+01  0.8384101E+05  0.1576926E+01  0.4283542E+03  0.1576311E+01  0.1094126E+05 -0.1565589E+01  0.2555443E+02 -0.8281518E+00  0.7231251E+06 -0.4170024E-01  0.2273152E+03 -0.2582172E+01  0.2873947E+06 -0.1565579E+01  0.4956880E+01 -0.4149128E+00  0.1451123E+06 -0.1565083E+01  0.4644223E+02  0.9940796E+00  0.5375826E+05  0.3099939E+01  0.2624785E+03 -0.1834575E+01  0.8384101E+05  0.1576926E+01  0.4283542E+03  0.1576311E+01  0.1094126E+05 -0.1565589E+01  0.2555443E+02 -0.8281518E+00  0.7231251E+06 -0.4170024E-01  0.2273152E+03 -0.2582172E+01  0.2873947E+06 -0.1565579E+01  0.4956880E+01 -0.4149128E+00  0.1451123E+06 -0.1565083E+01  0.4644223E+02  0.9940796E+00  0.5375826E+05  0.3099939E+01  0.2624785E+03 -0.1834575E+01  0.8384101E+05  0.1576926E+01  0.4283542E+03  0.1576311E+01
  0.7020409E+00  0.1594663E+05 -0.1558095E+01  0.3188840E+02 -0.7406379E+00  0.6565567E+06 -0.8545069E-01  0.3166298E+03 -0.2490826E+01  0.3991289E+06 -0.1558105E+01  0.6973222E+01 -0.5380238E+00  0.1810227E+06 -0.1557644E+01  0.6137763E+02  0.1147843E+01  0.6321064E+05  0.3056182E+01  0.3418948E+03 -0.1701922E+01  0.4701634E+05  0.1584825E+01  0.5828424E+03  0.1583797E+01  0.1594663E+05 -0.1558095E+01  0.3188840E+02 -0.7406379E+00  0.6565567E+06 -0.8545069E-01  0.3166298E+03 -0.2490826E+01  0.3991289E+06 -0.1558105E+01  0.6973222E+01 -0.5380238E+00  0.1810227E+06 -0.1557644E+01  0.6137763E+02  0.1147843E+01  0.6321064E+05  0.3056182E+01  0.3418948E+03 -0.1701922E+01  0.4701634E+05  0.1584825E+01  0.5828424E+03  0.1583797E+01  0.1594663E+05 -0.1558095E+01  0.3188840E+02 -0.7406379E+00  0.6565567E+06 -0.8545069E-01  0.3166298E+03 -0.2490826E+01  0.3991289E+06 -0.1558105E+01  0.6973222E+01 -0.5380238E+00  0.1810227E+06 -0.1557644E+01  0.6137763E+02  0.1147843E+01  0.6321064E+05  0.3056182E+01  0.3418948E+03 -0.1701922E+01  0.4701634E+05  0.1584825E+01  0.5828424E+03  0.1583797E+01
  0.8224490E+00  0.2169386E+05 -0.1547198E+01  0.3608853E+02 -0.6176873E+00  0.5887292E+06 -0.1502645E+00  0.4146905E+03 -0.2361923E+01  0.5143008E+06 -0.1547230E+01  0.9778949E+01 -0.6556377E+00  0.2067031E+06 -0.1546811E+01  0.7724813E+02  0.1372583E+01  0.6699488E+05  0.2991394E+01  0.4239266E+03 -0.1527860E+01  0.2356160E+05 -0.1548688E+01  0.7326870E+03  0.1594771E+01  0.2169386E+05 -0.1547198E+01  0.3608853E+02 -0.6176873E+00  0.5887292E+06 -0.1502645E+00  0.4146905E+03 -0.2361923E+01  0.5143008E+06 -0.1547230E+01  0.9778949E+01 -0.6556377E+00  0.2067031E+06 -0.1546811E+01  0.7724813E+02  0.1372583E+01  0.6699488E+05  0.2991394E+01  0.4239266E+03 -0.1527860E+01  0.2356160E+05 -0.1548688E+01  0.7326870E+03  0.1594771E+01  0.2169386E+05 -0.1547198E+01  0.3608853E+02 -0.6176873E+00  0.5887292E+06 -0.1502645E+00  0.4146905E+03 -0.2361923E+01  0.5143008E+06 -0.1547230E+01  0.9778949E+01 -0.6556377E+00  0.2067031E+06 -0.1546811E+01  0.7724813E+02  0.1372583E+01  0.6699488E+05  0.2991394E+01  0.4239266E+03 -0.1527860E+01  0.2356160E+05 -0.1548688E+01  0.7326870E+03  0.1594771E+01
  0.9428571E+00  0.2785482E+05 -0.1534902E+01  0.3743444E+02 -0.4463228E+00  0.5236187E+06 -0.2363521E+00  0.5154711E+03 -0.2202535E+01  0.6224153E+06 -0.1534960E+01  0.1304516E+02 -0.7843561E+00  0.2194665E+06 -0.1534586E+01  0.9670500E+02  0.1665620E+01  0.6604620E+05  0.2905382E+01  0.5201849E+03 -0.1316440E+01  0.1173198E+06 -0.1534960E+01  0.8611622E+03  0.1607245E+01  0.2785482E+05 -0.1534902E+01  0.3743444E+02 -0.4463228E+00  0.5236187E+06 -0.2363521E+00  0.5154711E+03 -0.2202535E+01  0.6224153E+06 -0.1534960E+01  0.1304516E+02 -0.7843561E+00  0.2194665E+06 -0.1534586E+01  0.9670500E+02  0.1665620E+01  0.6604620E+05  0.2905382E+01  0.5201849E+03 -0.1316440E+01  0.1173198E+06 -0.1534960E+01  0.8611622E+03  0.1607245E+01  0.2785482E+05 -0.1534902E+01  0.3743444E+02 -0.4463228E+00  0.5236187E+06 -0.2363521E+00  0.5154711E+03 -0.2202535E+01  0.6224153E+06 -0.1534960E+01  0.1304516E+02 -0.7843561E+00  0.2194665E+06 -0.1534586E+01  0.9670500E+02  0.1665620E+01  0.6604620E+05  0.2905382E+01  0.5201849E+03 -0.1316440E+01  0.1173198E+06 -0.1534960E+01  0.8611622E+03  0.1607245E+01
  0.1063265E+01  0.3395739E+05 -0.1525255E+01  0.3567184E+02 -0.2058088E+00  0.4633597E+06 -0.3425015E+00  0.6177239E+03 -0.2004283E+01  0.7122496E+06 -0.1525338E+01  0.1697452E+02 -0.9010983E+00  0.2189804E+06 -0.1525014E+01  0.1241675E+03  0.1994057E+01  0.6184046E+05  0.2799492E+01  0.6511137E+03 -0.1082460E+01  0.2162066E+06 -0.1525223E+01  0.9522517E+03  0.1617332E+01  0.3395739E+05 -0.1525255E+01  0.3567184E+02 -0.2058088E+00  0.4633597E+06 -0.3425015E+00  0.6177239E+03 -0.2004283E+01  0.7122496E+06 -0.1525338E+01  0.1697452E+02 -0.9010983E+00  0.2189804E+06 -0.1525014E+01  0.1241675E+03  0.1994057E+01  0.6184046E+05  0.2799492E+01  0.6511137E+03 -0.1082460E+01  0.2162066E+06 -0.1525223E+01  0.9522517E+03  0.1617332E+01  0.3395739E+05 -0.1525255E+01  0.3567184E+02 -0.2058088E+00  0.4633597E+06 -0.3425015E+00  0.6177239E+03 -0.2004283E+01  0.7122496E+06 -0.1525338E+01  0.1697452E+02 -0.9010983E+00  0.2189804E+06 -0.1525014E+01  0.1241675E+03  0.1994057E+01  0.6184046E+05  0.2799492E+01  0.6511137E+03 -0.1082460E+01  0.2162066E+06 -0.1525223E+01  0.9522517E+03  0.1617332E+01
  0.1183674E+01  0.3947625E+05 -0.1523894E+01  0.3163038E+02  0.1460914E+00  0.4087578E+06 -0.4670625E+00  0.7178562E+03 -0.1775183E+01  0.7745134E+06 -0.1524004E+01  0.2144131E+02 -0.1003329E+01  0.2071428E+06 -0.1523728E+01  0.1625811E+03  0.2303451E+01  0.5581953E+05  0.2675185E+01  0.8320363E+03 -0.8536280E+00  0.3009535E+06 -0.1523922E+01  0.9942646E+03  0.1619214E+01  0.3947625E+05 -0.1523894E+01  0.3163038E+02  0.1460914E+00  0.4087578E+06 -0.4670625E+00  0.7178562E+03 -0.1775183E+01  0.7745134E+06 -0.1524004E+01  0.2144131E+02 -0.1003329E+01  0.2071428E+06 -0.1523728E+01  0.1625811E+03  0.2303451E+01  0.5581953E+05  0.2675185E+01  0.8320363E+03 -0.8536280E+00  0.3009535E+06 -0.1523922E+01  0.9942646E+03  0.1619214E+01  0.3947625E+05 -0.1523894E+01  0.3163038E+02  0.1460914E+00  0.4087578E+06 -0.4670625E+00  0.7178562E+03 -0.1775183E+01  0.7745134E+06 -0.1524004E+01  0.2144131E+02 -0.1003329E+01  0.2071428E+06 -0.1523728E+01  0.1625811E+03  0.2303451E+01  0.5581953E+05  0.2675185E+01  0.8320363E+03 -0.8536280E+00  0.3009535E+06 -0.1523922E+01  0.9942646E+03  0.1619214E+01
  0.1304082E+01  0.4396800E+05 -0.1537037E+01  0.2836460E+02  0.6628534E+00  0.3597812E+06 -0.6084697E+00  0.8178754E+03 -0.1535716E+01  0.8044374E+06 -0.1537170E+01  0.2602328E+02 -0.1101127E+01  0.1873936E+06 -0.1536942E+01  0.2106485E+03  0.2559178E+01  0.4911631E+05  0.2534128E+01  0.1061791E+04 -0.6518286E+00  0.3578859E+06 -0.1537159E+01  0.9836187E+03  0.1606289E+01  0.4396800E+05 -0.1537037E+01  0.2836460E+02  0.6628534E+00  0.3597812E+06 -0.6084697E+00  0.8178754E+03 -0.1535716E+01  0.8044374E+06 -0.1537170E+01  0.2602328E+02 -0.1101127E+01  0.1873936E+06 -0.1536942E+01  0.2106485E+03  0.2559178E+01  0.4911631E+05  0.2534128E+01  0.1061791E+04 -0.6518286E+00  0.3578859E+06 -0.1537159E+01  0.9836187E+03  0.1606289E+01  0.4396800E+05 -0.1537037E+01  0.2836460E+02  0.6628534E+00  0.3597812E+06 -0.6084697E+00  0.8178754E+03 -0.1535716E+01  0.8044374E+06 -0.1537170E+01  0.2602328E+02 -0.1101127E+01  0.1873936E+06 -0.1536942E+01  0.2106485E+03  0.2559178E+01  0.4911631E+05  0.2534128E+01  0.1061791E+04 -0.6518286E+00  0.3578859E+06 -0.1537159E+01  0.9836187E+03  0.1606289E+01
  0.1424490E+01  0.4719402E+05 -0.1570221E+01  0.3059284E+02  0.1275987E+01  0.3160781E+06 -0.7654491E+00  0.9137682E+03 -0.1307985E+01  0.8028737E+06 -0.1570374E+01  0.3002057E+02 -0.1206779E+01  0.1635612E+06 -0.1570217E+01  0.2628484E+03  0.2754095E+01  0.4253472E+05  0.2377895E+01  0.1319223E+04 -0.4859638E+00  0.3823765E+06 -0.1570387E+01  0.9245968E+03  0.1571506E+01  0.4719402E+05 -0.1570221E+01  0.3059284E+02  0.1275987E+01  0.3160781E+06 -0.7654491E+00  0.9137682E+03 -0.1307985E+01  0.8028737E+06 -0.1570374E+01  0.3002057E+02 -0.1206779E+01  0.1635612E+06 -0.1570217E+01  0.2628484E+03  0.2754095E+01  0.4253472E+05  0.2377895E+01  0.1319223E+04 -0.4859638E+00  0.3823765E+06 -0.1570387E+01  0.9245968E+03  0.1571506E+01  0.4719402E+05 -0.1570221E+01  0.3059284E+02  0.1275987E+01  0.3160781E+06 -0.7654491E+00  0.9137682E+03 -0.1307985E+01  0.8028737E+06 -0.1570374E+01  0.3002057E+02 -0.1206779E+01  0.1635612E+06 -0.1570217E+01  0.2628484E+03  0.2754095E+01  0.4253472E+05  0.2377895E+01  0.1319223E+04 -0.4859638E+00  0.3823765E+06 -0.1570387E+01  0.9245968E+03  0.1571506E+01
  0.1544898E+01  0.4913389E+05 -0.1627341E+01  0.4056202E+02  0.1758676E+01  0.2771339E+06 -0.9370413E+00  0.1002623E+04 -0.1108406E+01  0.7750484E+06 -0.1627495E+01  0.3337171E+02 -0.1322798E+01  0.1389069E+06 -0.1627449E+01  0.3126278E+03  0.2894831E+01  0.3644091E+05  0.2209035E+01  0.1572064E+04 -0.3568298E+00  0.3779771E+06 -0.1627587E+01  0.8275087E+03  0.1507350E+01  0.4913389E+05 -0.1627341E+01  0.4056202E+02  0.1758676E+01  0.2771339E+06 -0.9370413E+00  0.1002623E+04 -0.1108406E+01  0.7750484E+06 -0.1627495E+01  0.3337171E+02 -0.1322798E+01  0.1389069E+06 -0.1627449E+01  0.3126278E+03  0.2894831E+01  0.3644091E+05  0.2209035E+01  0.1572064E+04 -0.3568298E+00  0.3779771E+06 -0.1627587E+01  0.8275087E+03  0.1507350E+01  0.4913389E+05 -0.1627341E+01  0.4056202E+02  0.1758676E+01  0.2771339E+06 -0.9370413E+00  0.1002623E+04 -0.1108406E+01  0.7750484E+06 -0.1627495E+01  0.3337171E+02 -0.1322798E+01  0.1389069E+06 -0.1627449E+01  0.3126278E+03  0.2894831E+01  0.3644091E+05  0.2209035E+01  0.1572064E+04 -0.3568298E+00  0.3779771E+06 -0.1627587E+01  0.8275087E+03  0.1507350E+01
  0.1665306E+01  0.4992296E+05 -0.1710356E+01  0.5524736E+02  0.2046883E+01  0.2423962E+06 -0.1122364E+01  0.1095415E+04 -0.9562752E+00  0.7281008E+06 -0.1710494E+01  0.3622623E+02 -0.1454046E+01  0.1156840E+06 -0.1710529E+01  0.3535426E+03  0.2992667E+01  0.3091355E+05  0.2024137E+01  0.1783046E+04 -0.2595733E+00  0.3531227E+06 -0.1710737E+01  0.7053349E+03  0.1402783E+01  0.4992296E+05 -0.1710356E+01  0.5524736E+02  0.2046883E+01  0.2423962E+06 -0.1122364E+01  0.1095415E+04 -0.9562752E+00  0.7281008E+06 -0.1710494E+01  0.3622623E+02 -0.1454046E+01  0.1156840E+06 -0.1710529E+01  0.3535426E+03  0.2992667E+01  0.3091355E+05  0.2024137E+01  0.1783046E+04 -0.2595733E+00  0.3531227E+06 -0.1710737E+01  0.7053349E+03  0.1402783E+01  0.4992296E+05 -0.1710356E+01  0.5524736E+02  0.2046883E+01  0.2423962E+06 -0.1122364E+01  0.1095415E+04 -0.9562752E+00  0.7281008E+06 -0.1710494E+01  0.3622623E+02 -0.1454046E+01  0.1156840E+06 -0.1710529E+01  0.3535426E+03  0.2992667E+01  0.3091355E+05  0.2024137E+01  0.1783046E+04 -0.2595733E+00  0.3531227E+06 -0.1710737E+01  0.7053349E+03  0.1402783E+01
  0.1785714E+01  0.4977772E+05 -0.1819737E+01  0.7232552E+02  0.2212533E+01  0.2113645E+06 -0.1321163E+01  0.1182063E+04 -0.8507524E+00  0.6691651E+06 -0.1819814E+01  0.3744576E+02 -0.1625932E+01  0.9501598E+05 -0.1820117E+01  0.3808520E+03  0.3054703E+01  0.2610961E+05  0.1828109E+01  0.1920324E+04 -0.1927639E+00  0.3163596E+06 -0.1819584E+01  0.5733821E+03  0.1238895E+01  0.4977772E+05 -0.1819737E+01  0.7232552E+02  0.2212533E+01  0.2113645E+06 -0.1321163E+01  0.1182063E+04 -0.8507524E+00  0.6691651E+06 -0.1819814E+01  0.3744576E+02 -0.1625932E+01  0.9501598E+05 -0.1820117E+01  0.3808520E+03  0.3054703E+01  0.2610961E+05  0.1828109E+01  0.1920324E+04 -0.1927639E+00  0.3163596E+06 -0.1819584E+01  0.5733821E+03  0.1238895E+01  0.4977772E+05 -0.1819737E+01  0.7232552E+02  0.2212533E+01  0.2113645E+06 -0.1321163E+01  0.1182063E+04 -0.8507524E+00  0.6691651E+06 -0.1819814E+01  0.3744576E+02 -0.1625932E+01  0.9501598E+05 -0.1820117E+01  0.3808520E+03  0.3054703E+01  0.2610961E+05  0.1828109E+01  0.1920324E+04 -0.1927639E+00  0.3163596E+06 -0.1819584E+01  0.5733821E+03  0.1238895E+01
  0.1906122E+01  0.4892228E+05 -0.1955014E+01  0.9157285E+02  0.2300265E+01  0.1836155E+06 -0.1533148E+01  0.1250959E+04 -0.7822891E+00  0.6041315E+06 -0.1954984E+01  0.3832622E+02 -0.1836646E+01  0.7722598E+05 -0.1955631E+01  0.3907806E+03  0.3085127E+01  0.2186963E+05  0.1617355E+01  0.1962489E+04 -0.1568094E+00  0.2748652E+06 -0.1955647E+01  0.4511212E+03  0.9792507E+00  0.4892228E+05 -0.1955014E+01  0.9157285E+02  0.2300265E+01  0.1836155E+06 -0.1533148E+01  0.1250959E+04 -0.7822891E+00  0.6041315E+06 -0.1954984E+01  0.3832622E+02 -0.1836646E+01  0.7722598E+05 -0.1955631E+01  0.3907806E+03  0.3085127E+01  0.2186963E+05  0.1617355E+01  0.1962489E+04 -0.1568094E+00  0.2748652E+06 -0.1955647E+01  0.4511212E+03  0.9792507E+00  0.4892228E+05 -0.1955014E+01  0.9157285E+02  0.2300265E+01  0.1836155E+06 -0.1533148E+01  0.1250959E+04 -0.7822891E+00  0.6041315E+06 -0.1954984E+01  0.3832622E+02 -0.1836646E+01  0.7722598E+05 -0.1955631E+01  0.3907806E+03  0.3085127E+01  0.2186963E+05  0.1617355E+01  0.1962489E+04 -0.1568094E+00  0.2748652E+06 -0.1955647E+01  0.4511212E+03  0.9792507E+00
  0.2026531E+01  0.4754016E+05 -0.2115256E+01  0.1098744E+03  0.2354994E+01  0.1587604E+06 -0.1758481E+01  0.1291268E+04 -0.7527856E+00  0.5372206E+06 -0.2115080E+01  0.3948407E+02 -0.2095261E+01  0.6238966E+05 -0.2115598E+01  0.3826374E+03  0.3085011E+01  0.1825865E+05  0.1392550E+01  0.1903765E+04 -0.1522591E+00  0.2332912E+06 -0.2114486E+01  0.3678176E+03  0.5851128E+00  0.4754016E+05 -0.2115256E+01  0.1098744E+03  0.2354994E+01  0.1587604E+06 -0.1758481E+01  0.1291268E+04 -0.7527856E+00  0.5372206E+06 -0.2115080E+01  0.3948407E+02 -0.2095261E+01  0.6238966E+05 -0.2115598E+01  0.3826374E+03  0.3085011E+01  0.1825865E+05  0.1392550E+01  0.1903765E+04 -0.1522591E+00  0.2332912E+06 -0.2114486E+01  0.3678176E+03  0.5851128E+00  0.4754016E+05 -0.2115256E+01  0.1098744E+03  0.2354994E+01  0.1587604E+06 -0.1758481E+01  0.1291268E+04 -0.7527856E+00  0.5372206E+06 -0.2115080E+01  0.3948407E+02 -0.2095261E+01  0.6238966E+05 -0.2115598E+01  0.3826374E+03  0.3085011E+01  0.1825865E+05  0.1392550E+01  0.1903765E+04 -0.1522591E+00  0.2332912E+06 -0.2114486E+01  0.3678176E+03  0.5851128E+00
  0.2146939E+01  0.4579640E+05 -0.2299485E+01  0.1261880E+03  0.2373508E+01  0.1365280E+06 -0.1997435E+01  0.1283993E+04 -0.7501408E+00  0.4715397E+06 -0.2299153E+01  0.4194906E+02 -0.2388216E+01  0.5001385E+05 -0.2301284E+01  0.3561393E+03  0.3051258E+01  0.1511420E+05  0.1152210E+01  0.1754920E+04 -0.1853950E+00  0.1949940E+06 -0.2299806E+01  0.3504182E+03  0.1201785E+00  0.4579640E+05 -0.2299485E+01  0.1261880E+03  0.2373508E+01  0.1365280E+06 -0.1997435E+01  0.1283993E+04 -0.7501408E+00  0.4715397E+06 -0.2299153E+01  0.4194906E+02 -0.2388216E+01  0.5001385E+05 -0.2301284E+01  0.3561393E+03  0.3051258E+01  0.1511420E+05  0.1152210E+01  0.1754920E+04 -0.1853950E+00  0.1949940E+06 -0.2299806E+01  0.3504182E+03  0.1201785E+00  0.4579640E+05 -0.2299485E+01  0.1261880E+03  0.2373508E+01  0.1365280E+06 -0.1997435E+01  0.1283993E+04 -0.7501408E+00  0.4715397E+06 -0.2299153E+01  0.4194906E+02 -0.2388216E+01  0.5001385E+05 -0.2301284E+01  0.3561393E+03  0.3051258E+01  0.1511420E+05  0.1152210E+01  0.1754920E+04 -0.1853950E+00  0.1949940E+06 -0.2299806E+01  0.3504182E+03  0.1201785E+00
  0.2267347E+01  0.4379768E+05 -0.2506733E+01  0.1351323E+03  0.2371193E+01  0.1166660E+06 -0.2250781E+01  0.1203039E+04 -0.7982687E+00  0.4089117E+06 -0.2506255E+01  0.4712846E+02 -0.2661816E+01  0.3996239E+05 -0.2507088E+01  0.3154391E+03  0.2974286E+01  0.1245471E+05  0.8991880E+00  0.1535161E+04 -0.2656477E+00  0.1603238E+06 -0.2506572E+01  0.3808024E+03 -0.2482472E+00  0.4379768E+05 -0.2506733E+01  0.1351323E+03  0.2371193E+01  0.1166660E+06 -0.2250781E+01  0.1203039E+04 -0.7982687E+00  0.4089117E+06 -0.2506255E+01  0.4712846E+02 -0.2661816E+01  0.3996239E+05 -0.2507088E+01  0.3154391E+03  0.2974286E+01  0.1245471E+05  0.8991880E+00  0.1535161E+04 -0.2656477E+00  0.1603238E+06 -0.2506572E+01  0.3808024E+03 -0.2482472E+00  0.4379768E+05 -0.2506733E+01  0.1351323E+03  0.2371193E+01  0.1166660E+06 -0.2250781E+01  0.1203039E+04 -0.7982687E+00  0.4089117E+06 -0.2506255E+01  0.4712846E+02 -0.2661816E+01  0.3996239E+05 -0.2507088E+01  0.3154391E+03  0.2974286E+01  0.1245471E+05  0.8991880E+00  0.1535161E+04 -0.2656477E+00  0.1603238E+06 -0.2506572E+01  0.3808024E+03 -0.2482472E+00
  0.2387755E+01  0.4163730E+05 -0.2736253E+01  0.1330930E+03  0.2309794E+01  0.9902134E+05 -0.2519365E+01  0.1049586E+04 -0.9347966E+00  0.3505771E+06 -0.2735726E+01  0.5400541E+02 -0.2869151E+01  0.3176675E+05 -0.2739938E+01  0.2651116E+03  0.2830436E+01  0.1023285E+05  0.6270775E+00  0.1280958E+04 -0.4127913E+00  0.1308548E+06 -0.2735538E+01  0.4100075E+03 -0.4917653E+00  0.4163730E+05 -0.2736253E+01  0.1330930E+03  0.2309794E+01  0.9902134E+05 -0.2519365E+01  0.1049586E+04 -0.9347966E+00  0.3505771E+06 -0.2735726E+01  0.5400541E+02 -0.2869151E+01  0.3176675E+05 -0.2739938E+01  0.2651116E+03  0.2830436E+01  0.1023285E+05  0.6270775E+00  0.1280958E+04 -0.4127913E+00  0.1308548E+06 -0.2735538E+01  0.4100075E+03 -0.4917653E+00  0.4163730E+05 -0.2736253E+01  0.1330930E+03  0.2309794E+01  0.9902134E+05 -0.2519365E+01  0.1049586E+04 -0.9347966E+00  0.3505771E+06 -0.2735726E+01  0.5400541E+02 -0.2869151E+01  0.3176675E+05 -0.2739938E+01  0.2651116E+03  0.2830436E+01  0.1023285E+05  0.6270775E+00  0.1280958E+04 -0.4127913E+00  0.1308548E+06 -0.2735538E+01  0.4100075E+03 -0.4917653E+00
  0.2508163E+01  0.3936724E+05 -0.2987678E+01  0.1193771E+03  0.2140983E+01  0.8346320E+05 -0.2804260E+01  0.9101119E+03 -0.1247146E+01  0.2971134E+06 -0.2987153E+01  0.5959208E+02 -0.2991279E+01  0.2508024E+05 -0.2991214E+01  0.2181871E+03  0.2582034E+01  0.8247651E+04  0.3433547E+00  0.1048842E+04 -0.6645180E+00  0.1054616E+06 -0.2988267E+01  0.4115102E+03 -0.6800367E+00  0.3936724E+05 -0.2987678E+01  0.1193771E+03  0.2140983E+01  0.8346320E+05 -0.2804260E+01  0.9101119E+03 -0.1247146E+01  0.2971134E+06 -0.2987153E+01  0.5959208E+02 -0.2991279E+01  0.2508024E+05 -0.2991214E+01  0.2181871E+03  0.2582034E+01  0.8247651E+04  0.3433547E+00  0.1048842E+04 -0.6645180E+00  0.1054616E+06 -0.2988267E+01  0.4115102E+03 -0.6800367E+00  0.3936724E+05 -0.2987678E+01  0.1193771E+03  0.2140983E+01  0.8346320E+05 -0.2804260E+01  0.9101119E+03 -0.1247146E+01  0.2971134E+06 -0.2987153E+01  0.5959208E+02 -0.2991279E+01  0.2508024E+05 -0.2991214E+01  0.2181871E+03  0.2582034E+01  0.8247651E+04  0.3433547E+00  0.1048842E+04 -0.6645180E+00  0.1054616E+06 -0.2988267E+01  0.4115102E+03 -0.6800367E+00
  0.2628571E+01  0.3703483E+05  0.3022038E+01  0.1068300E+03  0.1724817E+01  0.6989108E+05 -0.3105624E+01  0.9514376E+03 -0.1708980E+01  0.2488408E+06  0.3022633E+01  0.6034019E+02 -0.3033563E+01  0.1971320E+05  0.3021447E+01  0.1921945E+03  0.2220949E+01  0.6740955E+04  0.5170390E-01  0.9163923E+03 -0.1016339E+01  0.8425571E+05  0.3023743E+01  0.3881596E+03 -0.8642105E+00  0.3703483E+05  0.3022038E+01  0.1068300E+03  0.1724817E+01  0.6989108E+05 -0.3105624E+01  0.9514376E+03 -0.1708980E+01  0.2488408E+06  0.3022633E+01  0.6034019E+02 -0.3033563E+01  0.1971320E+05  0.3021447E+01  0.1921945E+03  0.2220949E+01  0.6740955E+04  0.5170390E-01  0.9163923E+03 -0.1016339E+01  0.8425571E+05  0.3023743E+01  0.3881596E+03 -0.8642105E+00  0.3703483E+05  0.3022038E+01  0.1068300E+03  0.1724817E+01  0.6989108E+05 -0.3105624E+01  0.9514376E+03 -0.1708980E+01  0.2488408E+06  0.3022633E+01  0.6034019E+02 -0.3033563E+01  0.1971320E+05  0.3021447E+01  0.1921945E+03  0.2220949E+01  0.6740955E+04  0.5170390E-01  0.9163923E+03 -0.1016339E+01  0.8425571E+05  0.3023743E+01  0.3881596E+03 -0.8642105E+00
  0.2748980E+01  0.3469519E+05  0.2725606E+01  0.1305903E+03  0.1171114E+01  0.5811900E+05  0.2859313E+01  0.1222988E+04 -0.2049435E+01  0.2058727E+06  0.2726663E+01  0.5286449E+02 -0.3012275E+01  0.1542716E+05  0.2721906E+01  0.1937372E+03  0.1850199E+01  0.5341882E+04 -0.2661440E+00  0.9033116E+03 -0.1378398E+01  0.6678220E+05  0.2728195E+01  0.3525725E+03 -0.1055566E+01  0.3469519E+05  0.2725606E+01  0.1305903E+03  0.1171114E+01  0.5811900E+05  0.2859313E+01  0.1222988E+04 -0.2049435E+01  0.2058727E+06  0.2726663E+01  0.5286449E+02 -0.3012275E+01  0.1542716E+05  0.2721906E+01  0.1937372E+03  0.1850199E+01  0.5341882E+04 -0.2661440E+00  0.9033116E+03 -0.1378398E+01  0.6678220E+05  0.2728195E+01  0.3525725E+03 -0.1055566E+01  0.3469519E+05  0.2725606E+01  0.1305903E+03  0.1171114E+01  0.5811900E+05  0.2859313E+01  0.1222988E+04 -0.2049435E+01  0.2058727E+06  0.2726663E+01  0.5286449E+02 -0.3012275E+01  0.1542716E+05  0.2721906E+01  0.1937372E+03  0.1850199E+01  0.5341882E+04 -0.2661440E+00  0.9033116E+03 -0.1378398E+01  0.6678220E+05  0.2728195E+01  0.3525725E+03 -0.1055566E+01
  0.2869388E+01  0.3243802E+05  0.2405610E+01  0.1930094E+03  0.8743558E+00  0.4796271E+05  0.2524872E+01  0.1565030E+04 -0.2216708E+01  0.1683168E+06  0.2407455E+01  0.3756353E+02 -0.2949494E+01  0.1186209E+05  0.2404116E+01  0.2069051E+03  0.1582862E+01  0.4203069E+04 -0.5758911E+00  0.9413886E+03 -0.1652352E+01  0.5226256E+05  0.2406847E+01  0.3076440E+03 -0.1244002E+01  0.3243802E+05  0.2405610E+01  0.1930094E+03  0.8743558E+00  0.4796271E+05  0.2524872E+01  0.1565030E+04 -0.2216708E+01  0.1683168E+06  0.2407455E+01  0.3756353E+02 -0.2949494E+01  0.1186209E+05  0.2404116E+01  0.2069051E+03  0.1582862E+01  0.4203069E+04 -0.5758911E+00  0.9413886E+03 -0.1652352E+01  0.5226256E+05  0.2406847E+01  0.3076440E+03 -0.1244002E+01  0.3243802E+05  0.2405610E+01  0.1930094E+03  0.8743558E+00  0.4796271E+05  0.2524872E+01  0.1565030E+04 -0.2216708E+01  0.1683168E+06  0.2407455E+01  0.3756353E+02 -0.2949494E+01  0.1186209E+05  0.2404116E+01  0.2069051E+03  0.1582862E+01  0.4203069E+04 -0.5758911E+00  0.9413886E+03 -0.1652352E+01  0.5226256E+05  0.2406847E+01  0.3076440E+03 -0.1244002E+01
  0.2989796E+01  0.3033089E+05  0.2063400E+01  0.2619480E+03  0.7680189E+00  0.3924221E+05  0.2173337E+01  0.1863780E+04 -0.2299644E+01  0.1360190E+06  0.2066193E+01  0.2060983E+02 -0.2795915E+01  0.9178317E+04  0.2066776E+01  0.2194032E+03  0.1381779E+01  0.3279666E+04 -0.9014007E+00  0.9893240E+03 -0.1850958E+01  0.4081296E+05  0.2064383E+01  0.2740908E+03 -0.1443003E+01  0.3033089E+05  0.2063400E+01  0.2619480E+03  0.7680189E+00  0.3924221E+05  0.2173337E+01  0.1863780E+04 -0.2299644E+01  0.1360190E+06  0.2066193E+01  0.2060983E+02 -0.2795915E+01  0.9178317E+04  0.2066776E+01  0.2194032E+03  0.1381779E+01  0.3279666E+04 -0.9014007E+00  0.9893240E+03 -0.1850958E+01  0.4081296E+05  0.2064383E+01  0.2740908E+03 -0.1443003E+01  0.3033089E+05  0.2063400E+01  0.2619480E+03  0.7680189E+00  0.3924221E+05  0.2173337E+01  0.1863780E+04 -0.2299644E+01  0.1360190E+06  0.2066193E+01  0.2060983E+02 -0.2795915E+01  0.9178317E+04  0.2066776E+01  0.2194032E+03  0.1381779E+01  0.3279666E+04 -0.9014007E+00  0.9893240E+03 -0.1850958E+01  0.4081296E+05  0.2064383E+01  0.2740908E+03 -0.1443003E+01
  0.3110204E+01  0.2835069E+05  0.1700632E+01  0.3131731E+03  0.6847994E+00  0.3170535E+05  0.1803235E+01  0.2082412E+04 -0.2342656E+01  0.1084268E+06  0.1703911E+01  0.1203758E+02 -0.1862573E+01  0.7013023E+04  0.1701427E+01  0.1965400E+03  0.1161168E+01  0.2492133E+04 -0.1277336E+01  0.8445809E+03 -0.2095911E+01  0.3162442E+05  0.1695568E+01  0.1894853E+03 -0.1725253E+01  0.2835069E+05  0.1700632E+01  0.3131731E+03  0.6847994E+00  0.3170535E+05  0.1803235E+01  0.2082412E+04 -0.2342656E+01  0.1084268E+06  0.1703911E+01  0.1203758E+02 -0.1862573E+01  0.7013023E+04  0.1701427E+01  0.1965400E+03  0.1161168E+01  0.2492133E+04 -0.1277336E+01  0.8445809E+03 -0.2095911E+01  0.3162442E+05  0.1695568E+01  0.1894853E+03 -0.1725253E+01  0.2835069E+05  0.1700632E+01  0.3131731E+03  0.6847994E+00  0.3170535E+05  0.1803235E+01  0.2082412E+04 -0.2342656E+01  0.1084268E+06  0.1703911E+01  0.1203758E+02 -0.1862573E+01  0.7013023E+04  0.1701427E+01  0.1965400E+03  0.1161168E+01  0.2492133E+04 -0.1277336E+01  0.8445809E+03 -0.2095911E+01  0.3162442E+05  0.1695568E+01  0.1894853E+03 -0.1725253E+01