 VARIABLES="X" "Y" "Z" "abs(p) (Pa)" "angle(p) (rad)"
ZONE N=   2709,E =    2358, F=FEPOINT, ET=QUADRILATERAL
   0.00000000      -5.48999977     -0.157000005       182.714157      -2.92365360    
   0.00000000      -4.76741982     -0.246999994       182.714157      -2.92365360    
  0.930077016      -4.67581606     -0.246999994       182.714157      -2.92365360    
   1.07104599      -5.38451099     -0.157000005       182.714157      -2.92365360    
  -1.07104599      -5.38451099     -0.157000005       182.606583      -2.92464280    
 -0.930077016      -4.67581606     -0.246999994       182.606583      -2.92464280    
   0.00000000      -4.76741982     -0.246999994       182.606583      -2.92464280    
   0.00000000      -5.48999977     -0.157000005       182.606583      -2.92464280    
  -2.10093188      -5.07209921     -0.157000005       172.979187      -2.93919182    
  -1.82441294      -4.40452194     -0.246999994       172.979187      -2.93919182    
 -0.930077016      -4.67581606     -0.246999994       172.979187      -2.93919182    
  -1.07104599      -5.38451099     -0.157000005       172.979187      -2.93919182    
  -3.05008101      -4.56476784     -0.157000005       162.492386      -2.92752600    
  -2.64863706      -3.96396494     -0.246999994       162.492386      -2.92752600    
  -1.82441294      -4.40452194     -0.246999994       162.492386      -2.92752600    
  -2.10093188      -5.07209921     -0.157000005       162.492386      -2.92752600    
  -3.88201594      -3.88201594     -0.157000005       142.687256      -2.93820930    
  -3.37107491      -3.37107491     -0.246999994       142.687256      -2.93820930    
  -2.64863706      -3.96396494     -0.246999994       142.687256      -2.93820930    
  -3.05008101      -4.56476784     -0.157000005       142.687256      -2.93820930    
  -4.56476784      -3.05008101     -0.157000005       114.851898      -2.96743917    
  -3.96396494      -2.64863706     -0.246999994       114.851898      -2.96743917    
  -3.37107491      -3.37107491     -0.246999994       114.851898      -2.96743917    
  -3.88201594      -3.88201594     -0.157000005       114.851898      -2.96743917    
  -5.07209921      -2.10093188     -0.157000005       87.4255676      -2.95113945    
  -4.40452194      -1.82441294     -0.246999994       87.4255676      -2.95113945    
  -3.96396494      -2.64863706     -0.246999994       87.4255676      -2.95113945    
  -4.56476784      -3.05008101     -0.157000005       87.4255676      -2.95113945    
  -5.38451099      -1.07104599     -0.157000005       54.9274864      -2.93664002    
  -4.67581606     -0.930077016     -0.246999994       54.9274864      -2.93664002    
  -4.40452194      -1.82441294     -0.246999994       54.9274864      -2.93664002    
  -5.07209921      -2.10093188     -0.157000005       54.9274864      -2.93664002    
  -5.48999977       0.00000000     -0.157000005       19.1990471      -2.93979812    
  -4.76741982       0.00000000     -0.246999994       19.1990471      -2.93979812    
  -4.67581606     -0.930077016     -0.246999994       19.1990471      -2.93979812    
  -5.38451099      -1.07104599     -0.157000005       19.1990471      -2.93979812    
  -5.38451099       1.07104599     -0.157000005       16.8533478      0.220838189    
  -4.67581606      0.930077016     -0.246999994       16.8533478      0.220838189    
  -4.76741982       0.00000000     -0.246999994       16.8533478      0.220838189    
  -5.48999977       0.00000000     -0.157000005       16.8533478      0.220838189    
  -5.07209921       2.10093188     -0.157000005       52.1729851      0.202058718    
  -4.40452194       1.82441294     -0.246999994       52.1729851      0.202058718    
  -4.67581606      0.930077016     -0.246999994       52.1729851      0.202058718    
  -5.38451099       1.07104599     -0.157000005       52.1729851      0.202058718    
  -4.56476784       3.05008101     -0.157000005       85.4114609      0.187400967    
  -3.96396494       2.64863706     -0.246999994       85.4114609      0.187400967    
  -4.40452194       1.82441294     -0.246999994       85.4114609      0.187400967    
  -5.07209921       2.10093188     -0.157000005       85.4114609      0.187400967    
  -3.88201594       3.88201594     -0.157000005       117.020950      0.193166077    
  -3.37107491       3.37107491     -0.246999994       117.020950      0.193166077    
  -3.96396494       2.64863706     -0.246999994       117.020950      0.193166077    
  -4.56476784       3.05008101     -0.157000005       117.020950      0.193166077    
  -3.05008101       4.56476784     -0.157000005       140.473663      0.185142845    
  -2.64863706       3.96396494     -0.246999994       140.473663      0.185142845    
  -3.37107491       3.37107491     -0.246999994       140.473663      0.185142845    
  -3.88201594       3.88201594     -0.157000005       140.473663      0.185142845    
  -2.10093188       5.07209921     -0.157000005       162.894241      0.209333271    
  -1.82441294       4.40452194     -0.246999994       162.894241      0.209333271    
  -2.64863706       3.96396494     -0.246999994       162.894241      0.209333271    
  -3.05008101       4.56476784     -0.157000005       162.894241      0.209333271    
  -1.07104599       5.38451099     -0.157000005       174.022812      0.200174049    
 -0.930077016       4.67581606     -0.246999994       174.022812      0.200174049    
  -1.82441294       4.40452194     -0.246999994       174.022812      0.200174049    
  -2.10093188       5.07209921     -0.157000005       174.022812      0.200174049    
   0.00000000       5.48999977     -0.157000005       183.804977      0.213370934    
   0.00000000       4.76741982     -0.246999994       183.804977      0.213370934    
 -0.930077016       4.67581606     -0.246999994       183.804977      0.213370934    
  -1.07104599       5.38451099     -0.157000005       183.804977      0.213370934    
   1.07104599       5.38451099     -0.157000005       181.301224      0.201120704    
  0.930077016       4.67581606     -0.246999994       181.301224      0.201120704    
   0.00000000       4.76741982     -0.246999994       181.301224      0.201120704    
   0.00000000       5.48999977     -0.157000005       181.301224      0.201120704    
   2.10093188       5.07209921     -0.157000005       177.548615      0.213022321    
   1.82441294       4.40452194     -0.246999994       177.548615      0.213022321    
  0.930077016       4.67581606     -0.246999994       177.548615      0.213022321    
   1.07104599       5.38451099     -0.157000005       177.548615      0.213022321    
   3.05008101       4.56476784     -0.157000005       164.015579      0.209478289    
   2.64863706       3.96396494     -0.246999994       164.015579      0.209478289    
   1.82441294       4.40452194     -0.246999994       164.015579      0.209478289    
   2.10093188       5.07209921     -0.157000005       164.015579      0.209478289    
   3.88201594       3.88201594     -0.157000005       140.939804      0.181227133    
   3.37107491       3.37107491     -0.246999994       140.939804      0.181227133    
   2.64863706       3.96396494     -0.246999994       140.939804      0.181227133    
   3.05008101       4.56476784     -0.157000005       140.939804      0.181227133    
   4.56476784       3.05008101     -0.157000005       115.869652      0.177549079    
   3.96396494       2.64863706     -0.246999994       115.869652      0.177549079    
   3.37107491       3.37107491     -0.246999994       115.869652      0.177549079    
   3.88201594       3.88201594     -0.157000005       115.869652      0.177549079    
   5.07209921       2.10093188     -0.157000005       85.6896591      0.182567522    
   4.40452194       1.82441294     -0.246999994       85.6896591      0.182567522    
   3.96396494       2.64863706     -0.246999994       85.6896591      0.182567522    
   4.56476784       3.05008101     -0.157000005       85.6896591      0.182567522    
   5.38451099       1.07104599     -0.157000005       54.0567551      0.220443338    
   4.67581606      0.930077016     -0.246999994       54.0567551      0.220443338    
   4.40452194       1.82441294     -0.246999994       54.0567551      0.220443338    
   5.07209921       2.10093188     -0.157000005       54.0567551      0.220443338    
   5.48999977       0.00000000     -0.157000005       18.4505806      0.270992100    
   4.76741982       0.00000000     -0.246999994       18.4505806      0.270992100    
   4.67581606      0.930077016     -0.246999994       18.4505806      0.270992100    
   5.38451099       1.07104599     -0.157000005       18.4505806      0.270992100    
   5.38451099      -1.07104599     -0.157000005       18.4077454      -2.96661592    
   4.67581606     -0.930077016     -0.246999994       18.4077454      -2.96661592    
   4.76741982       0.00000000     -0.246999994       18.4077454      -2.96661592    
   5.48999977       0.00000000     -0.157000005       18.4077454      -2.96661592    
   5.07209921      -2.10093188     -0.157000005       54.2868919      -2.94358897    
   4.40452194      -1.82441294     -0.246999994       54.2868919      -2.94358897    
   4.67581606     -0.930077016     -0.246999994       54.2868919      -2.94358897    
   5.38451099      -1.07104599     -0.157000005       54.2868919      -2.94358897    
   4.56476784      -3.05008101     -0.157000005       87.6842194      -2.94703794    
   3.96396494      -2.64863706     -0.246999994       87.6842194      -2.94703794    
   4.40452194      -1.82441294     -0.246999994       87.6842194      -2.94703794    
   5.07209921      -2.10093188     -0.157000005       87.6842194      -2.94703794    
   3.88201594      -3.88201594     -0.157000005       117.244469      -2.94806647    
   3.37107491      -3.37107491     -0.246999994       117.244469      -2.94806647    
   3.96396494      -2.64863706     -0.246999994       117.244469      -2.94806647    
   4.56476784      -3.05008101     -0.157000005       117.244469      -2.94806647    
   3.05008101      -4.56476784     -0.157000005       140.062347      -2.95118213    
   2.64863706      -3.96396494     -0.246999994       140.062347      -2.95118213    
   3.37107491      -3.37107491     -0.246999994       140.062347      -2.95118213    
   3.88201594      -3.88201594     -0.157000005       140.062347      -2.95118213    
   2.10093188      -5.07209921     -0.157000005       162.196823      -2.92673922    
   1.82441294      -4.40452194     -0.246999994       162.196823      -2.92673922    
   2.64863706      -3.96396494     -0.246999994       162.196823      -2.92673922    
   3.05008101      -4.56476784     -0.157000005       162.196823      -2.92673922    
   1.07104599      -5.38451099     -0.157000005       175.870575      -2.92434978    
  0.930077016      -4.67581606     -0.246999994       175.870575      -2.92434978    
   1.82441294      -4.40452194     -0.246999994       175.870575      -2.92434978    
   2.10093188      -5.07209921     -0.157000005       175.870575      -2.92434978    
   0.00000000      -1.87709999     -0.606999993       1483.99170       1.59313619    
   0.00000000      -1.36500001     -0.606999993       1483.99170       1.59313619    
  0.266297996      -1.33877206     -0.606999993       1483.99170       1.59313619    
  0.366203994      -1.84103203     -0.606999993       1483.99170       1.59313619    
   0.00000000      -1.87709999     -0.606999993       828.649048       1.61683798    
   0.00000000      -2.59967995     -0.517000020       828.649048       1.61683798    
 -0.507171988      -2.54972792     -0.517000020       828.649048       1.61683798    
 -0.366203994      -1.84103203     -0.606999993       828.649048       1.61683798    
 -0.366203994      -1.84103203     -0.606999993       1484.81396       1.59313715    
 -0.266297996      -1.33877206     -0.606999993       1484.81396       1.59313715    
   0.00000000      -1.36500001     -0.606999993       1484.81396       1.59313715    
   0.00000000      -1.87709999     -0.606999993       1484.81396       1.59313715    
 -0.366203994      -1.84103203     -0.606999993       803.772644       1.61650503    
 -0.507171988      -2.54972792     -0.517000020       803.772644       1.61650503    
 -0.994853973      -2.40179110     -0.517000020       803.772644       1.61650503    
 -0.718334973      -1.73421395     -0.606999993       803.772644       1.61650503    
 -0.718334973      -1.73421395     -0.606999993       1434.42566       1.59310448    
 -0.522363007      -1.26109600     -0.606999993       1434.42566       1.59310448    
 -0.266297996      -1.33877206     -0.606999993       1434.42566       1.59310448    
 -0.366203994      -1.84103203     -0.606999993       1434.42566       1.59310448    
 -0.718334973      -1.73421395     -0.606999993       752.440796       1.61599112    
 -0.994853973      -2.40179110     -0.517000020       752.440796       1.61599112    
  -1.44430494      -2.16155505     -0.517000020       752.440796       1.61599112    
  -1.04286098      -1.56075203     -0.606999993       752.440796       1.61599112    
  -1.04286098      -1.56075203     -0.606999993       1331.66907       1.59306288    
 -0.758352995      -1.13495600     -0.606999993       1331.66907       1.59306288    
 -0.522363007      -1.26109600     -0.606999993       1331.66907       1.59306288    
 -0.718334973      -1.73421395     -0.606999993       1331.66907       1.59306288    
  -1.04286098      -1.56075203     -0.606999993       670.349854       1.61556923    
  -1.44430494      -2.16155505     -0.517000020       670.349854       1.61556923    
  -1.83825099      -1.83825099     -0.517000020       670.349854       1.61556923    
  -1.32730997      -1.32730997     -0.606999993       670.349854       1.61556923    
  -1.32730997      -1.32730997     -0.606999993       1175.30237       1.59306479    
 -0.965201020     -0.965201020     -0.606999993       1175.30237       1.59306479    
 -0.758352995      -1.13495600     -0.606999993       1175.30237       1.59306479    
  -1.04286098      -1.56075203     -0.606999993       1175.30237       1.59306479    
  -1.32730997      -1.32730997     -0.606999993       553.782593       1.61555195    
  -1.83825099      -1.83825099     -0.517000020       553.782593       1.61555195    
  -2.16155505      -1.44430494     -0.517000020       553.782593       1.61555195    
  -1.56075203      -1.04286098     -0.606999993       553.782593       1.61555195    
  -1.56075203      -1.04286098     -0.606999993       967.953369       1.59313834    
  -1.13495600     -0.758352995     -0.606999993       967.953369       1.59313834    
 -0.965201020     -0.965201020     -0.606999993       967.953369       1.59313834    
  -1.32730997      -1.32730997     -0.606999993       967.953369       1.59313834    
  -1.56075203      -1.04286098     -0.606999993       406.259247       1.61620867    
  -2.16155505      -1.44430494     -0.517000020       406.259247       1.61620867    
  -2.40179110     -0.994853973     -0.517000020       406.259247       1.61620867    
  -1.73421395     -0.718334973     -0.606999993       406.259247       1.61620867    
  -1.73421395     -0.718334973     -0.606999993       718.693298       1.59329557    
  -1.26109600     -0.522363007     -0.606999993       718.693298       1.59329557    
  -1.13495600     -0.758352995     -0.606999993       718.693298       1.59329557    
  -1.56075203      -1.04286098     -0.606999993       718.693298       1.59329557    
  -1.73421395     -0.718334973     -0.606999993       244.207230       1.61733162    
  -2.40179110     -0.994853973     -0.517000020       244.207230       1.61733162    
  -2.54972792     -0.507171988     -0.517000020       244.207230       1.61733162    
  -1.84103203     -0.366203994     -0.606999993       244.207230       1.61733162    
  -1.84103203     -0.366203994     -0.606999993       442.597778       1.59354496    
  -1.33877206     -0.266297996     -0.606999993       442.597778       1.59354496    
  -1.26109600     -0.522363007     -0.606999993       442.597778       1.59354496    
  -1.73421395     -0.718334973     -0.606999993       442.597778       1.59354496    
  -1.84103203     -0.366203994     -0.606999993       83.1538162       1.61844265    
  -2.54972792     -0.507171988     -0.517000020       83.1538162       1.61844265    
  -2.59967995       0.00000000     -0.517000020       83.1538162       1.61844265    
  -1.87709999       0.00000000     -0.606999993       83.1538162       1.61844265    
  -1.87709999       0.00000000     -0.606999993       154.464218       1.59426141    
  -1.36500001       0.00000000     -0.606999993       154.464218       1.59426141    
  -1.33877206     -0.266297996     -0.606999993       154.464218       1.59426141    
  -1.84103203     -0.366203994     -0.606999993       154.464218       1.59426141    
  -1.87709999       0.00000000     -0.606999993       72.2569809      -1.52245915    
  -2.59967995       0.00000000     -0.517000020       72.2569809      -1.52245915    
  -2.54972792      0.507171988     -0.517000020       72.2569809      -1.52245915    
  -1.84103203      0.366203994     -0.606999993       72.2569809      -1.52245915    
  -1.84103203      0.366203994     -0.606999993       135.362259      -1.54919624    
  -1.33877206      0.266297996     -0.606999993       135.362259      -1.54919624    
  -1.36500001       0.00000000     -0.606999993       135.362259      -1.54919624    
  -1.87709999       0.00000000     -0.606999993       135.362259      -1.54919624    
  -1.84103203      0.366203994     -0.606999993       229.423523      -1.52330339    
  -2.54972792      0.507171988     -0.517000020       229.423523      -1.52330339    
  -2.40179110      0.994853973     -0.517000020       229.423523      -1.52330339    
  -1.73421395      0.718334973     -0.606999993       229.423523      -1.52330339    
  -1.73421395      0.718334973     -0.606999993       421.503235      -1.54849839    
  -1.26109600      0.522363007     -0.606999993       421.503235      -1.54849839    
  -1.33877206      0.266297996     -0.606999993       421.503235      -1.54849839    
  -1.84103203      0.366203994     -0.606999993       421.503235      -1.54849839    
  -1.73421395      0.718334973     -0.606999993       388.434875      -1.52435291    
  -2.40179110      0.994853973     -0.517000020       388.434875      -1.52435291    
  -2.16155505       1.44430494     -0.517000020       388.434875      -1.52435291    
  -1.56075203       1.04286098     -0.606999993       388.434875      -1.52435291    
  -1.56075203       1.04286098     -0.606999993       695.951477      -1.54840600    
  -1.13495600      0.758352995     -0.606999993       695.951477      -1.54840600    
  -1.26109600      0.522363007     -0.606999993       695.951477      -1.54840600    
  -1.73421395      0.718334973     -0.606999993       695.951477      -1.54840600    
  -1.56075203       1.04286098     -0.606999993       537.248840      -1.52516520    
  -2.16155505       1.44430494     -0.517000020       537.248840      -1.52516520    
  -1.83825099       1.83825099     -0.517000020       537.248840      -1.52516520    
  -1.32730997       1.32730997     -0.606999993       537.248840      -1.52516520    
  -1.32730997       1.32730997     -0.606999993       945.956116      -1.54839420    
 -0.965201020      0.965201020     -0.606999993       945.956116      -1.54839420    
  -1.13495600      0.758352995     -0.606999993       945.956116      -1.54839420    
  -1.56075203       1.04286098     -0.606999993       945.956116      -1.54839420    
  -1.32730997       1.32730997     -0.606999993       658.398743      -1.52535057    
  -1.83825099       1.83825099     -0.517000020       658.398743      -1.52535057    
  -1.44430494       2.16155505     -0.517000020       658.398743      -1.52535057    
  -1.04286098       1.56075203     -0.606999993       658.398743      -1.52535057    
  -1.04286098       1.56075203     -0.606999993       1156.34900      -1.54837132    
 -0.758352995       1.13495600     -0.606999993       1156.34900      -1.54837132    
 -0.965201020      0.965201020     -0.606999993       1156.34900      -1.54837132    
  -1.32730997       1.32730997     -0.606999993       1156.34900      -1.54837132    
  -1.04286098       1.56075203     -0.606999993       745.170898      -1.52507389    
  -1.44430494       2.16155505     -0.517000020       745.170898      -1.52507389    
 -0.994853973       2.40179110     -0.517000020       745.170898      -1.52507389    
 -0.718334973       1.73421395     -0.606999993       745.170898      -1.52507389    
 -0.718334973       1.73421395     -0.606999993       1317.04700      -1.54831564    
 -0.522363007       1.26109600     -0.606999993       1317.04700      -1.54831564    
 -0.758352995       1.13495600     -0.606999993       1317.04700      -1.54831564    
  -1.04286098       1.56075203     -0.606999993       1317.04700      -1.54831564    
 -0.718334973       1.73421395     -0.606999993       799.758606      -1.52462864    
 -0.994853973       2.40179110     -0.517000020       799.758606      -1.52462864    
 -0.507171988       2.54972792     -0.517000020       799.758606      -1.52462864    
 -0.366203994       1.84103203     -0.606999993       799.758606      -1.52462864    
 -0.366203994       1.84103203     -0.606999993       1423.97961      -1.54824030    
 -0.266297996       1.33877206     -0.606999993       1423.97961      -1.54824030    
 -0.522363007       1.26109600     -0.606999993       1423.97961      -1.54824030    
 -0.718334973       1.73421395     -0.606999993       1423.97961      -1.54824030    
 -0.366203994       1.84103203     -0.606999993       826.626648      -1.52432871    
 -0.507171988       2.54972792     -0.517000020       826.626648      -1.52432871    
   0.00000000       2.59967995     -0.517000020       826.626648      -1.52432871    
   0.00000000       1.87709999     -0.606999993       826.626648      -1.52432871    
   0.00000000       1.87709999     -0.606999993       1477.54578      -1.54818904    
   0.00000000       1.36500001     -0.606999993       1477.54578      -1.54818904    
 -0.266297996       1.33877206     -0.606999993       1477.54578      -1.54818904    
 -0.366203994       1.84103203     -0.606999993       1477.54578      -1.54818904    
   0.00000000       1.87709999     -0.606999993       827.232849      -1.52433574    
   0.00000000       2.59967995     -0.517000020       827.232849      -1.52433574    
  0.507171988       2.54972792     -0.517000020       827.232849      -1.52433574    
  0.366203994       1.84103203     -0.606999993       827.232849      -1.52433574    
  0.366203994       1.84103203     -0.606999993       1478.52905      -1.54818666    
  0.266297996       1.33877206     -0.606999993       1478.52905      -1.54818666    
   0.00000000       1.36500001     -0.606999993       1478.52905      -1.54818666    
   0.00000000       1.87709999     -0.606999993       1478.52905      -1.54818666    
  0.366203994       1.84103203     -0.606999993       801.565369      -1.52465117    
  0.507171988       2.54972792     -0.517000020       801.565369      -1.52465117    
  0.994853973       2.40179110     -0.517000020       801.565369      -1.52465117    
  0.718334973       1.73421395     -0.606999993       801.565369      -1.52465117    
  0.718334973       1.73421395     -0.606999993       1426.89282      -1.54823458    
  0.522363007       1.26109600     -0.606999993       1426.89282      -1.54823458    
  0.266297996       1.33877206     -0.606999993       1426.89282      -1.54823458    
  0.366203994       1.84103203     -0.606999993       1426.89282      -1.54823458    
  0.718334973       1.73421395     -0.606999993       748.146484      -1.52512813    
  0.994853973       2.40179110     -0.517000020       748.146484      -1.52512813    
   1.44430494       2.16155505     -0.517000020       748.146484      -1.52512813    
   1.04286098       1.56075203     -0.606999993       748.146484      -1.52512813    
   1.04286098       1.56075203     -0.606999993       1321.74500      -1.54831278    
  0.758352995       1.13495600     -0.606999993       1321.74500      -1.54831278    
  0.522363007       1.26109600     -0.606999993       1321.74500      -1.54831278    
  0.718334973       1.73421395     -0.606999993       1321.74500      -1.54831278    
   1.04286098       1.56075203     -0.606999993       662.466187      -1.52545798    
   1.44430494       2.16155505     -0.517000020       662.466187      -1.52545798    
   1.83825099       1.83825099     -0.517000020       662.466187      -1.52545798    
   1.32730997       1.32730997     -0.606999993       662.466187      -1.52545798    
   1.32730997       1.32730997     -0.606999993       1162.64160      -1.54837227    
  0.965201020      0.965201020     -0.606999993       1162.64160      -1.54837227    
  0.758352995       1.13495600     -0.606999993       1162.64160      -1.54837227    
   1.04286098       1.56075203     -0.606999993       1162.64160      -1.54837227    
   1.32730997       1.32730997     -0.606999993       542.191528      -1.52534342    
   1.83825099       1.83825099     -0.517000020       542.191528      -1.52534342    
   2.16155505       1.44430494     -0.517000020       542.191528      -1.52534342    
   1.56075203       1.04286098     -0.606999993       542.191528      -1.52534342    
   1.56075203       1.04286098     -0.606999993       953.450684      -1.54839683    
   1.13495600      0.758352995     -0.606999993       953.450684      -1.54839683    
  0.965201020      0.965201020     -0.606999993       953.450684      -1.54839683    
   1.32730997       1.32730997     -0.606999993       953.450684      -1.54839683    
   1.56075203       1.04286098     -0.606999993       393.902527      -1.52464783    
   2.16155505       1.44430494     -0.517000020       393.902527      -1.52464783    
   2.40179110      0.994853973     -0.517000020       393.902527      -1.52464783    
   1.73421395      0.718334973     -0.606999993       393.902527      -1.52464783    
   1.73421395      0.718334973     -0.606999993       704.025146      -1.54840446    
   1.26109600      0.522363007     -0.606999993       704.025146      -1.54840446    
   1.13495600      0.758352995     -0.606999993       704.025146      -1.54840446    
   1.56075203       1.04286098     -0.606999993       704.025146      -1.54840446    
   1.73421395      0.718334973     -0.606999993       235.077469      -1.52383208    
   2.40179110      0.994853973     -0.517000020       235.077469      -1.52383208    
   2.54972792      0.507171988     -0.517000020       235.077469      -1.52383208    
   1.84103203      0.366203994     -0.606999993       235.077469      -1.52383208    
   1.84103203      0.366203994     -0.606999993       429.764587      -1.54849052    
   1.33877206      0.266297996     -0.606999993       429.764587      -1.54849052    
   1.26109600      0.522363007     -0.606999993       429.764587      -1.54849052    
   1.73421395      0.718334973     -0.606999993       429.764587      -1.54849052    
   1.84103203      0.366203994     -0.606999993       77.8802643      -1.52415538    
   2.54972792      0.507171988     -0.517000020       77.8802643      -1.52415538    
   2.59967995       0.00000000     -0.517000020       77.8802643      -1.52415538    
   1.87709999       0.00000000     -0.606999993       77.8802643      -1.52415538    
   1.87709999       0.00000000     -0.606999993       143.545120      -1.54912806    
   1.36500001       0.00000000     -0.606999993       143.545120      -1.54912806    
   1.33877206      0.266297996     -0.606999993       143.545120      -1.54912806    
   1.84103203      0.366203994     -0.606999993       143.545120      -1.54912806    
   1.87709999       0.00000000     -0.606999993       77.7191544       1.62013924    
   2.59967995       0.00000000     -0.517000020       77.7191544       1.62013924    
   2.54972792     -0.507171988     -0.517000020       77.7191544       1.62013924    
   1.84103203     -0.366203994     -0.606999993       77.7191544       1.62013924    
   1.84103203     -0.366203994     -0.606999993       146.640640       1.59429121    
   1.33877206     -0.266297996     -0.606999993       146.640640       1.59429121    
   1.36500001       0.00000000     -0.606999993       146.640640       1.59429121    
   1.87709999       0.00000000     -0.606999993       146.640640       1.59429121    
   1.84103203     -0.366203994     -0.606999993       239.082581       1.61787641    
   2.54972792     -0.507171988     -0.517000020       239.082581       1.61787641    
   2.40179110     -0.994853973     -0.517000020       239.082581       1.61787641    
   1.73421395     -0.718334973     -0.606999993       239.082581       1.61787641    
   1.73421395     -0.718334973     -0.606999993       435.399323       1.59353399    
   1.26109600     -0.522363007     -0.606999993       435.399323       1.59353399    
   1.33877206     -0.266297996     -0.606999993       435.399323       1.59353399    
   1.84103203     -0.366203994     -0.606999993       435.399323       1.59353399    
   1.73421395     -0.718334973     -0.606999993       401.576324       1.61651850    
   2.40179110     -0.994853973     -0.517000020       401.576324       1.61651850    
   2.16155505      -1.44430494     -0.517000020       401.576324       1.61651850    
   1.56075203      -1.04286098     -0.606999993       401.576324       1.61651850    
   1.56075203      -1.04286098     -0.606999993       712.371216       1.59327960    
   1.13495600     -0.758352995     -0.606999993       712.371216       1.59327960    
   1.26109600     -0.522363007     -0.606999993       712.371216       1.59327960    