 VARIABLES="X" "Y" "Z" "abs(p) (Pa)" "angle(p) (rad)"
ZONE N=   2709,E =    2358, F=FEPOINT, ET=QUADRILATERAL
   0.00000000      -5.48999977     -0.157000005       52.8494301      -2.97869968    
   0.00000000      -4.76741982     -0.246999994       52.8494301      -2.97869968    
  0.930077016      -4.67581606     -0.246999994       52.8494301      -2.97869968    
   1.07104599      -5.38451099     -0.157000005       52.8494301      -2.97869968    
  -1.07104599      -5.38451099     -0.157000005       52.5315514      -2.96988511    
 -0.930077016      -4.67581606     -0.246999994       52.5315514      -2.96988511    
   0.00000000      -4.76741982     -0.246999994       52.5315514      -2.96988511    
   0.00000000      -5.48999977     -0.157000005       52.5315514      -2.96988511    
  -2.10093188      -5.07209921     -0.157000005       43.7844467      -2.88910198    
  -1.82441294      -4.40452194     -0.246999994       43.7844467      -2.88910198    
 -0.930077016      -4.67581606     -0.246999994       43.7844467      -2.88910198    
  -1.07104599      -5.38451099     -0.157000005       43.7844467      -2.88910198    
  -3.05008101      -4.56476784     -0.157000005       45.9969711      -2.95857120    
  -2.64863706      -3.96396494     -0.246999994       45.9969711      -2.95857120    
  -1.82441294      -4.40452194     -0.246999994       45.9969711      -2.95857120    
  -2.10093188      -5.07209921     -0.157000005       45.9969711      -2.95857120    
  -3.88201594      -3.88201594     -0.157000005       40.9439201      -2.96630073    
  -3.37107491      -3.37107491     -0.246999994       40.9439201      -2.96630073    
  -2.64863706      -3.96396494     -0.246999994       40.9439201      -2.96630073    
  -3.05008101      -4.56476784     -0.157000005       40.9439201      -2.96630073    
  -4.56476784      -3.05008101     -0.157000005       30.1684570      -2.90477777    
  -3.96396494      -2.64863706     -0.246999994       30.1684570      -2.90477777    
  -3.37107491      -3.37107491     -0.246999994       30.1684570      -2.90477777    
  -3.88201594      -3.88201594     -0.157000005       30.1684570      -2.90477777    
  -5.07209921      -2.10093188     -0.157000005       25.2723503      -2.97065592    
  -4.40452194      -1.82441294     -0.246999994       25.2723503      -2.97065592    
  -3.96396494      -2.64863706     -0.246999994       25.2723503      -2.97065592    
  -4.56476784      -3.05008101     -0.157000005       25.2723503      -2.97065592    
  -5.38451099      -1.07104599     -0.157000005       15.6432867      -2.93790078    
  -4.67581606     -0.930077016     -0.246999994       15.6432867      -2.93790078    
  -4.40452194      -1.82441294     -0.246999994       15.6432867      -2.93790078    
  -5.07209921      -2.10093188     -0.157000005       15.6432867      -2.93790078    
  -5.48999977       0.00000000     -0.157000005       4.89174461      -2.74210453    
  -4.76741982       0.00000000     -0.246999994       4.89174461      -2.74210453    
  -4.67581606     -0.930077016     -0.246999994       4.89174461      -2.74210453    
  -5.38451099      -1.07104599     -0.157000005       4.89174461      -2.74210453    
  -5.38451099       1.07104599     -0.157000005       3.88672328      0.116709575    
  -4.67581606      0.930077016     -0.246999994       3.88672328      0.116709575    
  -4.76741982       0.00000000     -0.246999994       3.88672328      0.116709575    
  -5.48999977       0.00000000     -0.157000005       3.88672328      0.116709575    
  -5.07209921       2.10093188     -0.157000005       12.4437037      0.218887493    
  -4.40452194       1.82441294     -0.246999994       12.4437037      0.218887493    
  -4.67581606      0.930077016     -0.246999994       12.4437037      0.218887493    
  -5.38451099       1.07104599     -0.157000005       12.4437037      0.218887493    
  -4.56476784       3.05008101     -0.157000005       20.8620358      0.227014586    
  -3.96396494       2.64863706     -0.246999994       20.8620358      0.227014586    
  -4.40452194       1.82441294     -0.246999994       20.8620358      0.227014586    
  -5.07209921       2.10093188     -0.157000005       20.8620358      0.227014586    
  -3.88201594       3.88201594     -0.157000005       32.6869469      0.170259356    
  -3.37107491       3.37107491     -0.246999994       32.6869469      0.170259356    
  -3.96396494       2.64863706     -0.246999994       32.6869469      0.170259356    
  -4.56476784       3.05008101     -0.157000005       32.6869469      0.170259356    
  -3.05008101       4.56476784     -0.157000005       34.7957344      0.241155699    
  -2.64863706       3.96396494     -0.246999994       34.7957344      0.241155699    
  -3.37107491       3.37107491     -0.246999994       34.7957344      0.241155699    
  -3.88201594       3.88201594     -0.157000005       34.7957344      0.241155699    
  -2.10093188       5.07209921     -0.157000005       45.8571777      0.174669594    
  -1.82441294       4.40452194     -0.246999994       45.8571777      0.174669594    
  -2.64863706       3.96396494     -0.246999994       45.8571777      0.174669594    
  -3.05008101       4.56476784     -0.157000005       45.8571777      0.174669594    
  -1.07104599       5.38451099     -0.157000005       43.2505493      0.244408339    
 -0.930077016       4.67581606     -0.246999994       43.2505493      0.244408339    
  -1.82441294       4.40452194     -0.246999994       43.2505493      0.244408339    
  -2.10093188       5.07209921     -0.157000005       43.2505493      0.244408339    
   0.00000000       5.48999977     -0.157000005       51.4917679      0.184906721    
   0.00000000       4.76741982     -0.246999994       51.4917679      0.184906721    
 -0.930077016       4.67581606     -0.246999994       51.4917679      0.184906721    
  -1.07104599       5.38451099     -0.157000005       51.4917679      0.184906721    
   1.07104599       5.38451099     -0.157000005       45.4432831      0.251875758    
  0.930077016       4.67581606     -0.246999994       45.4432831      0.251875758    
   0.00000000       4.76741982     -0.246999994       45.4432831      0.251875758    
   0.00000000       5.48999977     -0.157000005       45.4432831      0.251875758    
   2.10093188       5.07209921     -0.157000005       49.8471069      0.175310776    
   1.82441294       4.40452194     -0.246999994       49.8471069      0.175310776    
  0.930077016       4.67581606     -0.246999994       49.8471069      0.175310776    
   1.07104599       5.38451099     -0.157000005       49.8471069      0.175310776    
   3.05008101       4.56476784     -0.157000005       46.3194542      0.179415792    
   2.64863706       3.96396494     -0.246999994       46.3194542      0.179415792    
   1.82441294       4.40452194     -0.246999994       46.3194542      0.179415792    
   2.10093188       5.07209921     -0.157000005       46.3194542      0.179415792    
   3.88201594       3.88201594     -0.157000005       35.6488533      0.263849378    
   3.37107491       3.37107491     -0.246999994       35.6488533      0.263849378    
   2.64863706       3.96396494     -0.246999994       35.6488533      0.263849378    
   3.05008101       4.56476784     -0.157000005       35.6488533      0.263849378    
   4.56476784       3.05008101     -0.157000005       32.0561104      0.208270133    
   3.96396494       2.64863706     -0.246999994       32.0561104      0.208270133    
   3.37107491       3.37107491     -0.246999994       32.0561104      0.208270133    
   3.88201594       3.88201594     -0.157000005       32.0561104      0.208270133    
   5.07209921       2.10093188     -0.157000005       22.0509777      0.252110720    
   4.40452194       1.82441294     -0.246999994       22.0509777      0.252110720    
   3.96396494       2.64863706     -0.246999994       22.0509777      0.252110720    
   4.56476784       3.05008101     -0.157000005       22.0509777      0.252110720    
   5.38451099       1.07104599     -0.157000005       15.5078468      0.223825797    
   4.67581606      0.930077016     -0.246999994       15.5078468      0.223825797    
   4.40452194       1.82441294     -0.246999994       15.5078468      0.223825797    
   5.07209921       2.10093188     -0.157000005       15.5078468      0.223825797    
   5.48999977       0.00000000     -0.157000005       5.08612967      0.291432679    
   4.76741982       0.00000000     -0.246999994       5.08612967      0.291432679    
   4.67581606      0.930077016     -0.246999994       5.08612967      0.291432679    
   5.38451099       1.07104599     -0.157000005       5.08612967      0.291432679    
   5.38451099      -1.07104599     -0.157000005       5.12668467      -3.00707984    
   4.67581606     -0.930077016     -0.246999994       5.12668467      -3.00707984    
   4.76741982       0.00000000     -0.246999994       5.12668467      -3.00707984    
   5.48999977       0.00000000     -0.157000005       5.12668467      -3.00707984    
   5.07209921      -2.10093188     -0.157000005       15.1850271      -3.00620842    
   4.40452194      -1.82441294     -0.246999994       15.1850271      -3.00620842    
   4.67581606     -0.930077016     -0.246999994       15.1850271      -3.00620842    
   5.38451099      -1.07104599     -0.157000005       15.1850271      -3.00620842    
   4.56476784      -3.05008101     -0.157000005       25.0606365      -3.00034261    
   3.96396494      -2.64863706     -0.246999994       25.0606365      -3.00034261    
   4.40452194      -1.82441294     -0.246999994       25.0606365      -3.00034261    
   5.07209921      -2.10093188     -0.157000005       25.0606365      -3.00034261    
   3.88201594      -3.88201594     -0.157000005       33.3877411      -2.97807002    
   3.37107491      -3.37107491     -0.246999994       33.3877411      -2.97807002    
   3.96396494      -2.64863706     -0.246999994       33.3877411      -2.97807002    
   4.56476784      -3.05008101     -0.157000005       33.3877411      -2.97807002    
   3.05008101      -4.56476784     -0.157000005       34.8964996      -2.90253782    
   2.64863706      -3.96396494     -0.246999994       34.8964996      -2.90253782    
   3.37107491      -3.37107491     -0.246999994       34.8964996      -2.90253782    
   3.88201594      -3.88201594     -0.157000005       34.8964996      -2.90253782    
   2.10093188      -5.07209921     -0.157000005       46.1559677      -2.97245860    
   1.82441294      -4.40452194     -0.246999994       46.1559677      -2.97245860    
   2.64863706      -3.96396494     -0.246999994       46.1559677      -2.97245860    
   3.05008101      -4.56476784     -0.157000005       46.1559677      -2.97245860    
   1.07104599      -5.38451099     -0.157000005       50.9270439      -2.98051143    
  0.930077016      -4.67581606     -0.246999994       50.9270439      -2.98051143    
   1.82441294      -4.40452194     -0.246999994       50.9270439      -2.98051143    
   2.10093188      -5.07209921     -0.157000005       50.9270439      -2.98051143    
   0.00000000      -1.87709999     -0.606999993       498.791748      -1.57554233    
   0.00000000      -1.36500001     -0.606999993       498.791748      -1.57554233    
  0.266297996      -1.33877206     -0.606999993       498.791748      -1.57554233    
  0.366203994      -1.84103203     -0.606999993       498.791748      -1.57554233    
   0.00000000      -1.87709999     -0.606999993       146.402237      -1.57990444    
   0.00000000      -2.59967995     -0.517000020       146.402237      -1.57990444    
 -0.507171988      -2.54972792     -0.517000020       146.402237      -1.57990444    
 -0.366203994      -1.84103203     -0.606999993       146.402237      -1.57990444    
 -0.366203994      -1.84103203     -0.606999993       498.752014      -1.57554162    
 -0.266297996      -1.33877206     -0.606999993       498.752014      -1.57554162    
   0.00000000      -1.36500001     -0.606999993       498.752014      -1.57554162    
   0.00000000      -1.87709999     -0.606999993       498.752014      -1.57554162    
 -0.366203994      -1.84103203     -0.606999993       140.700867      -1.57987988    
 -0.507171988      -2.54972792     -0.517000020       140.700867      -1.57987988    
 -0.994853973      -2.40179110     -0.517000020       140.700867      -1.57987988    
 -0.718334973      -1.73421395     -0.606999993       140.700867      -1.57987988    
 -0.718334973      -1.73421395     -0.606999993       479.379059      -1.57558465    
 -0.522363007      -1.26109600     -0.606999993       479.379059      -1.57558465    
 -0.266297996      -1.33877206     -0.606999993       479.379059      -1.57558465    
 -0.366203994      -1.84103203     -0.606999993       479.379059      -1.57558465    
 -0.718334973      -1.73421395     -0.606999993       129.644669      -1.57993436    
 -0.994853973      -2.40179110     -0.517000020       129.644669      -1.57993436    
  -1.44430494      -2.16155505     -0.517000020       129.644669      -1.57993436    
  -1.04286098      -1.56075203     -0.606999993       129.644669      -1.57993436    
  -1.04286098      -1.56075203     -0.606999993       441.610168      -1.57560623    
 -0.758352995      -1.13495600     -0.606999993       441.610168      -1.57560623    
 -0.522363007      -1.26109600     -0.606999993       441.610168      -1.57560623    
 -0.718334973      -1.73421395     -0.606999993       441.610168      -1.57560623    
  -1.04286098      -1.56075203     -0.606999993       113.850250      -1.58003771    
  -1.44430494      -2.16155505     -0.517000020       113.850250      -1.58003771    
  -1.83825099      -1.83825099     -0.517000020       113.850250      -1.58003771    
  -1.32730997      -1.32730997     -0.606999993       113.850250      -1.58003771    
  -1.32730997      -1.32730997     -0.606999993       387.012390      -1.57564342    
 -0.965201020     -0.965201020     -0.606999993       387.012390      -1.57564342    
 -0.758352995      -1.13495600     -0.606999993       387.012390      -1.57564342    
  -1.04286098      -1.56075203     -0.606999993       387.012390      -1.57564342    
  -1.32730997      -1.32730997     -0.606999993       93.8462753      -1.58009887    
  -1.83825099      -1.83825099     -0.517000020       93.8462753      -1.58009887    
  -2.16155505      -1.44430494     -0.517000020       93.8462753      -1.58009887    
  -1.56075203      -1.04286098     -0.606999993       93.8462753      -1.58009887    
  -1.56075203      -1.04286098     -0.606999993       317.689148      -1.57568026    
  -1.13495600     -0.758352995     -0.606999993       317.689148      -1.57568026    
 -0.965201020     -0.965201020     -0.606999993       317.689148      -1.57568026    
  -1.32730997      -1.32730997     -0.606999993       317.689148      -1.57568026    
  -1.56075203      -1.04286098     -0.606999993       70.1900406      -1.57999122    
  -2.16155505      -1.44430494     -0.517000020       70.1900406      -1.57999122    
  -2.40179110     -0.994853973     -0.517000020       70.1900406      -1.57999122    
  -1.73421395     -0.718334973     -0.606999993       70.1900406      -1.57999122    
  -1.73421395     -0.718334973     -0.606999993       236.216919      -1.57570696    
  -1.26109600     -0.522363007     -0.606999993       236.216919      -1.57570696    
  -1.13495600     -0.758352995     -0.606999993       236.216919      -1.57570696    
  -1.56075203      -1.04286098     -0.606999993       236.216919      -1.57570696    
  -1.73421395     -0.718334973     -0.606999993       43.6749954      -1.57971489    
  -2.40179110     -0.994853973     -0.517000020       43.6749954      -1.57971489    
  -2.54972792     -0.507171988     -0.517000020       43.6749954      -1.57971489    
  -1.84103203     -0.366203994     -0.606999993       43.6749954      -1.57971489    
  -1.84103203     -0.366203994     -0.606999993       145.542191      -1.57578492    
  -1.33877206     -0.266297996     -0.606999993       145.542191      -1.57578492    
  -1.26109600     -0.522363007     -0.606999993       145.542191      -1.57578492    
  -1.73421395     -0.718334973     -0.606999993       145.542191      -1.57578492    
  -1.84103203     -0.366203994     -0.606999993       15.3595905      -1.57969618    
  -2.54972792     -0.507171988     -0.517000020       15.3595905      -1.57969618    
  -2.59967995       0.00000000     -0.517000020       15.3595905      -1.57969618    
  -1.87709999       0.00000000     -0.606999993       15.3595905      -1.57969618    
  -1.87709999       0.00000000     -0.606999993       49.0549088      -1.57642746    
  -1.36500001       0.00000000     -0.606999993       49.0549088      -1.57642746    
  -1.33877206     -0.266297996     -0.606999993       49.0549088      -1.57642746    
  -1.84103203     -0.366203994     -0.606999993       49.0549088      -1.57642746    
  -1.87709999       0.00000000     -0.606999993       13.5706778       1.56274128    
  -2.59967995       0.00000000     -0.517000020       13.5706778       1.56274128    
  -2.54972792      0.507171988     -0.517000020       13.5706778       1.56274128    
  -1.84103203      0.366203994     -0.606999993       13.5706778       1.56274128    
  -1.84103203      0.366203994     -0.606999993       49.4067612       1.56721294    
  -1.33877206      0.266297996     -0.606999993       49.4067612       1.56721294    
  -1.36500001       0.00000000     -0.606999993       49.4067612       1.56721294    
  -1.87709999       0.00000000     -0.606999993       49.4067612       1.56721294    
  -1.84103203      0.366203994     -0.606999993       41.9824867       1.56233811    
  -2.54972792      0.507171988     -0.517000020       41.9824867       1.56233811    
  -2.40179110      0.994853973     -0.517000020       41.9824867       1.56233811    
  -1.73421395      0.718334973     -0.606999993       41.9824867       1.56233811    
  -1.73421395      0.718334973     -0.606999993       145.958252       1.56653738    
  -1.26109600      0.522363007     -0.606999993       145.958252       1.56653738    
  -1.33877206      0.266297996     -0.606999993       145.958252       1.56653738    
  -1.84103203      0.366203994     -0.606999993       145.958252       1.56653738    
  -1.73421395      0.718334973     -0.606999993       68.6922836       1.56201160    
  -2.40179110      0.994853973     -0.517000020       68.6922836       1.56201160    
  -2.16155505       1.44430494     -0.517000020       68.6922836       1.56201160    
  -1.56075203       1.04286098     -0.606999993       68.6922836       1.56201160    
  -1.56075203       1.04286098     -0.606999993       236.729919       1.56637239    
  -1.13495600      0.758352995     -0.606999993       236.729919       1.56637239    
  -1.26109600      0.522363007     -0.606999993       236.729919       1.56637239    
  -1.73421395      0.718334973     -0.606999993       236.729919       1.56637239    
  -1.56075203       1.04286098     -0.606999993       92.5614395       1.56183875    
  -2.16155505       1.44430494     -0.517000020       92.5614395       1.56183875    
  -1.83825099       1.83825099     -0.517000020       92.5614395       1.56183875    
  -1.32730997       1.32730997     -0.606999993       92.5614395       1.56183875    
  -1.32730997       1.32730997     -0.606999993       318.165131       1.56629741    
 -0.965201020      0.965201020     -0.606999993       318.165131       1.56629741    
  -1.13495600      0.758352995     -0.606999993       318.165131       1.56629741    
  -1.56075203       1.04286098     -0.606999993       318.165131       1.56629741    
  -1.32730997       1.32730997     -0.606999993       112.724037       1.56184626    
  -1.83825099       1.83825099     -0.517000020       112.724037       1.56184626    
  -1.44430494       2.16155505     -0.517000020       112.724037       1.56184626    
  -1.04286098       1.56075203     -0.606999993       112.724037       1.56184626    
  -1.04286098       1.56075203     -0.606999993       387.163666       1.56626976    
 -0.758352995       1.13495600     -0.606999993       387.163666       1.56626976    
 -0.965201020      0.965201020     -0.606999993       387.163666       1.56626976    
  -1.32730997       1.32730997     -0.606999993       387.163666       1.56626976    
  -1.04286098       1.56075203     -0.606999993       128.622772       1.56194520    
  -1.44430494       2.16155505     -0.517000020       128.622772       1.56194520    
 -0.994853973       2.40179110     -0.517000020       128.622772       1.56194520    
 -0.718334973       1.73421395     -0.606999993       128.622772       1.56194520    
 -0.718334973       1.73421395     -0.606999993       441.226196       1.56627321    
 -0.522363007       1.26109600     -0.606999993       441.226196       1.56627321    
 -0.758352995       1.13495600     -0.606999993       441.226196       1.56627321    
  -1.04286098       1.56075203     -0.606999993       441.226196       1.56627321    
 -0.718334973       1.73421395     -0.606999993       139.764130       1.56199980    
 -0.994853973       2.40179110     -0.517000020       139.764130       1.56199980    
 -0.507171988       2.54972792     -0.517000020       139.764130       1.56199980    
 -0.366203994       1.84103203     -0.606999993       139.764130       1.56199980    
 -0.366203994       1.84103203     -0.606999993       478.379333       1.56628776    
 -0.266297996       1.33877206     -0.606999993       478.379333       1.56628776    
 -0.522363007       1.26109600     -0.606999993       478.379333       1.56628776    
 -0.718334973       1.73421395     -0.606999993       478.379333       1.56628776    
 -0.366203994       1.84103203     -0.606999993       145.592285       1.56200600    
 -0.507171988       2.54972792     -0.517000020       145.592285       1.56200600    
   0.00000000       2.59967995     -0.517000020       145.592285       1.56200600    
   0.00000000       1.87709999     -0.606999993       145.592285       1.56200600    
   0.00000000       1.87709999     -0.606999993       497.204010       1.56631064    
   0.00000000       1.36500001     -0.606999993       497.204010       1.56631064    
 -0.266297996       1.33877206     -0.606999993       497.204010       1.56631064    
 -0.366203994       1.84103203     -0.606999993       497.204010       1.56631064    
   0.00000000       1.87709999     -0.606999993       145.660294       1.56201351    
   0.00000000       2.59967995     -0.517000020       145.660294       1.56201351    
  0.507171988       2.54972792     -0.517000020       145.660294       1.56201351    
  0.366203994       1.84103203     -0.606999993       145.660294       1.56201351    
  0.366203994       1.84103203     -0.606999993       496.928741       1.56630349    
  0.266297996       1.33877206     -0.606999993       496.928741       1.56630349    
   0.00000000       1.36500001     -0.606999993       496.928741       1.56630349    
   0.00000000       1.87709999     -0.606999993       496.928741       1.56630349    
  0.366203994       1.84103203     -0.606999993       139.981781       1.56202602    
  0.507171988       2.54972792     -0.517000020       139.981781       1.56202602    
  0.994853973       2.40179110     -0.517000020       139.981781       1.56202602    
  0.718334973       1.73421395     -0.606999993       139.981781       1.56202602    
  0.718334973       1.73421395     -0.606999993       477.629089       1.56628144    
  0.522363007       1.26109600     -0.606999993       477.629089       1.56628144    
  0.266297996       1.33877206     -0.606999993       477.629089       1.56628144    
  0.366203994       1.84103203     -0.606999993       477.629089       1.56628144    
  0.718334973       1.73421395     -0.606999993       129.062698       1.56201601    
  0.994853973       2.40179110     -0.517000020       129.062698       1.56201601    
   1.44430494       2.16155505     -0.517000020       129.062698       1.56201601    
   1.04286098       1.56075203     -0.606999993       129.062698       1.56201601    
   1.04286098       1.56075203     -0.606999993       440.176056       1.56630015    
  0.758352995       1.13495600     -0.606999993       440.176056       1.56630015    
  0.522363007       1.26109600     -0.606999993       440.176056       1.56630015    
  0.718334973       1.73421395     -0.606999993       440.176056       1.56630015    
   1.04286098       1.56075203     -0.606999993       113.475098       1.56200922    
   1.44430494       2.16155505     -0.517000020       113.475098       1.56200922    
   1.83825099       1.83825099     -0.517000020       113.475098       1.56200922    
   1.32730997       1.32730997     -0.606999993       113.475098       1.56200922    
   1.32730997       1.32730997     -0.606999993       386.063202       1.56631482    
  0.965201020      0.965201020     -0.606999993       386.063202       1.56631482    
  0.758352995       1.13495600     -0.606999993       386.063202       1.56631482    
   1.04286098       1.56075203     -0.606999993       386.063202       1.56631482    
   1.32730997       1.32730997     -0.606999993       93.6936798       1.56209719    
   1.83825099       1.83825099     -0.517000020       93.6936798       1.56209719    
   2.16155505       1.44430494     -0.517000020       93.6936798       1.56209719    
   1.56075203       1.04286098     -0.606999993       93.6936798       1.56209719    
   1.56075203       1.04286098     -0.606999993       317.280945       1.56636751    
   1.13495600      0.758352995     -0.606999993       317.280945       1.56636751    
  0.965201020      0.965201020     -0.606999993       317.280945       1.56636751    
   1.32730997       1.32730997     -0.606999993       317.280945       1.56636751    
   1.56075203       1.04286098     -0.606999993       70.2355042       1.56244886    
   2.16155505       1.44430494     -0.517000020       70.2355042       1.56244886    
   2.40179110      0.994853973     -0.517000020       70.2355042       1.56244886    
   1.73421395      0.718334973     -0.606999993       70.2355042       1.56244886    
   1.73421395      0.718334973     -0.606999993       236.256454       1.56648672    
   1.26109600      0.522363007     -0.606999993       236.256454       1.56648672    
   1.13495600      0.758352995     -0.606999993       236.256454       1.56648672    
   1.56075203       1.04286098     -0.606999993       236.256454       1.56648672    
   1.73421395      0.718334973     -0.606999993       43.9229279       1.56313729    
   2.40179110      0.994853973     -0.517000020       43.9229279       1.56313729    
   2.54972792      0.507171988     -0.517000020       43.9229279       1.56313729    
   1.84103203      0.366203994     -0.606999993       43.9229279       1.56313729    
   1.84103203      0.366203994     -0.606999993       146.070648       1.56674433    
   1.33877206      0.266297996     -0.606999993       146.070648       1.56674433    
   1.26109600      0.522363007     -0.606999993       146.070648       1.56674433    
   1.73421395      0.718334973     -0.606999993       146.070648       1.56674433    
   1.84103203      0.366203994     -0.606999993       15.8240461       1.56535554    
   2.54972792      0.507171988     -0.517000020       15.8240461       1.56535554    
   2.59967995       0.00000000     -0.517000020       15.8240461       1.56535554    
   1.87709999       0.00000000     -0.606999993       15.8240461       1.56535554    
   1.87709999       0.00000000     -0.606999993       50.1286736       1.56784916    
   1.36500001       0.00000000     -0.606999993       50.1286736       1.56784916    
   1.33877206      0.266297996     -0.606999993       50.1286736       1.56784916    
   1.84103203      0.366203994     -0.606999993       50.1286736       1.56784916    
   1.87709999       0.00000000     -0.606999993       12.9336748      -1.58321881    
   2.59967995       0.00000000     -0.517000020       12.9336748      -1.58321881    
   2.54972792     -0.507171988     -0.517000020       12.9336748      -1.58321881    
   1.84103203     -0.366203994     -0.606999993       12.9336748      -1.58321881    
   1.84103203     -0.366203994     -0.606999993       47.9017258      -1.57707310    
   1.33877206     -0.266297996     -0.606999993       47.9017258      -1.57707310    
   1.36500001       0.00000000     -0.606999993       47.9017258      -1.57707310    
   1.87709999       0.00000000     -0.606999993       47.9017258      -1.57707310    
   1.84103203     -0.366203994     -0.606999993       41.2652702      -1.58075047    
   2.54972792     -0.507171988     -0.517000020       41.2652702      -1.58075047    
   2.40179110     -0.994853973     -0.517000020       41.2652702      -1.58075047    
   1.73421395     -0.718334973     -0.606999993       41.2652702      -1.58075047    
   1.73421395     -0.718334973     -0.606999993       144.247192      -1.57596302    
   1.26109600     -0.522363007     -0.606999993       144.247192      -1.57596302    
   1.33877206     -0.266297996     -0.606999993       144.247192      -1.57596302    
   1.84103203     -0.366203994     -0.606999993       144.247192      -1.57596302    
   1.73421395     -0.718334973     -0.606999993       67.9958649      -1.58053601    
   2.40179110     -0.994853973     -0.517000020       67.9958649      -1.58053601    
   2.16155505      -1.44430494     -0.517000020       67.9958649      -1.58053601    
   1.56075203      -1.04286098     -0.606999993       67.9958649      -1.58053601    
   1.56075203      -1.04286098     -0.606999993       235.132141      -1.57578325    
   1.13495600     -0.758352995     -0.606999993       235.132141      -1.57578325    
   1.26109600     -0.522363007     -0.606999993       235.132141      -1.57578325    