 VARIABLES="X" "Y" "Z" "abs(p) (Pa)" "angle(p) (rad)"
ZONE N=   2709,E =    2358, F=FEPOINT, ET=QUADRILATERAL
   0.00000000      -5.48999977     -0.157000005       135.009003      -1.53365791    
   0.00000000      -4.76741982     -0.246999994       135.009003      -1.53365791    
  0.930077016      -4.67581606     -0.246999994       135.009003      -1.53365791    
   1.07104599      -5.38451099     -0.157000005       135.009003      -1.53365791    
  -1.07104599      -5.38451099     -0.157000005       134.981491      -1.53445458    
 -0.930077016      -4.67581606     -0.246999994       134.981491      -1.53445458    
   0.00000000      -4.76741982     -0.246999994       134.981491      -1.53445458    
   0.00000000      -5.48999977     -0.157000005       134.981491      -1.53445458    
  -2.10093188      -5.07209921     -0.157000005       126.789505      -1.51470101    
  -1.82441294      -4.40452194     -0.246999994       126.789505      -1.51470101    
 -0.930077016      -4.67581606     -0.246999994       126.789505      -1.51470101    
  -1.07104599      -5.38451099     -0.157000005       126.789505      -1.51470101    
  -3.05008101      -4.56476784     -0.157000005       107.747986      -1.49750209    
  -2.64863706      -3.96396494     -0.246999994       107.747986      -1.49750209    
  -1.82441294      -4.40452194     -0.246999994       107.747986      -1.49750209    
  -2.10093188      -5.07209921     -0.157000005       107.747986      -1.49750209    
  -3.88201594      -3.88201594     -0.157000005       99.2057037      -1.50124848    
  -3.37107491      -3.37107491     -0.246999994       99.2057037      -1.50124848    
  -2.64863706      -3.96396494     -0.246999994       99.2057037      -1.50124848    
  -3.05008101      -4.56476784     -0.157000005       99.2057037      -1.50124848    
  -4.56476784      -3.05008101     -0.157000005       88.9430542      -1.51053989    
  -3.96396494      -2.64863706     -0.246999994       88.9430542      -1.51053989    
  -3.37107491      -3.37107491     -0.246999994       88.9430542      -1.51053989    
  -3.88201594      -3.88201594     -0.157000005       88.9430542      -1.51053989    
  -5.07209921      -2.10093188     -0.157000005       65.4577484      -1.54646814    
  -4.40452194      -1.82441294     -0.246999994       65.4577484      -1.54646814    
  -3.96396494      -2.64863706     -0.246999994       65.4577484      -1.54646814    
  -4.56476784      -3.05008101     -0.157000005       65.4577484      -1.54646814    
  -5.38451099      -1.07104599     -0.157000005       37.4911652      -1.54731321    
  -4.67581606     -0.930077016     -0.246999994       37.4911652      -1.54731321    
  -4.40452194      -1.82441294     -0.246999994       37.4911652      -1.54731321    
  -5.07209921      -2.10093188     -0.157000005       37.4911652      -1.54731321    
  -5.48999977       0.00000000     -0.157000005       11.7860193      -1.52816176    
  -4.76741982       0.00000000     -0.246999994       11.7860193      -1.52816176    
  -4.67581606     -0.930077016     -0.246999994       11.7860193      -1.52816176    
  -5.38451099      -1.07104599     -0.157000005       11.7860193      -1.52816176    
  -5.38451099       1.07104599     -0.157000005       11.0916557       1.63241243    
  -4.67581606      0.930077016     -0.246999994       11.0916557       1.63241243    
  -4.76741982       0.00000000     -0.246999994       11.0916557       1.63241243    
  -5.48999977       0.00000000     -0.157000005       11.0916557       1.63241243    
  -5.07209921       2.10093188     -0.157000005       37.0863228       1.60533142    
  -4.40452194       1.82441294     -0.246999994       37.0863228       1.60533142    
  -4.67581606      0.930077016     -0.246999994       37.0863228       1.60533142    
  -5.38451099       1.07104599     -0.157000005       37.0863228       1.60533142    
  -4.56476784       3.05008101     -0.157000005       65.9393311       1.60225439    
  -3.96396494       2.64863706     -0.246999994       65.9393311       1.60225439    
  -4.40452194       1.82441294     -0.246999994       65.9393311       1.60225439    
  -5.07209921       2.10093188     -0.157000005       65.9393311       1.60225439    
  -3.88201594       3.88201594     -0.157000005       90.4505768       1.61409473    
  -3.37107491       3.37107491     -0.246999994       90.4505768       1.61409473    
  -3.96396494       2.64863706     -0.246999994       90.4505768       1.61409473    
  -4.56476784       3.05008101     -0.157000005       90.4505768       1.61409473    
  -3.05008101       4.56476784     -0.157000005       106.645241       1.64548051    
  -2.64863706       3.96396494     -0.246999994       106.645241       1.64548051    
  -3.37107491       3.37107491     -0.246999994       106.645241       1.64548051    
  -3.88201594       3.88201594     -0.157000005       106.645241       1.64548051    
  -2.10093188       5.07209921     -0.157000005       112.286514       1.64809799    
  -1.82441294       4.40452194     -0.246999994       112.286514       1.64809799    
  -2.64863706       3.96396494     -0.246999994       112.286514       1.64809799    
  -3.05008101       4.56476784     -0.157000005       112.286514       1.64809799    
  -1.07104599       5.38451099     -0.157000005       127.364067       1.63044631    
 -0.930077016       4.67581606     -0.246999994       127.364067       1.63044631    
  -1.82441294       4.40452194     -0.246999994       127.364067       1.63044631    
  -2.10093188       5.07209921     -0.157000005       127.364067       1.63044631    
   0.00000000       5.48999977     -0.157000005       137.549866       1.59950995    
   0.00000000       4.76741982     -0.246999994       137.549866       1.59950995    
 -0.930077016       4.67581606     -0.246999994       137.549866       1.59950995    
  -1.07104599       5.38451099     -0.157000005       137.549866       1.59950995    
   1.07104599       5.38451099     -0.157000005       138.706253       1.60403478    
  0.930077016       4.67581606     -0.246999994       138.706253       1.60403478    
   0.00000000       4.76741982     -0.246999994       138.706253       1.60403478    
   0.00000000       5.48999977     -0.157000005       138.706253       1.60403478    
   2.10093188       5.07209921     -0.157000005       126.595512       1.62782109    
   1.82441294       4.40452194     -0.246999994       126.595512       1.62782109    
  0.930077016       4.67581606     -0.246999994       126.595512       1.62782109    
   1.07104599       5.38451099     -0.157000005       126.595512       1.62782109    
   3.05008101       4.56476784     -0.157000005       112.407448       1.64786971    
   2.64863706       3.96396494     -0.246999994       112.407448       1.64786971    
   1.82441294       4.40452194     -0.246999994       112.407448       1.64786971    
   2.10093188       5.07209921     -0.157000005       112.407448       1.64786971    
   3.88201594       3.88201594     -0.157000005       106.823990       1.64065623    
   3.37107491       3.37107491     -0.246999994       106.823990       1.64065623    
   2.64863706       3.96396494     -0.246999994       106.823990       1.64065623    
   3.05008101       4.56476784     -0.157000005       106.823990       1.64065623    
   4.56476784       3.05008101     -0.157000005       91.2114868       1.62091780    
   3.96396494       2.64863706     -0.246999994       91.2114868       1.62091780    
   3.37107491       3.37107491     -0.246999994       91.2114868       1.62091780    
   3.88201594       3.88201594     -0.157000005       91.2114868       1.62091780    
   5.07209921       2.10093188     -0.157000005       65.9303436       1.59567559    
   4.40452194       1.82441294     -0.246999994       65.9303436       1.59567559    
   3.96396494       2.64863706     -0.246999994       65.9303436       1.59567559    
   4.56476784       3.05008101     -0.157000005       65.9303436       1.59567559    
   5.38451099       1.07104599     -0.157000005       36.7647209       1.60359776    
   4.67581606      0.930077016     -0.246999994       36.7647209       1.60359776    
   4.40452194       1.82441294     -0.246999994       36.7647209       1.60359776    
   5.07209921       2.10093188     -0.157000005       36.7647209       1.60359776    
   5.48999977       0.00000000     -0.157000005       11.0852947       1.59911788    
   4.76741982       0.00000000     -0.246999994       11.0852947       1.59911788    
   4.67581606      0.930077016     -0.246999994       11.0852947       1.59911788    
   5.38451099       1.07104599     -0.157000005       11.0852947       1.59911788    
   5.38451099      -1.07104599     -0.157000005       11.7403727      -1.52278244    
   4.67581606     -0.930077016     -0.246999994       11.7403727      -1.52278244    
   4.76741982       0.00000000     -0.246999994       11.7403727      -1.52278244    
   5.48999977       0.00000000     -0.157000005       11.7403727      -1.52278244    
   5.07209921      -2.10093188     -0.157000005       37.6324730      -1.54449403    
   4.40452194      -1.82441294     -0.246999994       37.6324730      -1.54449403    
   4.67581606     -0.930077016     -0.246999994       37.6324730      -1.54449403    
   5.38451099      -1.07104599     -0.157000005       37.6324730      -1.54449403    
   4.56476784      -3.05008101     -0.157000005       65.4979706      -1.53939104    
   3.96396494      -2.64863706     -0.246999994       65.4979706      -1.53939104    
   4.40452194      -1.82441294     -0.246999994       65.4979706      -1.53939104    
   5.07209921      -2.10093188     -0.157000005       65.4979706      -1.53939104    
   3.88201594      -3.88201594     -0.157000005       88.1012878      -1.51950932    
   3.37107491      -3.37107491     -0.246999994       88.1012878      -1.51950932    
   3.96396494      -2.64863706     -0.246999994       88.1012878      -1.51950932    
   4.56476784      -3.05008101     -0.157000005       88.1012878      -1.51950932    
   3.05008101      -4.56476784     -0.157000005       100.028496      -1.49172592    
   2.64863706      -3.96396494     -0.246999994       100.028496      -1.49172592    
   3.37107491      -3.37107491     -0.246999994       100.028496      -1.49172592    
   3.88201594      -3.88201594     -0.157000005       100.028496      -1.49172592    
   2.10093188      -5.07209921     -0.157000005       107.775948      -1.49782252    
   1.82441294      -4.40452194     -0.246999994       107.775948      -1.49782252    
   2.64863706      -3.96396494     -0.246999994       107.775948      -1.49782252    
   3.05008101      -4.56476784     -0.157000005       107.775948      -1.49782252    
   1.07104599      -5.38451099     -0.157000005       125.971001      -1.51962960    
  0.930077016      -4.67581606     -0.246999994       125.971001      -1.51962960    
   1.82441294      -4.40452194     -0.246999994       125.971001      -1.51962960    
   2.10093188      -5.07209921     -0.157000005       125.971001      -1.51962960    
   0.00000000      -1.87709999     -0.606999993       11506.2412      -1.56772316    
   0.00000000      -1.36500001     -0.606999993       11506.2412      -1.56772316    
  0.266297996      -1.33877206     -0.606999993       11506.2412      -1.56772316    
  0.366203994      -1.84103203     -0.606999993       11506.2412      -1.56772316    
   0.00000000      -1.87709999     -0.606999993       1584.65649       1.58714366    
   0.00000000      -2.59967995     -0.517000020       1584.65649       1.58714366    
 -0.507171988      -2.54972792     -0.517000020       1584.65649       1.58714366    
 -0.366203994      -1.84103203     -0.606999993       1584.65649       1.58714366    
 -0.366203994      -1.84103203     -0.606999993       11491.6094      -1.56770325    
 -0.266297996      -1.33877206     -0.606999993       11491.6094      -1.56770325    
   0.00000000      -1.36500001     -0.606999993       11491.6094      -1.56770325    
   0.00000000      -1.87709999     -0.606999993       11491.6094      -1.56770325    
 -0.366203994      -1.84103203     -0.606999993       1616.30408       1.58975196    
 -0.507171988      -2.54972792     -0.517000020       1616.30408       1.58975196    
 -0.994853973      -2.40179110     -0.517000020       1616.30408       1.58975196    
 -0.718334973      -1.73421395     -0.606999993       1616.30408       1.58975196    
 -0.718334973      -1.73421395     -0.606999993       11043.0273      -1.56762540    
 -0.522363007      -1.26109600     -0.606999993       11043.0273      -1.56762540    
 -0.266297996      -1.33877206     -0.606999993       11043.0273      -1.56762540    
 -0.366203994      -1.84103203     -0.606999993       11043.0273      -1.56762540    
 -0.718334973      -1.73421395     -0.606999993       1633.75928       1.59110689    
 -0.994853973      -2.40179110     -0.517000020       1633.75928       1.59110689    
  -1.44430494      -2.16155505     -0.517000020       1633.75928       1.59110689    
  -1.04286098      -1.56075203     -0.606999993       1633.75928       1.59110689    
  -1.04286098      -1.56075203     -0.606999993       10153.1455      -1.56736684    
 -0.758352995      -1.13495600     -0.606999993       10153.1455      -1.56736684    
 -0.522363007      -1.26109600     -0.606999993       10153.1455      -1.56736684    
 -0.718334973      -1.73421395     -0.606999993       10153.1455      -1.56736684    
  -1.04286098      -1.56075203     -0.606999993       1554.60132       1.58895123    
  -1.44430494      -2.16155505     -0.517000020       1554.60132       1.58895123    
  -1.83825099      -1.83825099     -0.517000020       1554.60132       1.58895123    
  -1.32730997      -1.32730997     -0.606999993       1554.60132       1.58895123    
  -1.32730997      -1.32730997     -0.606999993       8835.68359      -1.56696367    
 -0.965201020     -0.965201020     -0.606999993       8835.68359      -1.56696367    
 -0.758352995      -1.13495600     -0.606999993       8835.68359      -1.56696367    
  -1.04286098      -1.56075203     -0.606999993       8835.68359      -1.56696367    
  -1.32730997      -1.32730997     -0.606999993       1329.78943       1.58461106    
  -1.83825099      -1.83825099     -0.517000020       1329.78943       1.58461106    
  -2.16155505      -1.44430494     -0.517000020       1329.78943       1.58461106    
  -1.56075203      -1.04286098     -0.606999993       1329.78943       1.58461106    
  -1.56075203      -1.04286098     -0.606999993       7149.99902      -1.56677723    
  -1.13495600     -0.758352995     -0.606999993       7149.99902      -1.56677723    
 -0.965201020     -0.965201020     -0.606999993       7149.99902      -1.56677723    
  -1.32730997      -1.32730997     -0.606999993       7149.99902      -1.56677723    
  -1.56075203      -1.04286098     -0.606999993       994.869141       1.58080494    
  -2.16155505      -1.44430494     -0.517000020       994.869141       1.58080494    
  -2.40179110     -0.994853973     -0.517000020       994.869141       1.58080494    
  -1.73421395     -0.718334973     -0.606999993       994.869141       1.58080494    
  -1.73421395     -0.718334973     -0.606999993       5192.71826      -1.56724727    
  -1.26109600     -0.522363007     -0.606999993       5192.71826      -1.56724727    
  -1.13495600     -0.758352995     -0.606999993       5192.71826      -1.56724727    
  -1.56075203      -1.04286098     -0.606999993       5192.71826      -1.56724727    
  -1.73421395     -0.718334973     -0.606999993       612.362610       1.57919145    
  -2.40179110     -0.994853973     -0.517000020       612.362610       1.57919145    
  -2.54972792     -0.507171988     -0.517000020       612.362610       1.57919145    
  -1.84103203     -0.366203994     -0.606999993       612.362610       1.57919145    
  -1.84103203     -0.366203994     -0.606999993       3079.65991      -1.56845188    
  -1.33877206     -0.266297996     -0.606999993       3079.65991      -1.56845188    
  -1.26109600     -0.522363007     -0.606999993       3079.65991      -1.56845188    
  -1.73421395     -0.718334973     -0.606999993       3079.65991      -1.56845188    
  -1.84103203     -0.366203994     -0.606999993       248.224136       1.57625282    
  -2.54972792     -0.507171988     -0.517000020       248.224136       1.57625282    
  -2.59967995       0.00000000     -0.517000020       248.224136       1.57625282    
  -1.87709999       0.00000000     -0.606999993       248.224136       1.57625282    
  -1.87709999       0.00000000     -0.606999993       903.672363      -1.57053471    
  -1.36500001       0.00000000     -0.606999993       903.672363      -1.57053471    
  -1.33877206     -0.266297996     -0.606999993       903.672363      -1.57053471    
  -1.84103203     -0.366203994     -0.606999993       903.672363      -1.57053471    
  -1.87709999       0.00000000     -0.606999993       96.7744217      -1.54114413    
  -2.59967995       0.00000000     -0.517000020       96.7744217      -1.54114413    
  -2.54972792      0.507171988     -0.517000020       96.7744217      -1.54114413    
  -1.84103203      0.366203994     -0.606999993       96.7744217      -1.54114413    
  -1.84103203      0.366203994     -0.606999993       1272.82886       1.57315505    
  -1.33877206      0.266297996     -0.606999993       1272.82886       1.57315505    
  -1.36500001       0.00000000     -0.606999993       1272.82886       1.57315505    
  -1.87709999       0.00000000     -0.606999993       1272.82886       1.57315505    
  -1.84103203      0.366203994     -0.606999993       442.974152      -1.55645454    
  -2.54972792      0.507171988     -0.517000020       442.974152      -1.55645454    
  -2.40179110      0.994853973     -0.517000020       442.974152      -1.55645454    
  -1.73421395      0.718334973     -0.606999993       442.974152      -1.55645454    
  -1.73421395      0.718334973     -0.606999993       3416.51147       1.57306194    
  -1.26109600      0.522363007     -0.606999993       3416.51147       1.57306194    
  -1.33877206      0.266297996     -0.606999993       3416.51147       1.57306194    
  -1.84103203      0.366203994     -0.606999993       3416.51147       1.57306194    
  -1.73421395      0.718334973     -0.606999993       804.017090      -1.55851388    
  -2.40179110      0.994853973     -0.517000020       804.017090      -1.55851388    
  -2.16155505       1.44430494     -0.517000020       804.017090      -1.55851388    
  -1.56075203       1.04286098     -0.606999993       804.017090      -1.55851388    
  -1.56075203       1.04286098     -0.606999993       5479.24023       1.57383311    
  -1.13495600      0.758352995     -0.606999993       5479.24023       1.57383311    
  -1.26109600      0.522363007     -0.606999993       5479.24023       1.57383311    
  -1.73421395      0.718334973     -0.606999993       5479.24023       1.57383311    
  -1.56075203       1.04286098     -0.606999993       1130.90662      -1.55599964    
  -2.16155505       1.44430494     -0.517000020       1130.90662      -1.55599964    
  -1.83825099       1.83825099     -0.517000020       1130.90662      -1.55599964    
  -1.32730997       1.32730997     -0.606999993       1130.90662      -1.55599964    
  -1.32730997       1.32730997     -0.606999993       7384.79297       1.57436466    
 -0.965201020      0.965201020     -0.606999993       7384.79297       1.57436466    
  -1.13495600      0.758352995     -0.606999993       7384.79297       1.57436466    
  -1.56075203       1.04286098     -0.606999993       7384.79297       1.57436466    
  -1.32730997       1.32730997     -0.606999993       1369.78210      -1.55149579    
  -1.83825099       1.83825099     -0.517000020       1369.78210      -1.55149579    
  -1.44430494       2.16155505     -0.517000020       1369.78210      -1.55149579    
  -1.04286098       1.56075203     -0.606999993       1369.78210      -1.55149579    
  -1.04286098       1.56075203     -0.606999993       9025.16016       1.57439220    
 -0.758352995       1.13495600     -0.606999993       9025.16016       1.57439220    
 -0.965201020      0.965201020     -0.606999993       9025.16016       1.57439220    
  -1.32730997       1.32730997     -0.606999993       9025.16016       1.57439220    
  -1.04286098       1.56075203     -0.606999993       1482.26135      -1.54877031    
  -1.44430494       2.16155505     -0.517000020       1482.26135      -1.54877031    
 -0.994853973       2.40179110     -0.517000020       1482.26135      -1.54877031    
 -0.718334973       1.73421395     -0.606999993       1482.26135      -1.54877031    
 -0.718334973       1.73421395     -0.606999993       10304.8486       1.57417750    
 -0.522363007       1.26109600     -0.606999993       10304.8486       1.57417750    
 -0.758352995       1.13495600     -0.606999993       10304.8486       1.57417750    
  -1.04286098       1.56075203     -0.606999993       10304.8486       1.57417750    
 -0.718334973       1.73421395     -0.606999993       1499.00574      -1.54999411    
 -0.994853973       2.40179110     -0.517000020       1499.00574      -1.54999411    
 -0.507171988       2.54972792     -0.517000020       1499.00574      -1.54999411    
 -0.366203994       1.84103203     -0.606999993       1499.00574      -1.54999411    
 -0.366203994       1.84103203     -0.606999993       11159.4814       1.57404041    
 -0.266297996       1.33877206     -0.606999993       11159.4814       1.57404041    
 -0.522363007       1.26109600     -0.606999993       11159.4814       1.57404041    
 -0.718334973       1.73421395     -0.606999993       11159.4814       1.57404041    
 -0.366203994       1.84103203     -0.606999993       1490.32104      -1.55292010    
 -0.507171988       2.54972792     -0.517000020       1490.32104      -1.55292010    
   0.00000000       2.59967995     -0.517000020       1490.32104      -1.55292010    
   0.00000000       1.87709999     -0.606999993       1490.32104      -1.55292010    
   0.00000000       1.87709999     -0.606999993       11567.3936       1.57403159    
   0.00000000       1.36500001     -0.606999993       11567.3936       1.57403159    
 -0.266297996       1.33877206     -0.606999993       11567.3936       1.57403159    
 -0.366203994       1.84103203     -0.606999993       11567.3936       1.57403159    
   0.00000000       1.87709999     -0.606999993       1504.68274      -1.55308461    
   0.00000000       2.59967995     -0.517000020       1504.68274      -1.55308461    
  0.507171988       2.54972792     -0.517000020       1504.68274      -1.55308461    
  0.366203994       1.84103203     -0.606999993       1504.68274      -1.55308461    
  0.366203994       1.84103203     -0.606999993       11528.7236       1.57403791    
  0.266297996       1.33877206     -0.606999993       11528.7236       1.57403791    
   0.00000000       1.36500001     -0.606999993       11528.7236       1.57403791    
   0.00000000       1.87709999     -0.606999993       11528.7236       1.57403791    
  0.366203994       1.84103203     -0.606999993       1539.53784      -1.55049753    
  0.507171988       2.54972792     -0.517000020       1539.53784      -1.55049753    
  0.994853973       2.40179110     -0.517000020       1539.53784      -1.55049753    
  0.718334973       1.73421395     -0.606999993       1539.53784      -1.55049753    
  0.718334973       1.73421395     -0.606999993       11047.7891       1.57405627    
  0.522363007       1.26109600     -0.606999993       11047.7891       1.57405627    
  0.266297996       1.33877206     -0.606999993       11047.7891       1.57405627    
  0.366203994       1.84103203     -0.606999993       11047.7891       1.57405627    
  0.718334973       1.73421395     -0.606999993       1541.85815      -1.54950190    
  0.994853973       2.40179110     -0.517000020       1541.85815      -1.54950190    
   1.44430494       2.16155505     -0.517000020       1541.85815      -1.54950190    
   1.04286098       1.56075203     -0.606999993       1541.85815      -1.54950190    
   1.04286098       1.56075203     -0.606999993       10132.2393       1.57419908    
  0.758352995       1.13495600     -0.606999993       10132.2393       1.57419908    
  0.522363007       1.26109600     -0.606999993       10132.2393       1.57419908    
  0.718334973       1.73421395     -0.606999993       10132.2393       1.57419908    
   1.04286098       1.56075203     -0.606999993       1438.52649      -1.55221474    
   1.44430494       2.16155505     -0.517000020       1438.52649      -1.55221474    
   1.83825099       1.83825099     -0.517000020       1438.52649      -1.55221474    
   1.32730997       1.32730997     -0.606999993       1438.52649      -1.55221474    
   1.32730997       1.32730997     -0.606999993       8808.80371       1.57442224    
  0.965201020      0.965201020     -0.606999993       8808.80371       1.57442224    
  0.758352995       1.13495600     -0.606999993       8808.80371       1.57442224    
   1.04286098       1.56075203     -0.606999993       8808.80371       1.57442224    
   1.32730997       1.32730997     -0.606999993       1199.77002      -1.55661190    
   1.83825099       1.83825099     -0.517000020       1199.77002      -1.55661190    
   2.16155505       1.44430494     -0.517000020       1199.77002      -1.55661190    
   1.56075203       1.04286098     -0.606999993       1199.77002      -1.55661190    
   1.56075203       1.04286098     -0.606999993       7142.14160       1.57441306    
   1.13495600      0.758352995     -0.606999993       7142.14160       1.57441306    
  0.965201020      0.965201020     -0.606999993       7142.14160       1.57441306    
   1.32730997       1.32730997     -0.606999993       7142.14160       1.57441306    
   1.56075203       1.04286098     -0.606999993       867.962463      -1.55926919    
   2.16155505       1.44430494     -0.517000020       867.962463      -1.55926919    
   2.40179110      0.994853973     -0.517000020       867.962463      -1.55926919    
   1.73421395      0.718334973     -0.606999993       867.962463      -1.55926919    
   1.73421395      0.718334973     -0.606999993       5223.45703       1.57391822    
   1.26109600      0.522363007     -0.606999993       5223.45703       1.57391822    
   1.13495600      0.758352995     -0.606999993       5223.45703       1.57391822    
   1.56075203       1.04286098     -0.606999993       5223.45703       1.57391822    
   1.73421395      0.718334973     -0.606999993       502.381317      -1.55828071    
   2.40179110      0.994853973     -0.517000020       502.381317      -1.55828071    
   2.54972792      0.507171988     -0.517000020       502.381317      -1.55828071    
   1.84103203      0.366203994     -0.606999993       502.381317      -1.55828071    
   1.84103203      0.366203994     -0.606999993       3155.56006       1.57323158    
   1.33877206      0.266297996     -0.606999993       3155.56006       1.57323158    
   1.26109600      0.522363007     -0.606999993       3155.56006       1.57323158    
   1.73421395      0.718334973     -0.606999993       3155.56006       1.57323158    
   1.84103203      0.366203994     -0.606999993       155.966370      -1.55349529    
   2.54972792      0.507171988     -0.517000020       155.966370      -1.55349529    
   2.59967995       0.00000000     -0.517000020       155.966370      -1.55349529    
   1.87709999       0.00000000     -0.606999993       155.966370      -1.55349529    
   1.87709999       0.00000000     -0.606999993       1008.84460       1.57386661    
   1.36500001       0.00000000     -0.606999993       1008.84460       1.57386661    
   1.33877206      0.266297996     -0.606999993       1008.84460       1.57386661    
   1.84103203      0.366203994     -0.606999993       1008.84460       1.57386661    
   1.87709999       0.00000000     -0.606999993       184.449203       1.57868052    
   2.59967995       0.00000000     -0.517000020       184.449203       1.57868052    
   2.54972792     -0.507171988     -0.517000020       184.449203       1.57868052    
   1.84103203     -0.366203994     -0.606999993       184.449203       1.57868052    
   1.84103203     -0.366203994     -0.606999993       1169.74841      -1.57057548    
   1.33877206     -0.266297996     -0.606999993       1169.74841      -1.57057548    
   1.36500001       0.00000000     -0.606999993       1169.74841      -1.57057548    
   1.87709999       0.00000000     -0.606999993       1169.74841      -1.57057548    
   1.84103203     -0.366203994     -0.606999993       544.226379       1.58009994    
   2.54972792     -0.507171988     -0.517000020       544.226379       1.58009994    
   2.40179110     -0.994853973     -0.517000020       544.226379       1.58009994    
   1.73421395     -0.718334973     -0.606999993       544.226379       1.58009994    
   1.73421395     -0.718334973     -0.606999993       3341.62354      -1.56854475    
   1.26109600     -0.522363007     -0.606999993       3341.62354      -1.56854475    
   1.33877206     -0.266297996     -0.606999993       3341.62354      -1.56854475    
   1.84103203     -0.366203994     -0.606999993       3341.62354      -1.56854475    
   1.73421395     -0.718334973     -0.606999993       929.441406       1.58130455    
   2.40179110     -0.994853973     -0.517000020       929.441406       1.58130455    
   2.16155505      -1.44430494     -0.517000020       929.441406       1.58130455    
   1.56075203      -1.04286098     -0.606999993       929.441406       1.58130455    
   1.56075203      -1.04286098     -0.606999993       5436.50195      -1.56731749    
   1.13495600     -0.758352995     -0.606999993       5436.50195      -1.56731749    
   1.26109600     -0.522363007     -0.606999993       5436.50195      -1.56731749    