 VARIABLES="X" "Y" "Z" "abs(p) (Pa)" "angle(p) (rad)"
ZONE N=   2709,E =    2358, F=FEPOINT, ET=QUADRILATERAL
   0.00000000      -5.48999977     -0.157000005       2.35343933      -2.42373633    
   0.00000000      -4.76741982     -0.246999994       2.35343933      -2.42373633    
  0.930077016      -4.67581606     -0.246999994       2.35343933      -2.42373633    
   1.07104599      -5.38451099     -0.157000005       2.35343933      -2.42373633    
  -1.07104599      -5.38451099     -0.157000005       3.07131672      0.854014575    
 -0.930077016      -4.67581606     -0.246999994       3.07131672      0.854014575    
   0.00000000      -4.76741982     -0.246999994       3.07131672      0.854014575    
   0.00000000      -5.48999977     -0.157000005       3.07131672      0.854014575    
  -2.10093188      -5.07209921     -0.157000005       11.2454500      0.538876832    
  -1.82441294      -4.40452194     -0.246999994       11.2454500      0.538876832    
 -0.930077016      -4.67581606     -0.246999994       11.2454500      0.538876832    
  -1.07104599      -5.38451099     -0.157000005       11.2454500      0.538876832    
  -3.05008101      -4.56476784     -0.157000005       14.6906500      0.656915784    
  -2.64863706      -3.96396494     -0.246999994       14.6906500      0.656915784    
  -1.82441294      -4.40452194     -0.246999994       14.6906500      0.656915784    
  -2.10093188      -5.07209921     -0.157000005       14.6906500      0.656915784    
  -3.88201594      -3.88201594     -0.157000005       20.0756893      0.671727717    
  -3.37107491      -3.37107491     -0.246999994       20.0756893      0.671727717    
  -2.64863706      -3.96396494     -0.246999994       20.0756893      0.671727717    
  -3.05008101      -4.56476784     -0.157000005       20.0756893      0.671727717    
  -4.56476784      -3.05008101     -0.157000005       25.2303944      0.462888181    
  -3.96396494      -2.64863706     -0.246999994       25.2303944      0.462888181    
  -3.37107491      -3.37107491     -0.246999994       25.2303944      0.462888181    
  -3.88201594      -3.88201594     -0.157000005       25.2303944      0.462888181    
  -5.07209921      -2.10093188     -0.157000005       27.9925213      0.647164404    
  -4.40452194      -1.82441294     -0.246999994       27.9925213      0.647164404    
  -3.96396494      -2.64863706     -0.246999994       27.9925213      0.647164404    
  -4.56476784      -3.05008101     -0.157000005       27.9925213      0.647164404    
  -5.38451099      -1.07104599     -0.157000005       29.1538944      0.653460801    
  -4.67581606     -0.930077016     -0.246999994       29.1538944      0.653460801    
  -4.40452194      -1.82441294     -0.246999994       29.1538944      0.653460801    
  -5.07209921      -2.10093188     -0.157000005       29.1538944      0.653460801    
  -5.48999977       0.00000000     -0.157000005       36.0536385      0.497551709    
  -4.76741982       0.00000000     -0.246999994       36.0536385      0.497551709    
  -4.67581606     -0.930077016     -0.246999994       36.0536385      0.497551709    
  -5.38451099      -1.07104599     -0.157000005       36.0536385      0.497551709    
  -5.38451099       1.07104599     -0.157000005       35.3874016      0.496208489    
  -4.67581606      0.930077016     -0.246999994       35.3874016      0.496208489    
  -4.76741982       0.00000000     -0.246999994       35.3874016      0.496208489    
  -5.48999977       0.00000000     -0.157000005       35.3874016      0.496208489    
  -5.07209921       2.10093188     -0.157000005       34.3488922      0.480410635    
  -4.40452194       1.82441294     -0.246999994       34.3488922      0.480410635    
  -4.67581606      0.930077016     -0.246999994       34.3488922      0.480410635    
  -5.38451099       1.07104599     -0.157000005       34.3488922      0.480410635    
  -4.56476784       3.05008101     -0.157000005       31.6347980      0.488299549    
  -3.96396494       2.64863706     -0.246999994       31.6347980      0.488299549    
  -4.40452194       1.82441294     -0.246999994       31.6347980      0.488299549    
  -5.07209921       2.10093188     -0.157000005       31.6347980      0.488299549    
  -3.88201594       3.88201594     -0.157000005       23.6982212      0.623313546    
  -3.37107491       3.37107491     -0.246999994       23.6982212      0.623313546    
  -3.96396494       2.64863706     -0.246999994       23.6982212      0.623313546    
  -4.56476784       3.05008101     -0.157000005       23.6982212      0.623313546    
  -3.05008101       4.56476784     -0.157000005       22.6231461      0.473627716    
  -2.64863706       3.96396494     -0.246999994       22.6231461      0.473627716    
  -3.37107491       3.37107491     -0.246999994       22.6231461      0.473627716    
  -3.88201594       3.88201594     -0.157000005       22.6231461      0.473627716    
  -2.10093188       5.07209921     -0.157000005       14.1759214      0.642723262    
  -1.82441294       4.40452194     -0.246999994       14.1759214      0.642723262    
  -2.64863706       3.96396494     -0.246999994       14.1759214      0.642723262    
  -3.05008101       4.56476784     -0.157000005       14.1759214      0.642723262    
  -1.07104599       5.38451099     -0.157000005       10.3692007      0.374950647    
 -0.930077016       4.67581606     -0.246999994       10.3692007      0.374950647    
  -1.82441294       4.40452194     -0.246999994       10.3692007      0.374950647    
  -2.10093188       5.07209921     -0.157000005       10.3692007      0.374950647    
   0.00000000       5.48999977     -0.157000005       2.56220818      0.809268177    
   0.00000000       4.76741982     -0.246999994       2.56220818      0.809268177    
 -0.930077016       4.67581606     -0.246999994       2.56220818      0.809268177    
  -1.07104599       5.38451099     -0.157000005       2.56220818      0.809268177    
   1.07104599       5.38451099     -0.157000005       3.79562402      -2.20778704    
  0.930077016       4.67581606     -0.246999994       3.79562402      -2.20778704    
   0.00000000       4.76741982     -0.246999994       3.79562402      -2.20778704    
   0.00000000       5.48999977     -0.157000005       3.79562402      -2.20778704    
   2.10093188       5.07209921     -0.157000005       9.79936123      -2.54112530    
   1.82441294       4.40452194     -0.246999994       9.79936123      -2.54112530    
  0.930077016       4.67581606     -0.246999994       9.79936123      -2.54112530    
   1.07104599       5.38451099     -0.157000005       9.79936123      -2.54112530    
   3.05008101       4.56476784     -0.157000005       14.2220449      -2.44792151    
   2.64863706       3.96396494     -0.246999994       14.2220449      -2.44792151    
   1.82441294       4.40452194     -0.246999994       14.2220449      -2.44792151    
   2.10093188       5.07209921     -0.157000005       14.2220449      -2.44792151    
   3.88201594       3.88201594     -0.157000005       24.0257225      -2.61740518    
   3.37107491       3.37107491     -0.246999994       24.0257225      -2.61740518    
   2.64863706       3.96396494     -0.246999994       24.0257225      -2.61740518    
   3.05008101       4.56476784     -0.157000005       24.0257225      -2.61740518    
   4.56476784       3.05008101     -0.157000005       23.5651417      -2.57610774    
   3.96396494       2.64863706     -0.246999994       23.5651417      -2.57610774    
   3.37107491       3.37107491     -0.246999994       23.5651417      -2.57610774    
   3.88201594       3.88201594     -0.157000005       23.5651417      -2.57610774    
   5.07209921       2.10093188     -0.157000005       32.4418182      -2.62672758    
   4.40452194       1.82441294     -0.246999994       32.4418182      -2.62672758    
   3.96396494       2.64863706     -0.246999994       32.4418182      -2.62672758    
   4.56476784       3.05008101     -0.157000005       32.4418182      -2.62672758    
   5.38451099       1.07104599     -0.157000005       29.2625980      -2.48660111    
   4.67581606      0.930077016     -0.246999994       29.2625980      -2.48660111    
   4.40452194       1.82441294     -0.246999994       29.2625980      -2.48660111    
   5.07209921       2.10093188     -0.157000005       29.2625980      -2.48660111    
   5.48999977       0.00000000     -0.157000005       31.2122250      -2.50550580    
   4.76741982       0.00000000     -0.246999994       31.2122250      -2.50550580    
   4.67581606      0.930077016     -0.246999994       31.2122250      -2.50550580    
   5.38451099       1.07104599     -0.157000005       31.2122250      -2.50550580    
   5.38451099      -1.07104599     -0.157000005       30.5575867      -2.48149753    
   4.67581606     -0.930077016     -0.246999994       30.5575867      -2.48149753    
   4.76741982       0.00000000     -0.246999994       30.5575867      -2.48149753    
   5.48999977       0.00000000     -0.157000005       30.5575867      -2.48149753    
   5.07209921      -2.10093188     -0.157000005       29.4302139      -2.50306058    
   4.40452194      -1.82441294     -0.246999994       29.4302139      -2.50306058    
   4.67581606     -0.930077016     -0.246999994       29.4302139      -2.50306058    
   5.38451099      -1.07104599     -0.157000005       29.4302139      -2.50306058    
   4.56476784      -3.05008101     -0.157000005       27.3425484      -2.49520779    
   3.96396494      -2.64863706     -0.246999994       27.3425484      -2.49520779    
   4.40452194      -1.82441294     -0.246999994       27.3425484      -2.49520779    
   5.07209921      -2.10093188     -0.157000005       27.3425484      -2.49520779    
   3.88201594      -3.88201594     -0.157000005       23.3095989      -2.49926376    
   3.37107491      -3.37107491     -0.246999994       23.3095989      -2.49926376    
   3.96396494      -2.64863706     -0.246999994       23.3095989      -2.49926376    
   4.56476784      -3.05008101     -0.157000005       23.3095989      -2.49926376    
   3.05008101      -4.56476784     -0.157000005       22.7269897      -2.66366982    
   2.64863706      -3.96396494     -0.246999994       22.7269897      -2.66366982    
   3.37107491      -3.37107491     -0.246999994       22.7269897      -2.66366982    
   3.88201594      -3.88201594     -0.157000005       22.7269897      -2.66366982    
   2.10093188      -5.07209921     -0.157000005       14.0178413      -2.50244308    
   1.82441294      -4.40452194     -0.246999994       14.0178413      -2.50244308    
   2.64863706      -3.96396494     -0.246999994       14.0178413      -2.50244308    
   3.05008101      -4.56476784     -0.157000005       14.0178413      -2.50244308    
   1.07104599      -5.38451099     -0.157000005       9.11184883      -2.57617164    
  0.930077016      -4.67581606     -0.246999994       9.11184883      -2.57617164    
   1.82441294      -4.40452194     -0.246999994       9.11184883      -2.57617164    
   2.10093188      -5.07209921     -0.157000005       9.11184883      -2.57617164    
   0.00000000      -1.87709999     -0.606999993       22.9561691       1.56872368    
   0.00000000      -1.36500001     -0.606999993       22.9561691       1.56872368    
  0.266297996      -1.33877206     -0.606999993       22.9561691       1.56872368    
  0.366203994      -1.84103203     -0.606999993       22.9561691       1.56872368    
   0.00000000      -1.87709999     -0.606999993       8.41192436      -1.57012713    
   0.00000000      -2.59967995     -0.517000020       8.41192436      -1.57012713    
 -0.507171988      -2.54972792     -0.517000020       8.41192436      -1.57012713    
 -0.366203994      -1.84103203     -0.606999993       8.41192436      -1.57012713    
 -0.366203994      -1.84103203     -0.606999993       21.5383034      -1.57066798    
 -0.266297996      -1.33877206     -0.606999993       21.5383034      -1.57066798    
   0.00000000      -1.36500001     -0.606999993       21.5383034      -1.57066798    
   0.00000000      -1.87709999     -0.606999993       21.5383034      -1.57066798    
 -0.366203994      -1.84103203     -0.606999993       26.3439426      -1.56996906    
 -0.507171988      -2.54972792     -0.517000020       26.3439426      -1.56996906    
 -0.994853973      -2.40179110     -0.517000020       26.3439426      -1.56996906    
 -0.718334973      -1.73421395     -0.606999993       26.3439426      -1.56996906    
 -0.718334973      -1.73421395     -0.606999993       64.7068634      -1.57162082    
 -0.522363007      -1.26109600     -0.606999993       64.7068634      -1.57162082    
 -0.266297996      -1.33877206     -0.606999993       64.7068634      -1.57162082    
 -0.366203994      -1.84103203     -0.606999993       64.7068634      -1.57162082    
 -0.718334973      -1.73421395     -0.606999993       43.1299248      -1.56994879    
 -0.994853973      -2.40179110     -0.517000020       43.1299248      -1.56994879    
  -1.44430494      -2.16155505     -0.517000020       43.1299248      -1.56994879    
  -1.04286098      -1.56075203     -0.606999993       43.1299248      -1.56994879    
  -1.04286098      -1.56075203     -0.606999993       105.183884      -1.57167816    
 -0.758352995      -1.13495600     -0.606999993       105.183884      -1.57167816    
 -0.522363007      -1.26109600     -0.606999993       105.183884      -1.57167816    
 -0.718334973      -1.73421395     -0.606999993       105.183884      -1.57167816    
  -1.04286098      -1.56075203     -0.606999993       58.3493385      -1.57006979    
  -1.44430494      -2.16155505     -0.517000020       58.3493385      -1.57006979    
  -1.83825099      -1.83825099     -0.517000020       58.3493385      -1.57006979    
  -1.32730997      -1.32730997     -0.606999993       58.3493385      -1.57006979    
  -1.32730997      -1.32730997     -0.606999993       141.770401      -1.57180524    
 -0.965201020     -0.965201020     -0.606999993       141.770401      -1.57180524    
 -0.758352995      -1.13495600     -0.606999993       141.770401      -1.57180524    
  -1.04286098      -1.56075203     -0.606999993       141.770401      -1.57180524    
  -1.32730997      -1.32730997     -0.606999993       71.5619049      -1.57021737    
  -1.83825099      -1.83825099     -0.517000020       71.5619049      -1.57021737    
  -2.16155505      -1.44430494     -0.517000020       71.5619049      -1.57021737    
  -1.56075203      -1.04286098     -0.606999993       71.5619049      -1.57021737    
  -1.56075203      -1.04286098     -0.606999993       173.246567      -1.57189739    
  -1.13495600     -0.758352995     -0.606999993       173.246567      -1.57189739    
 -0.965201020     -0.965201020     -0.606999993       173.246567      -1.57189739    
  -1.32730997      -1.32730997     -0.606999993       173.246567      -1.57189739    
  -1.56075203      -1.04286098     -0.606999993       82.2532883      -1.57036340    
  -2.16155505      -1.44430494     -0.517000020       82.2532883      -1.57036340    
  -2.40179110     -0.994853973     -0.517000020       82.2532883      -1.57036340    
  -1.73421395     -0.718334973     -0.606999993       82.2532883      -1.57036340    
  -1.73421395     -0.718334973     -0.606999993       198.427597      -1.57196748    
  -1.26109600     -0.522363007     -0.606999993       198.427597      -1.57196748    
  -1.13495600     -0.758352995     -0.606999993       198.427597      -1.57196748    
  -1.56075203      -1.04286098     -0.606999993       198.427597      -1.57196748    
  -1.73421395     -0.718334973     -0.606999993       89.9033279      -1.57045209    
  -2.40179110     -0.994853973     -0.517000020       89.9033279      -1.57045209    
  -2.54972792     -0.507171988     -0.517000020       89.9033279      -1.57045209    
  -1.84103203     -0.366203994     -0.606999993       89.9033279      -1.57045209    
  -1.84103203     -0.366203994     -0.606999993       216.447296      -1.57200718    
  -1.33877206     -0.266297996     -0.606999993       216.447296      -1.57200718    
  -1.26109600     -0.522363007     -0.606999993       216.447296      -1.57200718    
  -1.73421395     -0.718334973     -0.606999993       216.447296      -1.57200718    
  -1.84103203     -0.366203994     -0.606999993       94.1774063      -1.57048357    
  -2.54972792     -0.507171988     -0.517000020       94.1774063      -1.57048357    
  -2.59967995       0.00000000     -0.517000020       94.1774063      -1.57048357    
  -1.87709999       0.00000000     -0.606999993       94.1774063      -1.57048357    
  -1.87709999       0.00000000     -0.606999993       226.497040      -1.57203078    
  -1.36500001       0.00000000     -0.606999993       226.497040      -1.57203078    
  -1.33877206     -0.266297996     -0.606999993       226.497040      -1.57203078    
  -1.84103203     -0.366203994     -0.606999993       226.497040      -1.57203078    
  -1.87709999       0.00000000     -0.606999993       94.9257812      -1.57054484    
  -2.59967995       0.00000000     -0.517000020       94.9257812      -1.57054484    
  -2.54972792      0.507171988     -0.517000020       94.9257812      -1.57054484    
  -1.84103203      0.366203994     -0.606999993       94.9257812      -1.57054484    
  -1.84103203      0.366203994     -0.606999993       227.883789      -1.57205427    
  -1.33877206      0.266297996     -0.606999993       227.883789      -1.57205427    
  -1.36500001       0.00000000     -0.606999993       227.883789      -1.57205427    
  -1.87709999       0.00000000     -0.606999993       227.883789      -1.57205427    
  -1.84103203      0.366203994     -0.606999993       91.9780273      -1.57061279    
  -2.54972792      0.507171988     -0.517000020       91.9780273      -1.57061279    
  -2.40179110      0.994853973     -0.517000020       91.9780273      -1.57061279    
  -1.73421395      0.718334973     -0.606999993       91.9780273      -1.57061279    
  -1.73421395      0.718334973     -0.606999993       220.194351      -1.57206917    
  -1.26109600      0.522363007     -0.606999993       220.194351      -1.57206917    
  -1.33877206      0.266297996     -0.606999993       220.194351      -1.57206917    
  -1.84103203      0.366203994     -0.606999993       220.194351      -1.57206917    
  -1.73421395      0.718334973     -0.606999993       85.2010269      -1.57068574    
  -2.40179110      0.994853973     -0.517000020       85.2010269      -1.57068574    
  -2.16155505       1.44430494     -0.517000020       85.2010269      -1.57068574    
  -1.56075203       1.04286098     -0.606999993       85.2010269      -1.57068574    
  -1.56075203       1.04286098     -0.606999993       203.439484      -1.57207918    
  -1.13495600      0.758352995     -0.606999993       203.439484      -1.57207918    
  -1.26109600      0.522363007     -0.606999993       203.439484      -1.57207918    
  -1.73421395      0.718334973     -0.606999993       203.439484      -1.57207918    
  -1.56075203       1.04286098     -0.606999993       74.7294464      -1.57065153    
  -2.16155505       1.44430494     -0.517000020       74.7294464      -1.57065153    
  -1.83825099       1.83825099     -0.517000020       74.7294464      -1.57065153    
  -1.32730997       1.32730997     -0.606999993       74.7294464      -1.57065153    
  -1.32730997       1.32730997     -0.606999993       178.231506      -1.57205963    
 -0.965201020      0.965201020     -0.606999993       178.231506      -1.57205963    
  -1.13495600      0.758352995     -0.606999993       178.231506      -1.57205963    
  -1.56075203       1.04286098     -0.606999993       178.231506      -1.57205963    
  -1.32730997       1.32730997     -0.606999993       61.1534157      -1.57057309    
  -1.83825099       1.83825099     -0.517000020       61.1534157      -1.57057309    
  -1.44430494       2.16155505     -0.517000020       61.1534157      -1.57057309    
  -1.04286098       1.56075203     -0.606999993       61.1534157      -1.57057309    
  -1.04286098       1.56075203     -0.606999993       145.791000      -1.57203233    
 -0.758352995       1.13495600     -0.606999993       145.791000      -1.57203233    
 -0.965201020      0.965201020     -0.606999993       145.791000      -1.57203233    
  -1.32730997       1.32730997     -0.606999993       145.791000      -1.57203233    
  -1.04286098       1.56075203     -0.606999993       45.2908592      -1.57049668    
  -1.44430494       2.16155505     -0.517000020       45.2908592      -1.57049668    
 -0.994853973       2.40179110     -0.517000020       45.2908592      -1.57049668    
 -0.718334973       1.73421395     -0.606999993       45.2908592      -1.57049668    
 -0.718334973       1.73421395     -0.606999993       107.811531      -1.57198799    
 -0.522363007       1.26109600     -0.606999993       107.811531      -1.57198799    
 -0.758352995       1.13495600     -0.606999993       107.811531      -1.57198799    
  -1.04286098       1.56075203     -0.606999993       107.811531      -1.57198799    
 -0.718334973       1.73421395     -0.606999993       27.9487152      -1.57052422    
 -0.994853973       2.40179110     -0.517000020       27.9487152      -1.57052422    
 -0.507171988       2.54972792     -0.517000020       27.9487152      -1.57052422    
 -0.366203994       1.84103203     -0.606999993       27.9487152      -1.57052422    
 -0.366203994       1.84103203     -0.606999993       66.1256180      -1.57193995    
 -0.266297996       1.33877206     -0.606999993       66.1256180      -1.57193995    
 -0.522363007       1.26109600     -0.606999993       66.1256180      -1.57193995    
 -0.718334973       1.73421395     -0.606999993       66.1256180      -1.57193995    
 -0.366203994       1.84103203     -0.606999993       9.82752609      -1.57087898    
 -0.507171988       2.54972792     -0.517000020       9.82752609      -1.57087898    
   0.00000000       2.59967995     -0.517000020       9.82752609      -1.57087898    
   0.00000000       1.87709999     -0.606999993       9.82752609      -1.57087898    
   0.00000000       1.87709999     -0.606999993       22.5759411      -1.57196987    
   0.00000000       1.36500001     -0.606999993       22.5759411      -1.57196987    
 -0.266297996       1.33877206     -0.606999993       22.5759411      -1.57196987    
 -0.366203994       1.84103203     -0.606999993       22.5759411      -1.57196987    
   0.00000000       1.87709999     -0.606999993       8.33408451       1.57210696    
   0.00000000       2.59967995     -0.517000020       8.33408451       1.57210696    
  0.507171988       2.54972792     -0.517000020       8.33408451       1.57210696    
  0.366203994       1.84103203     -0.606999993       8.33408451       1.57210696    
  0.366203994       1.84103203     -0.606999993       21.1136532       1.56929386    
  0.266297996       1.33877206     -0.606999993       21.1136532       1.56929386    
   0.00000000       1.36500001     -0.606999993       21.1136532       1.56929386    
   0.00000000       1.87709999     -0.606999993       21.1136532       1.56929386    
  0.366203994       1.84103203     -0.606999993       25.9114513       1.57153523    
  0.507171988       2.54972792     -0.517000020       25.9114513       1.57153523    
  0.994853973       2.40179110     -0.517000020       25.9114513       1.57153523    
  0.718334973       1.73421395     -0.606999993       25.9114513       1.57153523    
  0.718334973       1.73421395     -0.606999993       63.4768295       1.56932211    
  0.522363007       1.26109600     -0.606999993       63.4768295       1.56932211    
  0.266297996       1.33877206     -0.606999993       63.4768295       1.56932211    
  0.366203994       1.84103203     -0.606999993       63.4768295       1.56932211    
  0.718334973       1.73421395     -0.606999993       42.4129906       1.57152581    
  0.994853973       2.40179110     -0.517000020       42.4129906       1.57152581    
   1.44430494       2.16155505     -0.517000020       42.4129906       1.57152581    
   1.04286098       1.56075203     -0.606999993       42.4129906       1.57152581    
   1.04286098       1.56075203     -0.606999993       103.240646       1.56951034    
  0.758352995       1.13495600     -0.606999993       103.240646       1.56951034    
  0.522363007       1.26109600     -0.606999993       103.240646       1.56951034    
  0.718334973       1.73421395     -0.606999993       103.240646       1.56951034    
   1.04286098       1.56075203     -0.606999993       57.4415588       1.57152438    
   1.44430494       2.16155505     -0.517000020       57.4415588       1.57152438    
   1.83825099       1.83825099     -0.517000020       57.4415588       1.57152438    
   1.32730997       1.32730997     -0.606999993       57.4415588       1.57152438    
   1.32730997       1.32730997     -0.606999993       139.304184       1.56951845    
  0.965201020      0.965201020     -0.606999993       139.304184       1.56951845    
  0.758352995       1.13495600     -0.606999993       139.304184       1.56951845    
   1.04286098       1.56075203     -0.606999993       139.304184       1.56951845    
   1.32730997       1.32730997     -0.606999993       70.5653763       1.57150650    
   1.83825099       1.83825099     -0.517000020       70.5653763       1.57150650    
   2.16155505       1.44430494     -0.517000020       70.5653763       1.57150650    
   1.56075203       1.04286098     -0.606999993       70.5653763       1.57150650    
   1.56075203       1.04286098     -0.606999993       170.589417       1.56953144    
   1.13495600      0.758352995     -0.606999993       170.589417       1.56953144    
  0.965201020      0.965201020     -0.606999993       170.589417       1.56953144    
   1.32730997       1.32730997     -0.606999993       170.589417       1.56953144    
   1.56075203       1.04286098     -0.606999993       81.2426758       1.57150292    
   2.16155505       1.44430494     -0.517000020       81.2426758       1.57150292    
   2.40179110      0.994853973     -0.517000020       81.2426758       1.57150292    
   1.73421395      0.718334973     -0.606999993       81.2426758       1.57150292    
   1.73421395      0.718334973     -0.606999993       195.981308       1.56953895    
   1.26109600      0.522363007     -0.606999993       195.981308       1.56953895    
   1.13495600      0.758352995     -0.606999993       195.981308       1.56953895    
   1.56075203       1.04286098     -0.606999993       195.981308       1.56953895    
   1.73421395      0.718334973     -0.606999993       88.9663315       1.57154346    
   2.40179110      0.994853973     -0.517000020       88.9663315       1.57154346    
   2.54972792      0.507171988     -0.517000020       88.9663315       1.57154346    
   1.84103203      0.366203994     -0.606999993       88.9663315       1.57154346    
   1.84103203      0.366203994     -0.606999993       214.270782       1.56956470    
   1.33877206      0.266297996     -0.606999993       214.270782       1.56956470    
   1.26109600      0.522363007     -0.606999993       214.270782       1.56956470    
   1.73421395      0.718334973     -0.606999993       214.270782       1.56956470    
   1.84103203      0.366203994     -0.606999993       93.4432068       1.57161450    
   2.54972792      0.507171988     -0.517000020       93.4432068       1.57161450    
   2.59967995       0.00000000     -0.517000020       93.4432068       1.57161450    
   1.87709999       0.00000000     -0.606999993       93.4432068       1.57161450    
   1.87709999       0.00000000     -0.606999993       224.677078       1.56958592    
   1.36500001       0.00000000     -0.606999993       224.677078       1.56958592    
   1.33877206      0.266297996     -0.606999993       224.677078       1.56958592    
   1.84103203      0.366203994     -0.606999993       224.677078       1.56958592    
   1.87709999       0.00000000     -0.606999993       94.4848862       1.57163703    
   2.59967995       0.00000000     -0.517000020       94.4848862       1.57163703    
   2.54972792     -0.507171988     -0.517000020       94.4848862       1.57163703    
   1.84103203     -0.366203994     -0.606999993       94.4848862       1.57163703    
   1.84103203     -0.366203994     -0.606999993       226.614975       1.56959951    
   1.33877206     -0.266297996     -0.606999993       226.614975       1.56959951    
   1.36500001       0.00000000     -0.606999993       226.614975       1.56959951    
   1.87709999       0.00000000     -0.606999993       226.614975       1.56959951    
   1.84103203     -0.366203994     -0.606999993       91.8560181       1.57163751    
   2.54972792     -0.507171988     -0.517000020       91.8560181       1.57163751    
   2.40179110     -0.994853973     -0.517000020       91.8560181       1.57163751    
   1.73421395     -0.718334973     -0.606999993       91.8560181       1.57163751    
   1.73421395     -0.718334973     -0.606999993       219.630920       1.56960952    
   1.26109600     -0.522363007     -0.606999993       219.630920       1.56960952    
   1.33877206     -0.266297996     -0.606999993       219.630920       1.56960952    
   1.84103203     -0.366203994     -0.606999993       219.630920       1.56960952    
   1.73421395     -0.718334973     -0.606999993       85.3651428       1.57165468    
   2.40179110     -0.994853973     -0.517000020       85.3651428       1.57165468    
   2.16155505      -1.44430494     -0.517000020       85.3651428       1.57165468    
   1.56075203      -1.04286098     -0.606999993       85.3651428       1.57165468    
   1.56075203      -1.04286098     -0.606999993       203.627502       1.56961548    
   1.13495600     -0.758352995     -0.606999993       203.627502       1.56961548    
   1.26109600     -0.522363007     -0.606999993       203.627502       1.56961548    