 VARIABLES="X" "Y" "Z" "abs(p) (Pa)" "angle(p) (rad)"
ZONE N=   2709,E =    2358, F=FEPOINT, ET=QUADRILATERAL
   0.00000000      -5.48999977     -0.157000005       155.616669      -1.57097960    
   0.00000000      -4.76741982     -0.246999994       155.616669      -1.57097960    
  0.930077016      -4.67581606     -0.246999994       155.616669      -1.57097960    
   1.07104599      -5.38451099     -0.157000005       155.616669      -1.57097960    
  -1.07104599      -5.38451099     -0.157000005       162.963806       1.57368803    
 -0.930077016      -4.67581606     -0.246999994       162.963806       1.57368803    
   0.00000000      -4.76741982     -0.246999994       162.963806       1.57368803    
   0.00000000      -5.48999977     -0.157000005       162.963806       1.57368803    
  -2.10093188      -5.07209921     -0.157000005       478.504730       1.57268476    
  -1.82441294      -4.40452194     -0.246999994       478.504730       1.57268476    
 -0.930077016      -4.67581606     -0.246999994       478.504730       1.57268476    
  -1.07104599      -5.38451099     -0.157000005       478.504730       1.57268476    
  -3.05008101      -4.56476784     -0.157000005       768.193115       1.57250285    
  -2.64863706      -3.96396494     -0.246999994       768.193115       1.57250285    
  -1.82441294      -4.40452194     -0.246999994       768.193115       1.57250285    
  -2.10093188      -5.07209921     -0.157000005       768.193115       1.57250285    
  -3.88201594      -3.88201594     -0.157000005       1033.46057       1.57241809    
  -3.37107491      -3.37107491     -0.246999994       1033.46057       1.57241809    
  -2.64863706      -3.96396494     -0.246999994       1033.46057       1.57241809    
  -3.05008101      -4.56476784     -0.157000005       1033.46057       1.57241809    
  -4.56476784      -3.05008101     -0.157000005       1269.36316       1.57235956    
  -3.96396494      -2.64863706     -0.246999994       1269.36316       1.57235956    
  -3.37107491      -3.37107491     -0.246999994       1269.36316       1.57235956    
  -3.88201594      -3.88201594     -0.157000005       1269.36316       1.57235956    
  -5.07209921      -2.10093188     -0.157000005       1435.21899       1.57235122    
  -4.40452194      -1.82441294     -0.246999994       1435.21899       1.57235122    
  -3.96396494      -2.64863706     -0.246999994       1435.21899       1.57235122    
  -4.56476784      -3.05008101     -0.157000005       1435.21899       1.57235122    
  -5.38451099      -1.07104599     -0.157000005       1555.81299       1.57233894    
  -4.67581606     -0.930077016     -0.246999994       1555.81299       1.57233894    
  -4.40452194      -1.82441294     -0.246999994       1555.81299       1.57233894    
  -5.07209921      -2.10093188     -0.157000005       1555.81299       1.57233894    
  -5.48999977       0.00000000     -0.157000005       1630.78271       1.57231832    
  -4.76741982       0.00000000     -0.246999994       1630.78271       1.57231832    
  -4.67581606     -0.930077016     -0.246999994       1630.78271       1.57231832    
  -5.38451099      -1.07104599     -0.157000005       1630.78271       1.57231832    
  -5.38451099       1.07104599     -0.157000005       1632.56055       1.57231545    
  -4.67581606      0.930077016     -0.246999994       1632.56055       1.57231545    
  -4.76741982       0.00000000     -0.246999994       1632.56055       1.57231545    
  -5.48999977       0.00000000     -0.157000005       1632.56055       1.57231545    
  -5.07209921       2.10093188     -0.157000005       1569.57471       1.57232118    
  -4.40452194       1.82441294     -0.246999994       1569.57471       1.57232118    
  -4.67581606      0.930077016     -0.246999994       1569.57471       1.57232118    
  -5.38451099       1.07104599     -0.157000005       1569.57471       1.57232118    
  -4.56476784       3.05008101     -0.157000005       1444.49585       1.57233536    
  -3.96396494       2.64863706     -0.246999994       1444.49585       1.57233536    
  -4.40452194       1.82441294     -0.246999994       1444.49585       1.57233536    
  -5.07209921       2.10093188     -0.157000005       1444.49585       1.57233536    
  -3.88201594       3.88201594     -0.157000005       1255.90710       1.57237196    
  -3.37107491       3.37107491     -0.246999994       1255.90710       1.57237196    
  -3.96396494       2.64863706     -0.246999994       1255.90710       1.57237196    
  -4.56476784       3.05008101     -0.157000005       1255.90710       1.57237196    
  -3.05008101       4.56476784     -0.157000005       1035.92554       1.57240272    
  -2.64863706       3.96396494     -0.246999994       1035.92554       1.57240272    
  -3.37107491       3.37107491     -0.246999994       1035.92554       1.57240272    
  -3.88201594       3.88201594     -0.157000005       1035.92554       1.57240272    
  -2.10093188       5.07209921     -0.157000005       764.750000       1.57249427    
  -1.82441294       4.40452194     -0.246999994       764.750000       1.57249427    
  -2.64863706       3.96396494     -0.246999994       764.750000       1.57249427    
  -3.05008101       4.56476784     -0.157000005       764.750000       1.57249427    
  -1.07104599       5.38451099     -0.157000005       472.941620       1.57267761    
 -0.930077016       4.67581606     -0.246999994       472.941620       1.57267761    
  -1.82441294       4.40452194     -0.246999994       472.941620       1.57267761    
  -2.10093188       5.07209921     -0.157000005       472.941620       1.57267761    
   0.00000000       5.48999977     -0.157000005       157.596725       1.57369411    
   0.00000000       4.76741982     -0.246999994       157.596725       1.57369411    
 -0.930077016       4.67581606     -0.246999994       157.596725       1.57369411    
  -1.07104599       5.38451099     -0.157000005       157.596725       1.57369411    
   1.07104599       5.38451099     -0.157000005       162.937149      -1.57088494    
  0.930077016       4.67581606     -0.246999994       162.937149      -1.57088494    
   0.00000000       4.76741982     -0.246999994       162.937149      -1.57088494    
   0.00000000       5.48999977     -0.157000005       162.937149      -1.57088494    
   2.10093188       5.07209921     -0.157000005       473.655518      -1.56991172    
   1.82441294       4.40452194     -0.246999994       473.655518      -1.56991172    
  0.930077016       4.67581606     -0.246999994       473.655518      -1.56991172    
   1.07104599       5.38451099     -0.157000005       473.655518      -1.56991172    
   3.05008101       4.56476784     -0.157000005       768.278625      -1.56972170    
   2.64863706       3.96396494     -0.246999994       768.278625      -1.56972170    
   1.82441294       4.40452194     -0.246999994       768.278625      -1.56972170    
   2.10093188       5.07209921     -0.157000005       768.278625      -1.56972170    
   3.88201594       3.88201594     -0.157000005       1042.01147      -1.56965458    
   3.37107491       3.37107491     -0.246999994       1042.01147      -1.56965458    
   2.64863706       3.96396494     -0.246999994       1042.01147      -1.56965458    
   3.05008101       4.56476784     -0.157000005       1042.01147      -1.56965458    
   4.56476784       3.05008101     -0.157000005       1267.59143      -1.56961226    
   3.96396494       2.64863706     -0.246999994       1267.59143      -1.56961226    
   3.37107491       3.37107491     -0.246999994       1267.59143      -1.56961226    
   3.88201594       3.88201594     -0.157000005       1267.59143      -1.56961226    
   5.07209921       2.10093188     -0.157000005       1447.33716      -1.56959081    
   4.40452194       1.82441294     -0.246999994       1447.33716      -1.56959081    
   3.96396494       2.64863706     -0.246999994       1447.33716      -1.56959081    
   4.56476784       3.05008101     -0.157000005       1447.33716      -1.56959081    
   5.38451099       1.07104599     -0.157000005       1554.75952      -1.56956410    
   4.67581606      0.930077016     -0.246999994       1554.75952      -1.56956410    
   4.40452194       1.82441294     -0.246999994       1554.75952      -1.56956410    
   5.07209921       2.10093188     -0.157000005       1554.75952      -1.56956410    
   5.48999977       0.00000000     -0.157000005       1612.70508      -1.56955576    
   4.76741982       0.00000000     -0.246999994       1612.70508      -1.56955576    
   4.67581606      0.930077016     -0.246999994       1612.70508      -1.56955576    
   5.38451099       1.07104599     -0.157000005       1612.70508      -1.56955576    
   5.38451099      -1.07104599     -0.157000005       1611.16821      -1.56955564    
   4.67581606     -0.930077016     -0.246999994       1611.16821      -1.56955564    
   4.76741982       0.00000000     -0.246999994       1611.16821      -1.56955564    
   5.48999977       0.00000000     -0.157000005       1611.16821      -1.56955564    
   5.07209921      -2.10093188     -0.157000005       1548.31897      -1.56956184    
   4.40452194      -1.82441294     -0.246999994       1548.31897      -1.56956184    
   4.67581606     -0.930077016     -0.246999994       1548.31897      -1.56956184    
   5.38451099      -1.07104599     -0.157000005       1548.31897      -1.56956184    
   4.56476784      -3.05008101     -0.157000005       1425.97852      -1.56957591    
   3.96396494      -2.64863706     -0.246999994       1425.97852      -1.56957591    
   4.40452194      -1.82441294     -0.246999994       1425.97852      -1.56957591    
   5.07209921      -2.10093188     -0.157000005       1425.97852      -1.56957591    
   3.88201594      -3.88201594     -0.157000005       1249.95129      -1.56960189    
   3.37107491      -3.37107491     -0.246999994       1249.95129      -1.56960189    
   3.96396494      -2.64863706     -0.246999994       1249.95129      -1.56960189    
   4.56476784      -3.05008101     -0.157000005       1249.95129      -1.56960189    
   3.05008101      -4.56476784     -0.157000005       1032.56055      -1.56965518    
   2.64863706      -3.96396494     -0.246999994       1032.56055      -1.56965518    
   3.37107491      -3.37107491     -0.246999994       1032.56055      -1.56965518    
   3.88201594      -3.88201594     -0.157000005       1032.56055      -1.56965518    
   2.10093188      -5.07209921     -0.157000005       761.791504      -1.56972957    
   1.82441294      -4.40452194     -0.246999994       761.791504      -1.56972957    
   2.64863706      -3.96396494     -0.246999994       761.791504      -1.56972957    
   3.05008101      -4.56476784     -0.157000005       761.791504      -1.56972957    
   1.07104599      -5.38451099     -0.157000005       467.424835      -1.56992948    
  0.930077016      -4.67581606     -0.246999994       467.424835      -1.56992948    
   1.82441294      -4.40452194     -0.246999994       467.424835      -1.56992948    
   2.10093188      -5.07209921     -0.157000005       467.424835      -1.56992948    
   0.00000000      -1.87709999     -0.606999993       83.8947296      -1.57294178    
   0.00000000      -1.36500001     -0.606999993       83.8947296      -1.57294178    
  0.266297996      -1.33877206     -0.606999993       83.8947296      -1.57294178    
  0.366203994      -1.84103203     -0.606999993       83.8947296      -1.57294178    
   0.00000000      -1.87709999     -0.606999993       129.293198       1.57341158    
   0.00000000      -2.59967995     -0.517000020       129.293198       1.57341158    
 -0.507171988      -2.54972792     -0.517000020       129.293198       1.57341158    
 -0.366203994      -1.84103203     -0.606999993       129.293198       1.57341158    
 -0.366203994      -1.84103203     -0.606999993       80.2426605       1.57438624    
 -0.266297996      -1.33877206     -0.606999993       80.2426605       1.57438624    
   0.00000000      -1.36500001     -0.606999993       80.2426605       1.57438624    
   0.00000000      -1.87709999     -0.606999993       80.2426605       1.57438624    
 -0.366203994      -1.84103203     -0.606999993       380.744446       1.57220006    
 -0.507171988      -2.54972792     -0.517000020       380.744446       1.57220006    
 -0.994853973      -2.40179110     -0.517000020       380.744446       1.57220006    
 -0.718334973      -1.73421395     -0.606999993       380.744446       1.57220006    
 -0.718334973      -1.73421395     -0.606999993       241.172867       1.57242465    
 -0.522363007      -1.26109600     -0.606999993       241.172867       1.57242465    
 -0.266297996      -1.33877206     -0.606999993       241.172867       1.57242465    
 -0.366203994      -1.84103203     -0.606999993       241.172867       1.57242465    
 -0.718334973      -1.73421395     -0.606999993       616.213867       1.57195234    
 -0.994853973      -2.40179110     -0.517000020       616.213867       1.57195234    
  -1.44430494      -2.16155505     -0.517000020       616.213867       1.57195234    
  -1.04286098      -1.56075203     -0.606999993       616.213867       1.57195234    
  -1.04286098      -1.56075203     -0.606999993       392.936584       1.57203710    
 -0.758352995      -1.13495600     -0.606999993       392.936584       1.57203710    
 -0.522363007      -1.26109600     -0.606999993       392.936584       1.57203710    
 -0.718334973      -1.73421395     -0.606999993       392.936584       1.57203710    
  -1.04286098      -1.56075203     -0.606999993       829.294434       1.57184398    
  -1.44430494      -2.16155505     -0.517000020       829.294434       1.57184398    
  -1.83825099      -1.83825099     -0.517000020       829.294434       1.57184398    
  -1.32730997      -1.32730997     -0.606999993       829.294434       1.57184398    
  -1.32730997      -1.32730997     -0.606999993       530.655518       1.57187152    
 -0.965201020     -0.965201020     -0.606999993       530.655518       1.57187152    
 -0.758352995      -1.13495600     -0.606999993       530.655518       1.57187152    
  -1.04286098      -1.56075203     -0.606999993       530.655518       1.57187152    
  -1.32730997      -1.32730997     -0.606999993       1013.67761       1.57178617    
  -1.83825099      -1.83825099     -0.517000020       1013.67761       1.57178617    
  -2.16155505      -1.44430494     -0.517000020       1013.67761       1.57178617    
  -1.56075203      -1.04286098     -0.606999993       1013.67761       1.57178617    
  -1.56075203      -1.04286098     -0.606999993       649.468567       1.57178426    
  -1.13495600     -0.758352995     -0.606999993       649.468567       1.57178426    
 -0.965201020     -0.965201020     -0.606999993       649.468567       1.57178426    
  -1.32730997      -1.32730997     -0.606999993       649.468567       1.57178426    
  -1.56075203      -1.04286098     -0.606999993       1160.04443       1.57175577    
  -2.16155505      -1.44430494     -0.517000020       1160.04443       1.57175577    
  -2.40179110     -0.994853973     -0.517000020       1160.04443       1.57175577    
  -1.73421395     -0.718334973     -0.606999993       1160.04443       1.57175577    
  -1.73421395     -0.718334973     -0.606999993       743.587097       1.57173669    
  -1.26109600     -0.522363007     -0.606999993       743.587097       1.57173669    
  -1.13495600     -0.758352995     -0.606999993       743.587097       1.57173669    
  -1.56075203      -1.04286098     -0.606999993       743.587097       1.57173669    
  -1.73421395     -0.718334973     -0.606999993       1259.35291       1.57174253    
  -2.40179110     -0.994853973     -0.517000020       1259.35291       1.57174253    
  -2.54972792     -0.507171988     -0.517000020       1259.35291       1.57174253    
  -1.84103203     -0.366203994     -0.606999993       1259.35291       1.57174253    
  -1.84103203     -0.366203994     -0.606999993       808.128784       1.57171309    
  -1.33877206     -0.266297996     -0.606999993       808.128784       1.57171309    
  -1.26109600     -0.522363007     -0.606999993       808.128784       1.57171309    
  -1.73421395     -0.718334973     -0.606999993       808.128784       1.57171309    
  -1.84103203     -0.366203994     -0.606999993       1308.54077       1.57173824    
  -2.54972792     -0.507171988     -0.517000020       1308.54077       1.57173824    
  -2.59967995       0.00000000     -0.517000020       1308.54077       1.57173824    
  -1.87709999       0.00000000     -0.606999993       1308.54077       1.57173824    
  -1.87709999       0.00000000     -0.606999993       840.826538       1.57170379    
  -1.36500001       0.00000000     -0.606999993       840.826538       1.57170379    
  -1.33877206     -0.266297996     -0.606999993       840.826538       1.57170379    
  -1.84103203     -0.366203994     -0.606999993       840.826538       1.57170379    
  -1.87709999       0.00000000     -0.606999993       1308.92725       1.57173789    
  -2.59967995       0.00000000     -0.517000020       1308.92725       1.57173789    
  -2.54972792      0.507171988     -0.517000020       1308.92725       1.57173789    
  -1.84103203      0.366203994     -0.606999993       1308.92725       1.57173789    
  -1.84103203      0.366203994     -0.606999993       841.554199       1.57170296    
  -1.33877206      0.266297996     -0.606999993       841.554199       1.57170296    
  -1.36500001       0.00000000     -0.606999993       841.554199       1.57170296    
  -1.87709999       0.00000000     -0.606999993       841.554199       1.57170296    
  -1.84103203      0.366203994     -0.606999993       1261.05579       1.57174051    
  -2.54972792      0.507171988     -0.517000020       1261.05579       1.57174051    
  -2.40179110      0.994853973     -0.517000020       1261.05579       1.57174051    
  -1.73421395      0.718334973     -0.606999993       1261.05579       1.57174051    
  -1.73421395      0.718334973     -0.606999993       810.488037       1.57171011    
  -1.26109600      0.522363007     -0.606999993       810.488037       1.57171011    
  -1.33877206      0.266297996     -0.606999993       810.488037       1.57171011    
  -1.84103203      0.366203994     -0.606999993       810.488037       1.57171011    
  -1.73421395      0.718334973     -0.606999993       1163.63391       1.57175100    
  -2.40179110      0.994853973     -0.517000020       1163.63391       1.57175100    
  -2.16155505       1.44430494     -0.517000020       1163.63391       1.57175100    
  -1.56075203       1.04286098     -0.606999993       1163.63391       1.57175100    
  -1.56075203       1.04286098     -0.606999993       747.775024       1.57173038    
  -1.13495600      0.758352995     -0.606999993       747.775024       1.57173038    
  -1.26109600      0.522363007     -0.606999993       747.775024       1.57173038    
  -1.73421395      0.718334973     -0.606999993       747.775024       1.57173038    
  -1.56075203       1.04286098     -0.606999993       1018.39819       1.57177722    
  -2.16155505       1.44430494     -0.517000020       1018.39819       1.57177722    
  -1.83825099       1.83825099     -0.517000020       1018.39819       1.57177722    
  -1.32730997       1.32730997     -0.606999993       1018.39819       1.57177722    
  -1.32730997       1.32730997     -0.606999993       655.187195       1.57177246    
 -0.965201020      0.965201020     -0.606999993       655.187195       1.57177246    
  -1.13495600      0.758352995     -0.606999993       655.187195       1.57177246    
  -1.56075203       1.04286098     -0.606999993       655.187195       1.57177246    
  -1.32730997       1.32730997     -0.606999993       833.519836       1.57183075    
  -1.83825099       1.83825099     -0.517000020       833.519836       1.57183075    
  -1.44430494       2.16155505     -0.517000020       833.519836       1.57183075    
  -1.04286098       1.56075203     -0.606999993       833.519836       1.57183075    
  -1.04286098       1.56075203     -0.606999993       537.127808       1.57185364    
 -0.758352995       1.13495600     -0.606999993       537.127808       1.57185364    
 -0.965201020      0.965201020     -0.606999993       537.127808       1.57185364    
  -1.32730997       1.32730997     -0.606999993       537.127808       1.57185364    
  -1.04286098       1.56075203     -0.606999993       619.068726       1.57193458    
  -1.44430494       2.16155505     -0.517000020       619.068726       1.57193458    
 -0.994853973       2.40179110     -0.517000020       619.068726       1.57193458    
 -0.718334973       1.73421395     -0.606999993       619.068726       1.57193458    
 -0.718334973       1.73421395     -0.606999993       399.298035       1.57201076    
 -0.522363007       1.26109600     -0.606999993       399.298035       1.57201076    
 -0.758352995       1.13495600     -0.606999993       399.298035       1.57201076    
  -1.04286098       1.56075203     -0.606999993       399.298035       1.57201076    
 -0.718334973       1.73421395     -0.606999993       382.259460       1.57217491    
 -0.994853973       2.40179110     -0.517000020       382.259460       1.57217491    
 -0.507171988       2.54972792     -0.517000020       382.259460       1.57217491    
 -0.366203994       1.84103203     -0.606999993       382.259460       1.57217491    
 -0.366203994       1.84103203     -0.606999993       246.829193       1.57237947    
 -0.266297996       1.33877206     -0.606999993       246.829193       1.57237947    
 -0.522363007       1.26109600     -0.606999993       246.829193       1.57237947    
 -0.718334973       1.73421395     -0.606999993       246.829193       1.57237947    
 -0.366203994       1.84103203     -0.606999993       129.701431       1.57335281    
 -0.507171988       2.54972792     -0.517000020       129.701431       1.57335281    
   0.00000000       2.59967995     -0.517000020       129.701431       1.57335281    
   0.00000000       1.87709999     -0.606999993       129.701431       1.57335281    
   0.00000000       1.87709999     -0.606999993       84.8404236       1.57418621    
   0.00000000       1.36500001     -0.606999993       84.8404236       1.57418621    
 -0.266297996       1.33877206     -0.606999993       84.8404236       1.57418621    
 -0.366203994       1.84103203     -0.606999993       84.8404236       1.57418621    
   0.00000000       1.87709999     -0.606999993       128.762833      -1.57180166    
   0.00000000       2.59967995     -0.517000020       128.762833      -1.57180166    
  0.507171988       2.54972792     -0.517000020       128.762833      -1.57180166    
  0.366203994       1.84103203     -0.606999993       128.762833      -1.57180166    
  0.366203994       1.84103203     -0.606999993       80.5623245      -1.57304537    
  0.266297996       1.33877206     -0.606999993       80.5623245      -1.57304537    
   0.00000000       1.36500001     -0.606999993       80.5623245      -1.57304537    
   0.00000000       1.87709999     -0.606999993       80.5623245      -1.57304537    
  0.366203994       1.84103203     -0.606999993       381.248474      -1.57062376    
  0.507171988       2.54972792     -0.517000020       381.248474      -1.57062376    
  0.994853973       2.40179110     -0.517000020       381.248474      -1.57062376    
  0.718334973       1.73421395     -0.606999993       381.248474      -1.57062376    
  0.718334973       1.73421395     -0.606999993       242.541702      -1.57111824    
  0.522363007       1.26109600     -0.606999993       242.541702      -1.57111824    
  0.266297996       1.33877206     -0.606999993       242.541702      -1.57111824    
  0.366203994       1.84103203     -0.606999993       242.541702      -1.57111824    
  0.718334973       1.73421395     -0.606999993       617.915649      -1.57040322    
  0.994853973       2.40179110     -0.517000020       617.915649      -1.57040322    
   1.44430494       2.16155505     -0.517000020       617.915649      -1.57040322    
   1.04286098       1.56075203     -0.606999993       617.915649      -1.57040322    
   1.04286098       1.56075203     -0.606999993       395.032288      -1.57075644    
  0.758352995       1.13495600     -0.606999993       395.032288      -1.57075644    
  0.522363007       1.26109600     -0.606999993       395.032288      -1.57075644    
  0.718334973       1.73421395     -0.606999993       395.032288      -1.57075644    
   1.04286098       1.56075203     -0.606999993       832.120422      -1.57031584    
   1.44430494       2.16155505     -0.517000020       832.120422      -1.57031584    
   1.83825099       1.83825099     -0.517000020       832.120422      -1.57031584    
   1.32730997       1.32730997     -0.606999993       832.120422      -1.57031584    
   1.32730997       1.32730997     -0.606999993       532.871277      -1.57061088    
  0.965201020      0.965201020     -0.606999993       532.871277      -1.57061088    
  0.758352995       1.13495600     -0.606999993       532.871277      -1.57061088    
   1.04286098       1.56075203     -0.606999993       532.871277      -1.57061088    
   1.32730997       1.32730997     -0.606999993       1016.65649      -1.57026958    
   1.83825099       1.83825099     -0.517000020       1016.65649      -1.57026958    
   2.16155505       1.44430494     -0.517000020       1016.65649      -1.57026958    
   1.56075203       1.04286098     -0.606999993       1016.65649      -1.57026958    
   1.56075203       1.04286098     -0.606999993       651.013306      -1.57053494    
   1.13495600      0.758352995     -0.606999993       651.013306      -1.57053494    
  0.965201020      0.965201020     -0.606999993       651.013306      -1.57053494    
   1.32730997       1.32730997     -0.606999993       651.013306      -1.57053494    
   1.56075203       1.04286098     -0.606999993       1161.51758      -1.57024002    
   2.16155505       1.44430494     -0.517000020       1161.51758      -1.57024002    
   2.40179110      0.994853973     -0.517000020       1161.51758      -1.57024002    
   1.73421395      0.718334973     -0.606999993       1161.51758      -1.57024002    
   1.73421395      0.718334973     -0.606999993       743.967773      -1.57048857    
   1.26109600      0.522363007     -0.606999993       743.967773      -1.57048857    
   1.13495600      0.758352995     -0.606999993       743.967773      -1.57048857    
   1.56075203       1.04286098     -0.606999993       743.967773      -1.57048857    
   1.73421395      0.718334973     -0.606999993       1258.56921      -1.57021987    
   2.40179110      0.994853973     -0.517000020       1258.56921      -1.57021987    
   2.54972792      0.507171988     -0.517000020       1258.56921      -1.57021987    
   1.84103203      0.366203994     -0.606999993       1258.56921      -1.57021987    
   1.84103203      0.366203994     -0.606999993       807.133545      -1.57046020    
   1.33877206      0.266297996     -0.606999993       807.133545      -1.57046020    
   1.26109600      0.522363007     -0.606999993       807.133545      -1.57046020    
   1.73421395      0.718334973     -0.606999993       807.133545      -1.57046020    
   1.84103203      0.366203994     -0.606999993       1306.18860      -1.57020998    
   2.54972792      0.507171988     -0.517000020       1306.18860      -1.57020998    
   2.59967995       0.00000000     -0.517000020       1306.18860      -1.57020998    
   1.87709999       0.00000000     -0.606999993       1306.18860      -1.57020998    
   1.87709999       0.00000000     -0.606999993       838.713318      -1.57044625    
   1.36500001       0.00000000     -0.606999993       838.713318      -1.57044625    
   1.33877206      0.266297996     -0.606999993       838.713318      -1.57044625    
   1.84103203      0.366203994     -0.606999993       838.713318      -1.57044625    
   1.87709999       0.00000000     -0.606999993       1305.68640      -1.57021034    
   2.59967995       0.00000000     -0.517000020       1305.68640      -1.57021034    
   2.54972792     -0.507171988     -0.517000020       1305.68640      -1.57021034    
   1.84103203     -0.366203994     -0.606999993       1305.68640      -1.57021034    
   1.84103203     -0.366203994     -0.606999993       838.630737      -1.57044613    
   1.33877206     -0.266297996     -0.606999993       838.630737      -1.57044613    
   1.36500001       0.00000000     -0.606999993       838.630737      -1.57044613    
   1.87709999       0.00000000     -0.606999993       838.630737      -1.57044613    
   1.84103203     -0.366203994     -0.606999993       1256.56482      -1.57022095    
   2.54972792     -0.507171988     -0.517000020       1256.56482      -1.57022095    
   2.40179110     -0.994853973     -0.517000020       1256.56482      -1.57022095    
   1.73421395     -0.718334973     -0.606999993       1256.56482      -1.57022095    
   1.73421395     -0.718334973     -0.606999993       806.685669      -1.57045984    
   1.26109600     -0.522363007     -0.606999993       806.685669      -1.57045984    
   1.33877206     -0.266297996     -0.606999993       806.685669      -1.57045984    
   1.84103203     -0.366203994     -0.606999993       806.685669      -1.57045984    
   1.73421395     -0.718334973     -0.606999993       1157.47754      -1.57024038    
   2.40179110     -0.994853973     -0.517000020       1157.47754      -1.57024038    
   2.16155505      -1.44430494     -0.517000020       1157.47754      -1.57024038    
   1.56075203      -1.04286098     -0.606999993       1157.47754      -1.57024038    
   1.56075203      -1.04286098     -0.606999993       742.988892      -1.57048690    
   1.13495600     -0.758352995     -0.606999993       742.988892      -1.57048690    
   1.26109600     -0.522363007     -0.606999993       742.988892      -1.57048690    