 VARIABLES="X" "Y" "Z" "abs(p) (Pa)" "angle(p) (rad)"
ZONE N=   2709,E =    2358, F=FEPOINT, ET=QUADRILATERAL
   0.00000000      -5.48999977     -0.157000005       4085.22998      -1.34254706    
   0.00000000      -4.76741982     -0.246999994       4085.22998      -1.34254706    
  0.930077016      -4.67581606     -0.246999994       4085.22998      -1.34254706    
   1.07104599      -5.38451099     -0.157000005       4085.22998      -1.34254706    
  -1.07104599      -5.38451099     -0.157000005       4089.12329      -1.34282172    
 -0.930077016      -4.67581606     -0.246999994       4089.12329      -1.34282172    
   0.00000000      -4.76741982     -0.246999994       4089.12329      -1.34282172    
   0.00000000      -5.48999977     -0.157000005       4089.12329      -1.34282172    
  -2.10093188      -5.07209921     -0.157000005       3980.80542      -1.34777749    
  -1.82441294      -4.40452194     -0.246999994       3980.80542      -1.34777749    
 -0.930077016      -4.67581606     -0.246999994       3980.80542      -1.34777749    
  -1.07104599      -5.38451099     -0.157000005       3980.80542      -1.34777749    
  -3.05008101      -4.56476784     -0.157000005       3630.22095      -1.34261215    
  -2.64863706      -3.96396494     -0.246999994       3630.22095      -1.34261215    
  -1.82441294      -4.40452194     -0.246999994       3630.22095      -1.34261215    
  -2.10093188      -5.07209921     -0.157000005       3630.22095      -1.34261215    
  -3.88201594      -3.88201594     -0.157000005       3185.48682      -1.34236336    
  -3.37107491      -3.37107491     -0.246999994       3185.48682      -1.34236336    
  -2.64863706      -3.96396494     -0.246999994       3185.48682      -1.34236336    
  -3.05008101      -4.56476784     -0.157000005       3185.48682      -1.34236336    
  -4.56476784      -3.05008101     -0.157000005       2659.38501      -1.34910107    
  -3.96396494      -2.64863706     -0.246999994       2659.38501      -1.34910107    
  -3.37107491      -3.37107491     -0.246999994       2659.38501      -1.34910107    
  -3.88201594      -3.88201594     -0.157000005       2659.38501      -1.34910107    
  -5.07209921      -2.10093188     -0.157000005       1951.75623      -1.34333682    
  -4.40452194      -1.82441294     -0.246999994       1951.75623      -1.34333682    
  -3.96396494      -2.64863706     -0.246999994       1951.75623      -1.34333682    
  -4.56476784      -3.05008101     -0.157000005       1951.75623      -1.34333682    
  -5.38451099      -1.07104599     -0.157000005       1193.58960      -1.34031308    
  -4.67581606     -0.930077016     -0.246999994       1193.58960      -1.34031308    
  -4.40452194      -1.82441294     -0.246999994       1193.58960      -1.34031308    
  -5.07209921      -2.10093188     -0.157000005       1193.58960      -1.34031308    
  -5.48999977       0.00000000     -0.157000005       400.089691      -1.33873105    
  -4.76741982       0.00000000     -0.246999994       400.089691      -1.33873105    
  -4.67581606     -0.930077016     -0.246999994       400.089691      -1.33873105    
  -5.38451099      -1.07104599     -0.157000005       400.089691      -1.33873105    
  -5.38451099       1.07104599     -0.157000005       419.908844       1.78613496    
  -4.67581606      0.930077016     -0.246999994       419.908844       1.78613496    
  -4.76741982       0.00000000     -0.246999994       419.908844       1.78613496    
  -5.48999977       0.00000000     -0.157000005       419.908844       1.78613496    
  -5.07209921       2.10093188     -0.157000005       1224.06958       1.79107833    
  -4.40452194       1.82441294     -0.246999994       1224.06958       1.79107833    
  -4.67581606      0.930077016     -0.246999994       1224.06958       1.79107833    
  -5.38451099       1.07104599     -0.157000005       1224.06958       1.79107833    
  -4.56476784       3.05008101     -0.157000005       1977.39014       1.79253745    
  -3.96396494       2.64863706     -0.246999994       1977.39014       1.79253745    
  -4.40452194       1.82441294     -0.246999994       1977.39014       1.79253745    
  -5.07209921       2.10093188     -0.157000005       1977.39014       1.79253745    
  -3.88201594       3.88201594     -0.157000005       2623.52856       1.79791641    
  -3.37107491       3.37107491     -0.246999994       2623.52856       1.79791641    
  -3.96396494       2.64863706     -0.246999994       2623.52856       1.79791641    
  -4.56476784       3.05008101     -0.157000005       2623.52856       1.79791641    
  -3.05008101       4.56476784     -0.157000005       3226.66919       1.79310691    
  -2.64863706       3.96396494     -0.246999994       3226.66919       1.79310691    
  -3.37107491       3.37107491     -0.246999994       3226.66919       1.79310691    
  -3.88201594       3.88201594     -0.157000005       3226.66919       1.79310691    
  -2.10093188       5.07209921     -0.157000005       3636.65234       1.79772484    
  -1.82441294       4.40452194     -0.246999994       3636.65234       1.79772484    
  -2.64863706       3.96396494     -0.246999994       3636.65234       1.79772484    
  -3.05008101       4.56476784     -0.157000005       3636.65234       1.79772484    
  -1.07104599       5.38451099     -0.157000005       3984.95825       1.79318595    
 -0.930077016       4.67581606     -0.246999994       3984.95825       1.79318595    
  -1.82441294       4.40452194     -0.246999994       3984.95825       1.79318595    
  -2.10093188       5.07209921     -0.157000005       3984.95825       1.79318595    
   0.00000000       5.48999977     -0.157000005       4098.09814       1.79807615    
   0.00000000       4.76741982     -0.246999994       4098.09814       1.79807615    
 -0.930077016       4.67581606     -0.246999994       4098.09814       1.79807615    
  -1.07104599       5.38451099     -0.157000005       4098.09814       1.79807615    
   1.07104599       5.38451099     -0.157000005       4140.69434       1.79398167    
  0.930077016       4.67581606     -0.246999994       4140.69434       1.79398167    
   0.00000000       4.76741982     -0.246999994       4140.69434       1.79398167    
   0.00000000       5.48999977     -0.157000005       4140.69434       1.79398167    
   2.10093188       5.07209921     -0.157000005       3937.74268       1.79952490    
   1.82441294       4.40452194     -0.246999994       3937.74268       1.79952490    
  0.930077016       4.67581606     -0.246999994       3937.74268       1.79952490    
   1.07104599       5.38451099     -0.157000005       3937.74268       1.79952490    
   3.05008101       4.56476784     -0.157000005       3630.63599       1.80030513    
   2.64863706       3.96396494     -0.246999994       3630.63599       1.80030513    
   1.82441294       4.40452194     -0.246999994       3630.63599       1.80030513    
   2.10093188       5.07209921     -0.157000005       3630.63599       1.80030513    
   3.88201594       3.88201594     -0.157000005       3231.20020       1.79477596    
   3.37107491       3.37107491     -0.246999994       3231.20020       1.79477596    
   2.64863706       3.96396494     -0.246999994       3231.20020       1.79477596    
   3.05008101       4.56476784     -0.157000005       3231.20020       1.79477596    
   4.56476784       3.05008101     -0.157000005       2652.79419       1.79572952    
   3.96396494       2.64863706     -0.246999994       2652.79419       1.79572952    
   3.37107491       3.37107491     -0.246999994       2652.79419       1.79572952    
   3.88201594       3.88201594     -0.157000005       2652.79419       1.79572952    
   5.07209921       2.10093188     -0.157000005       1980.70862       1.79458773    
   4.40452194       1.82441294     -0.246999994       1980.70862       1.79458773    
   3.96396494       2.64863706     -0.246999994       1980.70862       1.79458773    
   4.56476784       3.05008101     -0.157000005       1980.70862       1.79458773    
   5.38451099       1.07104599     -0.157000005       1200.63672       1.80278444    
   4.67581606      0.930077016     -0.246999994       1200.63672       1.80278444    
   4.40452194       1.82441294     -0.246999994       1200.63672       1.80278444    
   5.07209921       2.10093188     -0.157000005       1200.63672       1.80278444    
   5.48999977       0.00000000     -0.157000005       399.875793       1.81308103    
   4.76741982       0.00000000     -0.246999994       399.875793       1.81308103    
   4.67581606      0.930077016     -0.246999994       399.875793       1.81308103    
   5.38451099       1.07104599     -0.157000005       399.875793       1.81308103    
   5.38451099      -1.07104599     -0.157000005       409.841614      -1.35176384    
   4.67581606     -0.930077016     -0.246999994       409.841614      -1.35176384    
   4.76741982       0.00000000     -0.246999994       409.841614      -1.35176384    
   5.48999977       0.00000000     -0.157000005       409.841614      -1.35176384    
   5.07209921      -2.10093188     -0.157000005       1201.86719      -1.34393513    
   4.40452194      -1.82441294     -0.246999994       1201.86719      -1.34393513    
   4.67581606     -0.930077016     -0.246999994       1201.86719      -1.34393513    
   5.38451099      -1.07104599     -0.157000005       1201.86719      -1.34393513    
   4.56476784      -3.05008101     -0.157000005       1946.56104      -1.34262621    
   3.96396494      -2.64863706     -0.246999994       1946.56104      -1.34262621    
   4.40452194      -1.82441294     -0.246999994       1946.56104      -1.34262621    
   5.07209921      -2.10093188     -0.157000005       1946.56104      -1.34262621    
   3.88201594      -3.88201594     -0.157000005       2618.42383      -1.34294093    
   3.37107491      -3.37107491     -0.246999994       2618.42383      -1.34294093    
   3.96396494      -2.64863706     -0.246999994       2618.42383      -1.34294093    
   4.56476784      -3.05008101     -0.157000005       2618.42383      -1.34294093    
   3.05008101      -4.56476784     -0.157000005       3224.27148      -1.34825850    
   2.64863706      -3.96396494     -0.246999994       3224.27148      -1.34825850    
   3.37107491      -3.37107491     -0.246999994       3224.27148      -1.34825850    
   3.88201594      -3.88201594     -0.157000005       3224.27148      -1.34825850    
   2.10093188      -5.07209921     -0.157000005       3629.78784      -1.34315193    
   1.82441294      -4.40452194     -0.246999994       3629.78784      -1.34315193    
   2.64863706      -3.96396494     -0.246999994       3629.78784      -1.34315193    
   3.05008101      -4.56476784     -0.157000005       3629.78784      -1.34315193    
   1.07104599      -5.38451099     -0.157000005       3929.74341      -1.34256554    
  0.930077016      -4.67581606     -0.246999994       3929.74341      -1.34256554    
   1.82441294      -4.40452194     -0.246999994       3929.74341      -1.34256554    
   2.10093188      -5.07209921     -0.157000005       3929.74341      -1.34256554    
   0.00000000      -1.87709999     -0.606999993       3714.62329      -1.52247810    
   0.00000000      -1.36500001     -0.606999993       3714.62329      -1.52247810    
  0.266297996      -1.33877206     -0.606999993       3714.62329      -1.52247810    
  0.366203994      -1.84103203     -0.606999993       3714.62329      -1.52247810    
   0.00000000      -1.87709999     -0.606999993       4051.54810      -1.51553726    
   0.00000000      -2.59967995     -0.517000020       4051.54810      -1.51553726    
 -0.507171988      -2.54972792     -0.517000020       4051.54810      -1.51553726    
 -0.366203994      -1.84103203     -0.606999993       4051.54810      -1.51553726    
 -0.366203994      -1.84103203     -0.606999993       3716.24658      -1.52247643    
 -0.266297996      -1.33877206     -0.606999993       3716.24658      -1.52247643    
   0.00000000      -1.36500001     -0.606999993       3716.24658      -1.52247643    
   0.00000000      -1.87709999     -0.606999993       3716.24658      -1.52247643    
 -0.366203994      -1.84103203     -0.606999993       3885.58862      -1.51531672    
 -0.507171988      -2.54972792     -0.517000020       3885.58862      -1.51531672    
 -0.994853973      -2.40179110     -0.517000020       3885.58862      -1.51531672    
 -0.718334973      -1.73421395     -0.606999993       3885.58862      -1.51531672    
 -0.718334973      -1.73421395     -0.606999993       3570.06909      -1.52229559    
 -0.522363007      -1.26109600     -0.606999993       3570.06909      -1.52229559    
 -0.266297996      -1.33877206     -0.606999993       3570.06909      -1.52229559    
 -0.366203994      -1.84103203     -0.606999993       3570.06909      -1.52229559    
 -0.718334973      -1.73421395     -0.606999993       3572.83496      -1.51498187    
 -0.994853973      -2.40179110     -0.517000020       3572.83496      -1.51498187    
  -1.44430494      -2.16155505     -0.517000020       3572.83496      -1.51498187    
  -1.04286098      -1.56075203     -0.606999993       3572.83496      -1.51498187    
  -1.04286098      -1.56075203     -0.606999993       3287.31299      -1.52204561    
 -0.758352995      -1.13495600     -0.606999993       3287.31299      -1.52204561    
 -0.522363007      -1.26109600     -0.606999993       3287.31299      -1.52204561    
 -0.718334973      -1.73421395     -0.606999993       3287.31299      -1.52204561    
  -1.04286098      -1.56075203     -0.606999993       3133.29346      -1.51471543    
  -1.44430494      -2.16155505     -0.517000020       3133.29346      -1.51471543    
  -1.83825099      -1.83825099     -0.517000020       3133.29346      -1.51471543    
  -1.32730997      -1.32730997     -0.606999993       3133.29346      -1.51471543    
  -1.32730997      -1.32730997     -0.606999993       2882.46021      -1.52182877    
 -0.965201020     -0.965201020     -0.606999993       2882.46021      -1.52182877    
 -0.758352995      -1.13495600     -0.606999993       2882.46021      -1.52182877    
  -1.04286098      -1.56075203     -0.606999993       2882.46021      -1.52182877    
  -1.32730997      -1.32730997     -0.606999993       2578.63501      -1.51468158    
  -1.83825099      -1.83825099     -0.517000020       2578.63501      -1.51468158    
  -2.16155505      -1.44430494     -0.517000020       2578.63501      -1.51468158    
  -1.56075203      -1.04286098     -0.606999993       2578.63501      -1.51468158    
  -1.56075203      -1.04286098     -0.606999993       2369.31982      -1.52173829    
  -1.13495600     -0.758352995     -0.606999993       2369.31982      -1.52173829    
 -0.965201020     -0.965201020     -0.606999993       2369.31982      -1.52173829    
  -1.32730997      -1.32730997     -0.606999993       2369.31982      -1.52173829    
  -1.56075203      -1.04286098     -0.606999993       1920.60706      -1.51493597    
  -2.16155505      -1.44430494     -0.517000020       1920.60706      -1.51493597    
  -2.40179110     -0.994853973     -0.517000020       1920.60706      -1.51493597    
  -1.73421395     -0.718334973     -0.606999993       1920.60706      -1.51493597    
  -1.73421395     -0.718334973     -0.606999993       1763.41846      -1.52178729    
  -1.26109600     -0.522363007     -0.606999993       1763.41846      -1.52178729    
  -1.13495600     -0.758352995     -0.606999993       1763.41846      -1.52178729    
  -1.56075203      -1.04286098     -0.606999993       1763.41846      -1.52178729    
  -1.73421395     -0.718334973     -0.606999993       1181.79749      -1.51526165    
  -2.40179110     -0.994853973     -0.517000020       1181.79749      -1.51526165    
  -2.54972792     -0.507171988     -0.517000020       1181.79749      -1.51526165    
  -1.84103203     -0.366203994     -0.606999993       1181.79749      -1.51526165    
  -1.84103203     -0.366203994     -0.606999993       1086.00464      -1.52174461    
  -1.33877206     -0.266297996     -0.606999993       1086.00464      -1.52174461    
  -1.26109600     -0.522363007     -0.606999993       1086.00464      -1.52174461    
  -1.73421395     -0.718334973     -0.606999993       1086.00464      -1.52174461    
  -1.84103203     -0.366203994     -0.606999993       396.121735      -1.51462543    
  -2.54972792     -0.507171988     -0.517000020       396.121735      -1.51462543    
  -2.59967995       0.00000000     -0.517000020       396.121735      -1.51462543    
  -1.87709999       0.00000000     -0.606999993       396.121735      -1.51462543    
  -1.87709999       0.00000000     -0.606999993       364.694061      -1.52017868    
  -1.36500001       0.00000000     -0.606999993       364.694061      -1.52017868    
  -1.33877206     -0.266297996     -0.606999993       364.694061      -1.52017868    
  -1.84103203     -0.366203994     -0.606999993       364.694061      -1.52017868    
  -1.87709999       0.00000000     -0.606999993       403.483093       1.62357354    
  -2.59967995       0.00000000     -0.517000020       403.483093       1.62357354    
  -2.54972792      0.507171988     -0.517000020       403.483093       1.62357354    
  -1.84103203      0.366203994     -0.606999993       403.483093       1.62357354    
  -1.84103203      0.366203994     -0.606999993       371.143982       1.61587572    
  -1.33877206      0.266297996     -0.606999993       371.143982       1.61587572    
  -1.36500001       0.00000000     -0.606999993       371.143982       1.61587572    
  -1.87709999       0.00000000     -0.606999993       371.143982       1.61587572    
  -1.84103203      0.366203994     -0.606999993       1189.14429       1.62493491    
  -2.54972792      0.507171988     -0.517000020       1189.14429       1.62493491    
  -2.40179110      0.994853973     -0.517000020       1189.14429       1.62493491    
  -1.73421395      0.718334973     -0.606999993       1189.14429       1.62493491    
  -1.73421395      0.718334973     -0.606999993       1092.71448       1.61781275    
  -1.26109600      0.522363007     -0.606999993       1092.71448       1.61781275    
  -1.33877206      0.266297996     -0.606999993       1092.71448       1.61781275    
  -1.84103203      0.366203994     -0.606999993       1092.71448       1.61781275    
  -1.73421395      0.718334973     -0.606999993       1929.51086       1.62564886    
  -2.40179110      0.994853973     -0.517000020       1929.51086       1.62564886    
  -2.16155505       1.44430494     -0.517000020       1929.51086       1.62564886    
  -1.56075203       1.04286098     -0.606999993       1929.51086       1.62564886    
  -1.56075203       1.04286098     -0.606999993       1771.18030       1.61844099    
  -1.13495600      0.758352995     -0.606999993       1771.18030       1.61844099    
  -1.26109600      0.522363007     -0.606999993       1771.18030       1.61844099    
  -1.73421395      0.718334973     -0.606999993       1771.18030       1.61844099    
  -1.56075203       1.04286098     -0.606999993       2589.93188       1.62616765    
  -2.16155505       1.44430494     -0.517000020       2589.93188       1.62616765    
  -1.83825099       1.83825099     -0.517000020       2589.93188       1.62616765    
  -1.32730997       1.32730997     -0.606999993       2589.93188       1.62616765    
  -1.32730997       1.32730997     -0.606999993       2378.84253       1.61881602    
 -0.965201020      0.965201020     -0.606999993       2378.84253       1.61881602    
  -1.13495600      0.758352995     -0.606999993       2378.84253       1.61881602    
  -1.56075203       1.04286098     -0.606999993       2378.84253       1.61881602    
  -1.32730997       1.32730997     -0.606999993       3145.84351       1.62635851    
  -1.83825099       1.83825099     -0.517000020       3145.84351       1.62635851    
  -1.44430494       2.16155505     -0.517000020       3145.84351       1.62635851    
  -1.04286098       1.56075203     -0.606999993       3145.84351       1.62635851    
  -1.04286098       1.56075203     -0.606999993       2893.61450       1.61899388    
 -0.758352995       1.13495600     -0.606999993       2893.61450       1.61899388    
 -0.965201020      0.965201020     -0.606999993       2893.61450       1.61899388    
  -1.32730997       1.32730997     -0.606999993       2893.61450       1.61899388    
  -1.04286098       1.56075203     -0.606999993       3585.34546       1.62627113    
  -1.44430494       2.16155505     -0.517000020       3585.34546       1.62627113    
 -0.994853973       2.40179110     -0.517000020       3585.34546       1.62627113    
 -0.718334973       1.73421395     -0.606999993       3585.34546       1.62627113    
 -0.718334973       1.73421395     -0.606999993       3299.85962       1.61896443    
 -0.522363007       1.26109600     -0.606999993       3299.85962       1.61896443    
 -0.758352995       1.13495600     -0.606999993       3299.85962       1.61896443    
  -1.04286098       1.56075203     -0.606999993       3299.85962       1.61896443    
 -0.718334973       1.73421395     -0.606999993       3897.75708       1.62604856    
 -0.994853973       2.40179110     -0.517000020       3897.75708       1.62604856    
 -0.507171988       2.54972792     -0.517000020       3897.75708       1.62604856    
 -0.366203994       1.84103203     -0.606999993       3897.75708       1.62604856    
 -0.366203994       1.84103203     -0.606999993       3584.02222       1.61884904    
 -0.266297996       1.33877206     -0.606999993       3584.02222       1.61884904    
 -0.522363007       1.26109600     -0.606999993       3584.02222       1.61884904    
 -0.718334973       1.73421395     -0.606999993       3584.02222       1.61884904    
 -0.366203994       1.84103203     -0.606999993       4063.96387       1.62590921    
 -0.507171988       2.54972792     -0.517000020       4063.96387       1.62590921    
   0.00000000       2.59967995     -0.517000020       4063.96387       1.62590921    
   0.00000000       1.87709999     -0.606999993       4063.96387       1.62590921    
   0.00000000       1.87709999     -0.606999993       3731.82373       1.61877799    
   0.00000000       1.36500001     -0.606999993       3731.82373       1.61877799    
 -0.266297996       1.33877206     -0.606999993       3731.82373       1.61877799    
 -0.366203994       1.84103203     -0.606999993       3731.82373       1.61877799    
   0.00000000       1.87709999     -0.606999993       4064.21582       1.62596869    
   0.00000000       2.59967995     -0.517000020       4064.21582       1.62596869    
  0.507171988       2.54972792     -0.517000020       4064.21582       1.62596869    
  0.366203994       1.84103203     -0.606999993       4064.21582       1.62596869    
  0.366203994       1.84103203     -0.606999993       3732.25415       1.61884856    
  0.266297996       1.33877206     -0.606999993       3732.25415       1.61884856    
   0.00000000       1.36500001     -0.606999993       3732.25415       1.61884856    
   0.00000000       1.87709999     -0.606999993       3732.25415       1.61884856    
  0.366203994       1.84103203     -0.606999993       3898.55054       1.62621295    
  0.507171988       2.54972792     -0.517000020       3898.55054       1.62621295    
  0.994853973       2.40179110     -0.517000020       3898.55054       1.62621295    
  0.718334973       1.73421395     -0.606999993       3898.55054       1.62621295    
  0.718334973       1.73421395     -0.606999993       3585.40186       1.61903584    
  0.522363007       1.26109600     -0.606999993       3585.40186       1.61903584    
  0.266297996       1.33877206     -0.606999993       3585.40186       1.61903584    
  0.366203994       1.84103203     -0.606999993       3585.40186       1.61903584    
  0.718334973       1.73421395     -0.606999993       3586.82739       1.62653291    
  0.994853973       2.40179110     -0.517000020       3586.82739       1.62653291    
   1.44430494       2.16155505     -0.517000020       3586.82739       1.62653291    
   1.04286098       1.56075203     -0.606999993       3586.82739       1.62653291    
   1.04286098       1.56075203     -0.606999993       3302.43311       1.61926174    
  0.758352995       1.13495600     -0.606999993       3302.43311       1.61926174    
  0.522363007       1.26109600     -0.606999993       3302.43311       1.61926174    
  0.718334973       1.73421395     -0.606999993       3302.43311       1.61926174    
   1.04286098       1.56075203     -0.606999993       3148.09839       1.62672412    
   1.44430494       2.16155505     -0.517000020       3148.09839       1.62672412    
   1.83825099       1.83825099     -0.517000020       3148.09839       1.62672412    
   1.32730997       1.32730997     -0.606999993       3148.09839       1.62672412    
   1.32730997       1.32730997     -0.606999993       2897.47046       1.61940861    
  0.965201020      0.965201020     -0.606999993       2897.47046       1.61940861    
  0.758352995       1.13495600     -0.606999993       2897.47046       1.61940861    
   1.04286098       1.56075203     -0.606999993       2897.47046       1.61940861    
   1.32730997       1.32730997     -0.606999993       2592.85181       1.62662947    
   1.83825099       1.83825099     -0.517000020       2592.85181       1.62662947    
   2.16155505       1.44430494     -0.517000020       2592.85181       1.62662947    
   1.56075203       1.04286098     -0.606999993       2592.85181       1.62662947    
   1.56075203       1.04286098     -0.606999993       2383.97729       1.61937821    
   1.13495600      0.758352995     -0.606999993       2383.97729       1.61937821    
  0.965201020      0.965201020     -0.606999993       2383.97729       1.61937821    
   1.32730997       1.32730997     -0.606999993       2383.97729       1.61937821    
   1.56075203       1.04286098     -0.606999993       1932.90210       1.62627518    
   2.16155505       1.44430494     -0.517000020       1932.90210       1.62627518    
   2.40179110      0.994853973     -0.517000020       1932.90210       1.62627518    
   1.73421395      0.718334973     -0.606999993       1932.90210       1.62627518    
   1.73421395      0.718334973     -0.606999993       1777.41492       1.61919570    
   1.26109600      0.522363007     -0.606999993       1777.41492       1.61919570    
   1.13495600      0.758352995     -0.606999993       1777.41492       1.61919570    
   1.56075203       1.04286098     -0.606999993       1777.41492       1.61919570    
   1.73421395      0.718334973     -0.606999993       1192.78906       1.62588811    
   2.40179110      0.994853973     -0.517000020       1192.78906       1.62588811    
   2.54972792      0.507171988     -0.517000020       1192.78906       1.62588811    
   1.84103203      0.366203994     -0.606999993       1192.78906       1.62588811    
   1.84103203      0.366203994     -0.606999993       1099.83862       1.61896241    
   1.33877206      0.266297996     -0.606999993       1099.83862       1.61896241    
   1.26109600      0.522363007     -0.606999993       1099.83862       1.61896241    
   1.73421395      0.718334973     -0.606999993       1099.83862       1.61896241    
   1.84103203      0.366203994     -0.606999993       407.407135       1.62596357    
   2.54972792      0.507171988     -0.517000020       407.407135       1.62596357    
   2.59967995       0.00000000     -0.517000020       407.407135       1.62596357    
   1.87709999       0.00000000     -0.606999993       407.407135       1.62596357    
   1.87709999       0.00000000     -0.606999993       379.136261       1.61880851    
   1.36500001       0.00000000     -0.606999993       379.136261       1.61880851    
   1.33877206      0.266297996     -0.606999993       379.136261       1.61880851    
   1.84103203      0.366203994     -0.606999993       379.136261       1.61880851    
   1.87709999       0.00000000     -0.606999993       391.822601      -1.51657915    
   2.59967995       0.00000000     -0.517000020       391.822601      -1.51657915    
   2.54972792     -0.507171988     -0.517000020       391.822601      -1.51657915    
   1.84103203     -0.366203994     -0.606999993       391.822601      -1.51657915    
   1.84103203     -0.366203994     -0.606999993       355.856720      -1.52256799    
   1.33877206     -0.266297996     -0.606999993       355.856720      -1.52256799    
   1.36500001       0.00000000     -0.606999993       355.856720      -1.52256799    
   1.87709999       0.00000000     -0.606999993       355.856720      -1.52256799    
   1.84103203     -0.366203994     -0.606999993       1177.06201      -1.51573241    
   2.54972792     -0.507171988     -0.517000020       1177.06201      -1.51573241    
   2.40179110     -0.994853973     -0.517000020       1177.06201      -1.51573241    
   1.73421395     -0.718334973     -0.606999993       1177.06201      -1.51573241    
   1.73421395     -0.718334973     -0.606999993       1076.49194      -1.52233541    
   1.26109600     -0.522363007     -0.606999993       1076.49194      -1.52233541    
   1.33877206     -0.266297996     -0.606999993       1076.49194      -1.52233541    
   1.84103203     -0.366203994     -0.606999993       1076.49194      -1.52233541    
   1.73421395     -0.718334973     -0.606999993       1915.49768      -1.51512635    
   2.40179110     -0.994853973     -0.517000020       1915.49768      -1.51512635    
   2.16155505      -1.44430494     -0.517000020       1915.49768      -1.51512635    
   1.56075203      -1.04286098     -0.606999993       1915.49768      -1.51512635    
   1.56075203      -1.04286098     -0.606999993       1753.52576      -1.52203774    
   1.13495600     -0.758352995     -0.606999993       1753.52576      -1.52203774    
   1.26109600     -0.522363007     -0.606999993       1753.52576      -1.52203774    