 VARIABLES="X" "Y" "Z" "abs(p) (Pa)" "angle(p) (rad)"
ZONE N=   2709,E =    2358, F=FEPOINT, ET=QUADRILATERAL
   0.00000000      -5.48999977     -0.157000005       1735.52588     -0.922765911    
   0.00000000      -4.76741982     -0.246999994       1735.52588     -0.922765911    
  0.930077016      -4.67581606     -0.246999994       1735.52588     -0.922765911    
   1.07104599      -5.38451099     -0.157000005       1735.52588     -0.922765911    
  -1.07104599      -5.38451099     -0.157000005       1735.48389     -0.922946632    
 -0.930077016      -4.67581606     -0.246999994       1735.48389     -0.922946632    
   0.00000000      -4.76741982     -0.246999994       1735.48389     -0.922946632    
   0.00000000      -5.48999977     -0.157000005       1735.48389     -0.922946632    
  -2.10093188      -5.07209921     -0.157000005       1665.32581     -0.925107539    
  -1.82441294      -4.40452194     -0.246999994       1665.32581     -0.925107539    
 -0.930077016      -4.67581606     -0.246999994       1665.32581     -0.925107539    
  -1.07104599      -5.38451099     -0.157000005       1665.32581     -0.925107539    
  -3.05008101      -4.56476784     -0.157000005       1541.28162     -0.924181581    
  -2.64863706      -3.96396494     -0.246999994       1541.28162     -0.924181581    
  -1.82441294      -4.40452194     -0.246999994       1541.28162     -0.924181581    
  -2.10093188      -5.07209921     -0.157000005       1541.28162     -0.924181581    
  -3.88201594      -3.88201594     -0.157000005       1358.10571     -0.927359164    
  -3.37107491      -3.37107491     -0.246999994       1358.10571     -0.927359164    
  -2.64863706      -3.96396494     -0.246999994       1358.10571     -0.927359164    
  -3.05008101      -4.56476784     -0.157000005       1358.10571     -0.927359164    
  -4.56476784      -3.05008101     -0.157000005       1116.69238     -0.932952285    
  -3.96396494      -2.64863706     -0.246999994       1116.69238     -0.932952285    
  -3.37107491      -3.37107491     -0.246999994       1116.69238     -0.932952285    
  -3.88201594      -3.88201594     -0.157000005       1116.69238     -0.932952285    
  -5.07209921      -2.10093188     -0.157000005       834.660706     -0.931653142    
  -4.40452194      -1.82441294     -0.246999994       834.660706     -0.931653142    
  -3.96396494      -2.64863706     -0.246999994       834.660706     -0.931653142    
  -4.56476784      -3.05008101     -0.157000005       834.660706     -0.931653142    
  -5.38451099      -1.07104599     -0.157000005       516.415588     -0.930534363    
  -4.67581606     -0.930077016     -0.246999994       516.415588     -0.930534363    
  -4.40452194      -1.82441294     -0.246999994       516.415588     -0.930534363    
  -5.07209921      -2.10093188     -0.157000005       516.415588     -0.930534363    
  -5.48999977       0.00000000     -0.157000005       180.395325     -0.942867041    
  -4.76741982       0.00000000     -0.246999994       180.395325     -0.942867041    
  -4.67581606     -0.930077016     -0.246999994       180.395325     -0.942867041    
  -5.38451099      -1.07104599     -0.157000005       180.395325     -0.942867041    
  -5.38451099       1.07104599     -0.157000005       159.068680       2.24513245    
  -4.67581606      0.930077016     -0.246999994       159.068680       2.24513245    
  -4.76741982       0.00000000     -0.246999994       159.068680       2.24513245    
  -5.48999977       0.00000000     -0.157000005       159.068680       2.24513245    
  -5.07209921       2.10093188     -0.157000005       495.087799       2.22429776    
  -4.40452194       1.82441294     -0.246999994       495.087799       2.22429776    
  -4.67581606      0.930077016     -0.246999994       495.087799       2.22429776    
  -5.38451099       1.07104599     -0.157000005       495.087799       2.22429776    
  -4.56476784       3.05008101     -0.157000005       817.825500       2.21615100    
  -3.96396494       2.64863706     -0.246999994       817.825500       2.21615100    
  -4.40452194       1.82441294     -0.246999994       817.825500       2.21615100    
  -5.07209921       2.10093188     -0.157000005       817.825500       2.21615100    
  -3.88201594       3.88201594     -0.157000005       1112.69824       2.21399760    
  -3.37107491       3.37107491     -0.246999994       1112.69824       2.21399760    
  -3.96396494       2.64863706     -0.246999994       1112.69824       2.21399760    
  -4.56476784       3.05008101     -0.157000005       1112.69824       2.21399760    
  -3.05008101       4.56476784     -0.157000005       1354.04895       2.21257591    
  -2.64863706       3.96396494     -0.246999994       1354.04895       2.21257591    
  -3.37107491       3.37107491     -0.246999994       1354.04895       2.21257591    
  -3.88201594       3.88201594     -0.157000005       1354.04895       2.21257591    
  -2.10093188       5.07209921     -0.157000005       1545.38025       2.21646166    
  -1.82441294       4.40452194     -0.246999994       1545.38025       2.21646166    
  -2.64863706       3.96396494     -0.246999994       1545.38025       2.21646166    
  -3.05008101       4.56476784     -0.157000005       1545.38025       2.21646166    
  -1.07104599       5.38451099     -0.157000005       1672.69971       2.21542692    
 -0.930077016       4.67581606     -0.246999994       1672.69971       2.21542692    
  -1.82441294       4.40452194     -0.246999994       1672.69971       2.21542692    
  -2.10093188       5.07209921     -0.157000005       1672.69971       2.21542692    
   0.00000000       5.48999977     -0.157000005       1745.09753       2.21697426    
   0.00000000       4.76741982     -0.246999994       1745.09753       2.21697426    
 -0.930077016       4.67581606     -0.246999994       1745.09753       2.21697426    
  -1.07104599       5.38451099     -0.157000005       1745.09753       2.21697426    
   1.07104599       5.38451099     -0.157000005       1741.31445       2.21547079    
  0.930077016       4.67581606     -0.246999994       1741.31445       2.21547079    
   0.00000000       4.76741982     -0.246999994       1741.31445       2.21547079    
   0.00000000       5.48999977     -0.157000005       1741.31445       2.21547079    
   2.10093188       5.07209921     -0.157000005       1679.41541       2.21710253    
   1.82441294       4.40452194     -0.246999994       1679.41541       2.21710253    
  0.930077016       4.67581606     -0.246999994       1679.41541       2.21710253    
   1.07104599       5.38451099     -0.157000005       1679.41541       2.21710253    
   3.05008101       4.56476784     -0.157000005       1549.01660       2.21662188    
   2.64863706       3.96396494     -0.246999994       1549.01660       2.21662188    
   1.82441294       4.40452194     -0.246999994       1549.01660       2.21662188    
   2.10093188       5.07209921     -0.157000005       1549.01660       2.21662188    
   3.88201594       3.88201594     -0.157000005       1357.37744       2.21226215    
   3.37107491       3.37107491     -0.246999994       1357.37744       2.21226215    
   2.64863706       3.96396494     -0.246999994       1357.37744       2.21226215    
   3.05008101       4.56476784     -0.157000005       1357.37744       2.21226215    
   4.56476784       3.05008101     -0.157000005       1114.12122       2.21224451    
   3.96396494       2.64863706     -0.246999994       1114.12122       2.21224451    
   3.37107491       3.37107491     -0.246999994       1114.12122       2.21224451    
   3.88201594       3.88201594     -0.157000005       1114.12122       2.21224451    
   5.07209921       2.10093188     -0.157000005       822.266907       2.21561289    
   4.40452194       1.82441294     -0.246999994       822.266907       2.21561289    
   3.96396494       2.64863706     -0.246999994       822.266907       2.21561289    
   4.56476784       3.05008101     -0.157000005       822.266907       2.21561289    
   5.38451099       1.07104599     -0.157000005       502.763428       2.22590923    
   4.67581606      0.930077016     -0.246999994       502.763428       2.22590923    
   4.40452194       1.82441294     -0.246999994       502.763428       2.22590923    
   5.07209921       2.10093188     -0.157000005       502.763428       2.22590923    
   5.48999977       0.00000000     -0.157000005       166.320892       2.24695015    
   4.76741982       0.00000000     -0.246999994       166.320892       2.24695015    
   4.67581606      0.930077016     -0.246999994       166.320892       2.24695015    
   5.38451099       1.07104599     -0.157000005       166.320892       2.24695015    
   5.38451099      -1.07104599     -0.157000005       174.430374     -0.942839980    
   4.67581606     -0.930077016     -0.246999994       174.430374     -0.942839980    
   4.76741982       0.00000000     -0.246999994       174.430374     -0.942839980    
   5.48999977       0.00000000     -0.157000005       174.430374     -0.942839980    
   5.07209921      -2.10093188     -0.157000005       510.733032     -0.930496931    
   4.40452194      -1.82441294     -0.246999994       510.733032     -0.930496931    
   4.67581606     -0.930077016     -0.246999994       510.733032     -0.930496931    
   5.38451099      -1.07104599     -0.157000005       510.733032     -0.930496931    
   4.56476784      -3.05008101     -0.157000005       830.796143     -0.930990577    
   3.96396494      -2.64863706     -0.246999994       830.796143     -0.930990577    
   4.40452194      -1.82441294     -0.246999994       830.796143     -0.930990577    
   5.07209921      -2.10093188     -0.157000005       830.796143     -0.930990577    
   3.88201594      -3.88201594     -0.157000005       1116.98608     -0.930606425    
   3.37107491      -3.37107491     -0.246999994       1116.98608     -0.930606425    
   3.96396494      -2.64863706     -0.246999994       1116.98608     -0.930606425    
   4.56476784      -3.05008101     -0.157000005       1116.98608     -0.930606425    
   3.05008101      -4.56476784     -0.157000005       1350.96094     -0.929113090    
   2.64863706      -3.96396494     -0.246999994       1350.96094     -0.929113090    
   3.37107491      -3.37107491     -0.246999994       1350.96094     -0.929113090    
   3.88201594      -3.88201594     -0.157000005       1350.96094     -0.929113090    
   2.10093188      -5.07209921     -0.157000005       1538.96594     -0.924100339    
   1.82441294      -4.40452194     -0.246999994       1538.96594     -0.924100339    
   2.64863706      -3.96396494     -0.246999994       1538.96594     -0.924100339    
   3.05008101      -4.56476784     -0.157000005       1538.96594     -0.924100339    
   1.07104599      -5.38451099     -0.157000005       1669.31616     -0.923155069    
  0.930077016      -4.67581606     -0.246999994       1669.31616     -0.923155069    
   1.82441294      -4.40452194     -0.246999994       1669.31616     -0.923155069    
   2.10093188      -5.07209921     -0.157000005       1669.31616     -0.923155069    
   0.00000000      -1.87709999     -0.606999993       8783.17676      -1.54293513    
   0.00000000      -1.36500001     -0.606999993       8783.17676      -1.54293513    
  0.266297996      -1.33877206     -0.606999993       8783.17676      -1.54293513    
  0.366203994      -1.84103203     -0.606999993       8783.17676      -1.54293513    
   0.00000000      -1.87709999     -0.606999993       5041.91504      -1.50143516    
   0.00000000      -2.59967995     -0.517000020       5041.91504      -1.50143516    
 -0.507171988      -2.54972792     -0.517000020       5041.91504      -1.50143516    
 -0.366203994      -1.84103203     -0.606999993       5041.91504      -1.50143516    
 -0.366203994      -1.84103203     -0.606999993       8791.70996      -1.54293120    
 -0.266297996      -1.33877206     -0.606999993       8791.70996      -1.54293120    
   0.00000000      -1.36500001     -0.606999993       8791.70996      -1.54293120    
   0.00000000      -1.87709999     -0.606999993       8791.70996      -1.54293120    
 -0.366203994      -1.84103203     -0.606999993       4891.61377      -1.50189400    
 -0.507171988      -2.54972792     -0.517000020       4891.61377      -1.50189400    
 -0.994853973      -2.40179110     -0.517000020       4891.61377      -1.50189400    
 -0.718334973      -1.73421395     -0.606999993       4891.61377      -1.50189400    
 -0.718334973      -1.73421395     -0.606999993       8492.06250      -1.54294169    
 -0.522363007      -1.26109600     -0.606999993       8492.06250      -1.54294169    
 -0.266297996      -1.33877206     -0.606999993       8492.06250      -1.54294169    
 -0.366203994      -1.84103203     -0.606999993       8492.06250      -1.54294169    
 -0.718334973      -1.73421395     -0.606999993       4572.61719      -1.50254762    
 -0.994853973      -2.40179110     -0.517000020       4572.61719      -1.50254762    
  -1.44430494      -2.16155505     -0.517000020       4572.61719      -1.50254762    
  -1.04286098      -1.56075203     -0.606999993       4572.61719      -1.50254762    
  -1.04286098      -1.56075203     -0.606999993       7878.09814      -1.54294932    
 -0.758352995      -1.13495600     -0.606999993       7878.09814      -1.54294932    
 -0.522363007      -1.26109600     -0.606999993       7878.09814      -1.54294932    
 -0.718334973      -1.73421395     -0.606999993       7878.09814      -1.54294932    
  -1.04286098      -1.56075203     -0.606999993       4063.07666      -1.50307596    
  -1.44430494      -2.16155505     -0.517000020       4063.07666      -1.50307596    
  -1.83825099      -1.83825099     -0.517000020       4063.07666      -1.50307596    
  -1.32730997      -1.32730997     -0.606999993       4063.07666      -1.50307596    
  -1.32730997      -1.32730997     -0.606999993       6947.77686      -1.54293168    
 -0.965201020     -0.965201020     -0.606999993       6947.77686      -1.54293168    
 -0.758352995      -1.13495600     -0.606999993       6947.77686      -1.54293168    
  -1.04286098      -1.56075203     -0.606999993       6947.77686      -1.54293168    
  -1.32730997      -1.32730997     -0.606999993       3352.48584      -1.50319290    
  -1.83825099      -1.83825099     -0.517000020       3352.48584      -1.50319290    
  -2.16155505      -1.44430494     -0.517000020       3352.48584      -1.50319290    
  -1.56075203      -1.04286098     -0.606999993       3352.48584      -1.50319290    
  -1.56075203      -1.04286098     -0.606999993       5722.15674      -1.54289484    
  -1.13495600     -0.758352995     -0.606999993       5722.15674      -1.54289484    
 -0.965201020     -0.965201020     -0.606999993       5722.15674      -1.54289484    
  -1.32730997      -1.32730997     -0.606999993       5722.15674      -1.54289484    
  -1.56075203      -1.04286098     -0.606999993       2471.02808      -1.50277865    
  -2.16155505      -1.44430494     -0.517000020       2471.02808      -1.50277865    
  -2.40179110     -0.994853973     -0.517000020       2471.02808      -1.50277865    
  -1.73421395     -0.718334973     -0.606999993       2471.02808      -1.50277865    
  -1.73421395     -0.718334973     -0.606999993       4256.93945      -1.54287291    
  -1.26109600     -0.522363007     -0.606999993       4256.93945      -1.54287291    
  -1.13495600     -0.758352995     -0.606999993       4256.93945      -1.54287291    
  -1.56075203      -1.04286098     -0.606999993       4256.93945      -1.54287291    
  -1.73421395     -0.718334973     -0.606999993       1502.83350      -1.50225627    
  -2.40179110     -0.994853973     -0.517000020       1502.83350      -1.50225627    
  -2.54972792     -0.507171988     -0.517000020       1502.83350      -1.50225627    
  -1.84103203     -0.366203994     -0.606999993       1502.83350      -1.50225627    
  -1.84103203     -0.366203994     -0.606999993       2633.80859      -1.54288745    
  -1.33877206     -0.266297996     -0.606999993       2633.80859      -1.54288745    
  -1.26109600     -0.522363007     -0.606999993       2633.80859      -1.54288745    
  -1.73421395     -0.718334973     -0.606999993       2633.80859      -1.54288745    
  -1.84103203     -0.366203994     -0.606999993       527.169067      -1.50384057    
  -2.54972792     -0.507171988     -0.517000020       527.169067      -1.50384057    
  -2.59967995       0.00000000     -0.517000020       527.169067      -1.50384057    
  -1.87709999       0.00000000     -0.606999993       527.169067      -1.50384057    
  -1.87709999       0.00000000     -0.606999993       933.831848      -1.54301584    
  -1.36500001       0.00000000     -0.606999993       933.831848      -1.54301584    
  -1.33877206     -0.266297996     -0.606999993       933.831848      -1.54301584    
  -1.84103203     -0.366203994     -0.606999993       933.831848      -1.54301584    
  -1.87709999       0.00000000     -0.606999993       429.163422       1.64689815    
  -2.59967995       0.00000000     -0.517000020       429.163422       1.64689815    
  -2.54972792      0.507171988     -0.517000020       429.163422       1.64689815    
  -1.84103203      0.366203994     -0.606999993       429.163422       1.64689815    
  -1.84103203      0.366203994     -0.606999993       782.298645       1.59906554    
  -1.33877206      0.266297996     -0.606999993       782.298645       1.59906554    
  -1.36500001       0.00000000     -0.606999993       782.298645       1.59906554    
  -1.87709999       0.00000000     -0.606999993       782.298645       1.59906554    
  -1.84103203      0.366203994     -0.606999993       1387.44006       1.64289069    
  -2.54972792      0.507171988     -0.517000020       1387.44006       1.64289069    
  -2.40179110      0.994853973     -0.517000020       1387.44006       1.64289069    
  -1.73421395      0.718334973     -0.606999993       1387.44006       1.64289069    
  -1.73421395      0.718334973     -0.606999993       2474.22607       1.59890139    
  -1.26109600      0.522363007     -0.606999993       2474.22607       1.59890139    
  -1.33877206      0.266297996     -0.606999993       2474.22607       1.59890139    
  -1.84103203      0.366203994     -0.606999993       2474.22607       1.59890139    
  -1.73421395      0.718334973     -0.606999993       2342.22803       1.64125657    
  -2.40179110      0.994853973     -0.517000020       2342.22803       1.64125657    
  -2.16155505       1.44430494     -0.517000020       2342.22803       1.64125657    
  -1.56075203       1.04286098     -0.606999993       2342.22803       1.64125657    
  -1.56075203       1.04286098     -0.606999993       4091.88867       1.59887552    
  -1.13495600      0.758352995     -0.606999993       4091.88867       1.59887552    
  -1.26109600      0.522363007     -0.606999993       4091.88867       1.59887552    
  -1.73421395      0.718334973     -0.606999993       4091.88867       1.59887552    
  -1.56075203       1.04286098     -0.606999993       3231.29761       1.64017582    
  -2.16155505       1.44430494     -0.517000020       3231.29761       1.64017582    
  -1.83825099       1.83825099     -0.517000020       3231.29761       1.64017582    
  -1.32730997       1.32730997     -0.606999993       3231.29761       1.64017582    
  -1.32730997       1.32730997     -0.606999993       5563.49902       1.59885144    
 -0.965201020      0.965201020     -0.606999993       5563.49902       1.59885144    
  -1.13495600      0.758352995     -0.606999993       5563.49902       1.59885144    
  -1.56075203       1.04286098     -0.606999993       5563.49902       1.59885144    
  -1.32730997       1.32730997     -0.606999993       3967.02612       1.63978779    
  -1.83825099       1.83825099     -0.517000020       3967.02612       1.63978779    
  -1.44430494       2.16155505     -0.517000020       3967.02612       1.63978779    
  -1.04286098       1.56075203     -0.606999993       3967.02612       1.63978779    
  -1.04286098       1.56075203     -0.606999993       6807.14893       1.59883034    
 -0.758352995       1.13495600     -0.606999993       6807.14893       1.59883034    
 -0.965201020      0.965201020     -0.606999993       6807.14893       1.59883034    
  -1.32730997       1.32730997     -0.606999993       6807.14893       1.59883034    
  -1.04286098       1.56075203     -0.606999993       4504.09180       1.63996661    
  -1.44430494       2.16155505     -0.517000020       4504.09180       1.63996661    
 -0.994853973       2.40179110     -0.517000020       4504.09180       1.63996661    
 -0.718334973       1.73421395     -0.606999993       4504.09180       1.63996661    
 -0.718334973       1.73421395     -0.606999993       7763.25342       1.59882069    
 -0.522363007       1.26109600     -0.606999993       7763.25342       1.59882069    
 -0.758352995       1.13495600     -0.606999993       7763.25342       1.59882069    
  -1.04286098       1.56075203     -0.606999993       7763.25342       1.59882069    
 -0.718334973       1.73421395     -0.606999993       4844.85449       1.64039600    
 -0.994853973       2.40179110     -0.517000020       4844.85449       1.64039600    
 -0.507171988       2.54972792     -0.517000020       4844.85449       1.64039600    
 -0.366203994       1.84103203     -0.606999993       4844.85449       1.64039600    
 -0.366203994       1.84103203     -0.606999993       8403.91992       1.59882939    
 -0.266297996       1.33877206     -0.606999993       8403.91992       1.59882939    
 -0.522363007       1.26109600     -0.606999993       8403.91992       1.59882939    
 -0.718334973       1.73421395     -0.606999993       8403.91992       1.59882939    
 -0.366203994       1.84103203     -0.606999993       5010.86426       1.64071059    
 -0.507171988       2.54972792     -0.517000020       5010.86426       1.64071059    
   0.00000000       2.59967995     -0.517000020       5010.86426       1.64071059    
   0.00000000       1.87709999     -0.606999993       5010.86426       1.64071059    
   0.00000000       1.87709999     -0.606999993       8727.21094       1.59883475    
   0.00000000       1.36500001     -0.606999993       8727.21094       1.59883475    
 -0.266297996       1.33877206     -0.606999993       8727.21094       1.59883475    
 -0.366203994       1.84103203     -0.606999993       8727.21094       1.59883475    
   0.00000000       1.87709999     -0.606999993       5016.69434       1.64065123    
   0.00000000       2.59967995     -0.517000020       5016.69434       1.64065123    
  0.507171988       2.54972792     -0.517000020       5016.69434       1.64065123    
  0.366203994       1.84103203     -0.606999993       5016.69434       1.64065123    
  0.366203994       1.84103203     -0.606999993       8736.84082       1.59881854    
  0.266297996       1.33877206     -0.606999993       8736.84082       1.59881854    
   0.00000000       1.36500001     -0.606999993       8736.84082       1.59881854    
   0.00000000       1.87709999     -0.606999993       8736.84082       1.59881854    
  0.366203994       1.84103203     -0.606999993       4862.16162       1.64021444    
  0.507171988       2.54972792     -0.517000020       4862.16162       1.64021444    
  0.994853973       2.40179110     -0.517000020       4862.16162       1.64021444    
  0.718334973       1.73421395     -0.606999993       4862.16162       1.64021444    
  0.718334973       1.73421395     -0.606999993       8432.52148       1.59877956    
  0.522363007       1.26109600     -0.606999993       8432.52148       1.59877956    
  0.266297996       1.33877206     -0.606999993       8432.52148       1.59877956    
  0.366203994       1.84103203     -0.606999993       8432.52148       1.59877956    
  0.718334973       1.73421395     -0.606999993       4532.46289       1.63964605    
  0.994853973       2.40179110     -0.517000020       4532.46289       1.63964605    
   1.44430494       2.16155505     -0.517000020       4532.46289       1.63964605    
   1.04286098       1.56075203     -0.606999993       4532.46289       1.63964605    
   1.04286098       1.56075203     -0.606999993       7809.38330       1.59873581    
  0.758352995       1.13495600     -0.606999993       7809.38330       1.59873581    
  0.522363007       1.26109600     -0.606999993       7809.38330       1.59873581    
  0.718334973       1.73421395     -0.606999993       7809.38330       1.59873581    
   1.04286098       1.56075203     -0.606999993       4005.60229       1.63929510    
   1.44430494       2.16155505     -0.517000020       4005.60229       1.63929510    
   1.83825099       1.83825099     -0.517000020       4005.60229       1.63929510    
   1.32730997       1.32730997     -0.606999993       4005.60229       1.63929510    
   1.32730997       1.32730997     -0.606999993       6869.21631       1.59870434    
  0.965201020      0.965201020     -0.606999993       6869.21631       1.59870434    
  0.758352995       1.13495600     -0.606999993       6869.21631       1.59870434    
   1.04286098       1.56075203     -0.606999993       6869.21631       1.59870434    
   1.32730997       1.32730997     -0.606999993       3278.32593       1.63944781    
   1.83825099       1.83825099     -0.517000020       3278.32593       1.63944781    
   2.16155505       1.44430494     -0.517000020       3278.32593       1.63944781    
   1.56075203       1.04286098     -0.606999993       3278.32593       1.63944781    
   1.56075203       1.04286098     -0.606999993       5638.37012       1.59868026    
   1.13495600      0.758352995     -0.606999993       5638.37012       1.59868026    
  0.965201020      0.965201020     -0.606999993       5638.37012       1.59868026    
   1.32730997       1.32730997     -0.606999993       5638.37012       1.59868026    
   1.56075203       1.04286098     -0.606999993       2394.96680       1.64014697    
   2.16155505       1.44430494     -0.517000020       2394.96680       1.64014697    
   2.40179110      0.994853973     -0.517000020       2394.96680       1.64014697    
   1.73421395      0.718334973     -0.606999993       2394.96680       1.64014697    
   1.73421395      0.718334973     -0.606999993       4174.63770       1.59865499    
   1.26109600      0.522363007     -0.606999993       4174.63770       1.59865499    
   1.13495600      0.758352995     -0.606999993       4174.63770       1.59865499    
   1.56075203       1.04286098     -0.606999993       4174.63770       1.59865499    
   1.73421395      0.718334973     -0.606999993       1443.09216       1.64095747    
   2.40179110      0.994853973     -0.517000020       1443.09216       1.64095747    
   2.54972792      0.507171988     -0.517000020       1443.09216       1.64095747    
   1.84103203      0.366203994     -0.606999993       1443.09216       1.64095747    
   1.84103203      0.366203994     -0.606999993       2560.93359       1.59858954    
   1.33877206      0.266297996     -0.606999993       2560.93359       1.59858954    
   1.26109600      0.522363007     -0.606999993       2560.93359       1.59858954    
   1.73421395      0.718334973     -0.606999993       2560.93359       1.59858954    
   1.84103203      0.366203994     -0.606999993       485.541473       1.64081490    
   2.54972792      0.507171988     -0.517000020       485.541473       1.64081490    
   2.59967995       0.00000000     -0.517000020       485.541473       1.64081490    
   1.87709999       0.00000000     -0.606999993       485.541473       1.64081490    
   1.87709999       0.00000000     -0.606999993       870.173950       1.59830797    
   1.36500001       0.00000000     -0.606999993       870.173950       1.59830797    
   1.33877206      0.266297996     -0.606999993       870.173950       1.59830797    
   1.84103203      0.366203994     -0.606999993       870.173950       1.59830797    
   1.87709999       0.00000000     -0.606999993       471.861023      -1.49893677    
   2.59967995       0.00000000     -0.517000020       471.861023      -1.49893677    
   2.54972792     -0.507171988     -0.517000020       471.861023      -1.49893677    
   1.84103203     -0.366203994     -0.606999993       471.861023      -1.49893677    
   1.84103203     -0.366203994     -0.606999993       848.060791      -1.54249978    
   1.33877206     -0.266297996     -0.606999993       848.060791      -1.54249978    
   1.36500001       0.00000000     -0.606999993       848.060791      -1.54249978    
   1.87709999       0.00000000     -0.606999993       848.060791      -1.54249978    
   1.84103203     -0.366203994     -0.606999993       1450.28284      -1.50072217    
   2.54972792     -0.507171988     -0.517000020       1450.28284      -1.50072217    
   2.40179110     -0.994853973     -0.517000020       1450.28284      -1.50072217    
   1.73421395     -0.718334973     -0.606999993       1450.28284      -1.50072217    
   1.73421395     -0.718334973     -0.606999993       2553.31958      -1.54278982    
   1.26109600     -0.522363007     -0.606999993       2553.31958      -1.54278982    
   1.33877206     -0.266297996     -0.606999993       2553.31958      -1.54278982    
   1.84103203     -0.366203994     -0.606999993       2553.31958      -1.54278982    
   1.73421395     -0.718334973     -0.606999993       2422.94604      -1.50196290    
   2.40179110     -0.994853973     -0.517000020       2422.94604      -1.50196290    
   2.16155505      -1.44430494     -0.517000020       2422.94604      -1.50196290    
   1.56075203      -1.04286098     -0.606999993       2422.94604      -1.50196290    
   1.56075203      -1.04286098     -0.606999993       4184.85156      -1.54286301    
   1.13495600     -0.758352995     -0.606999993       4184.85156      -1.54286301    
   1.26109600     -0.522363007     -0.606999993       4184.85156      -1.54286301    