 VARIABLES="X" "Y" "Z" "abs(p) (Pa)" "angle(p) (rad)"
ZONE N=   2709,E =    2358, F=FEPOINT, ET=QUADRILATERAL
   0.00000000      -5.48999977     -0.157000005      0.238287032      -1.56565225    
   0.00000000      -4.76741982     -0.246999994      0.238287032      -1.56565225    
  0.930077016      -4.67581606     -0.246999994      0.238287032      -1.56565225    
   1.07104599      -5.38451099     -0.157000005      0.238287032      -1.56565225    
  -1.07104599      -5.38451099     -0.157000005      0.226122648       1.56535327    
 -0.930077016      -4.67581606     -0.246999994      0.226122648       1.56535327    
   0.00000000      -4.76741982     -0.246999994      0.226122648       1.56535327    
   0.00000000      -5.48999977     -0.157000005      0.226122648       1.56535327    
  -2.10093188      -5.07209921     -0.157000005      0.448454201       1.56803954    
  -1.82441294      -4.40452194     -0.246999994      0.448454201       1.56803954    
 -0.930077016      -4.67581606     -0.246999994      0.448454201       1.56803954    
  -1.07104599      -5.38451099     -0.157000005      0.448454201       1.56803954    
  -3.05008101      -4.56476784     -0.157000005      0.156872764       1.56288707    
  -2.64863706      -3.96396494     -0.246999994      0.156872764       1.56288707    
  -1.82441294      -4.40452194     -0.246999994      0.156872764       1.56288707    
  -2.10093188      -5.07209921     -0.157000005      0.156872764       1.56288707    
  -3.88201594      -3.88201594     -0.157000005      0.364544868      -1.56738400    
  -3.37107491      -3.37107491     -0.246999994      0.364544868      -1.56738400    
  -2.64863706      -3.96396494     -0.246999994      0.364544868      -1.56738400    
  -3.05008101      -4.56476784     -0.157000005      0.364544868      -1.56738400    
  -4.56476784      -3.05008101     -0.157000005      0.682280242      -1.56896639    
  -3.96396494      -2.64863706     -0.246999994      0.682280242      -1.56896639    
  -3.37107491      -3.37107491     -0.246999994      0.682280242      -1.56896639    
  -3.88201594      -3.88201594     -0.157000005      0.682280242      -1.56896639    
  -5.07209921      -2.10093188     -0.157000005      0.632095277      -1.56881595    
  -4.40452194      -1.82441294     -0.246999994      0.632095277      -1.56881595    
  -3.96396494      -2.64863706     -0.246999994      0.632095277      -1.56881595    
  -4.56476784      -3.05008101     -0.157000005      0.632095277      -1.56881595    
  -5.38451099      -1.07104599     -0.157000005      0.473155856      -1.56815088    
  -4.67581606     -0.930077016     -0.246999994      0.473155856      -1.56815088    
  -4.40452194      -1.82441294     -0.246999994      0.473155856      -1.56815088    
  -5.07209921      -2.10093188     -0.157000005      0.473155856      -1.56815088    
  -5.48999977       0.00000000     -0.157000005      0.512822151      -1.56834948    
  -4.76741982       0.00000000     -0.246999994      0.512822151      -1.56834948    
  -4.67581606     -0.930077016     -0.246999994      0.512822151      -1.56834948    
  -5.38451099      -1.07104599     -0.157000005      0.512822151      -1.56834948    
  -5.38451099       1.07104599     -0.157000005      0.679047883      -1.56894970    
  -4.67581606      0.930077016     -0.246999994      0.679047883      -1.56894970    
  -4.76741982       0.00000000     -0.246999994      0.679047883      -1.56894970    
  -5.48999977       0.00000000     -0.157000005      0.679047883      -1.56894970    
  -5.07209921       2.10093188     -0.157000005      0.661426663      -1.56889987    
  -4.40452194       1.82441294     -0.246999994      0.661426663      -1.56889987    
  -4.67581606      0.930077016     -0.246999994      0.661426663      -1.56889987    
  -5.38451099       1.07104599     -0.157000005      0.661426663      -1.56889987    
  -4.56476784       3.05008101     -0.157000005      0.307449847      -1.56672966    
  -3.96396494       2.64863706     -0.246999994      0.307449847      -1.56672966    
  -4.40452194       1.82441294     -0.246999994      0.307449847      -1.56672966    
  -5.07209921       2.10093188     -0.157000005      0.307449847      -1.56672966    
  -3.88201594       3.88201594     -0.157000005       8.16993713E-02   1.55551207    
  -3.37107491       3.37107491     -0.246999994       8.16993713E-02   1.55551207    
  -3.96396494       2.64863706     -0.246999994       8.16993713E-02   1.55551207    
  -4.56476784       3.05008101     -0.157000005       8.16993713E-02   1.55551207    
  -3.05008101       4.56476784     -0.157000005      0.146108896       1.56227791    
  -2.64863706       3.96396494     -0.246999994      0.146108896       1.56227791    
  -3.37107491       3.37107491     -0.246999994      0.146108896       1.56227791    
  -3.88201594       3.88201594     -0.157000005      0.146108896       1.56227791    
  -2.10093188       5.07209921     -0.157000005      0.175112307      -1.56370127    
  -1.82441294       4.40452194     -0.246999994      0.175112307      -1.56370127    
  -2.64863706       3.96396494     -0.246999994      0.175112307      -1.56370127    
  -3.05008101       4.56476784     -0.157000005      0.175112307      -1.56370127    
  -1.07104599       5.38451099     -0.157000005      0.419596076      -1.56784904    
 -0.930077016       4.67581606     -0.246999994      0.419596076      -1.56784904    
  -1.82441294       4.40452194     -0.246999994      0.419596076      -1.56784904    
  -2.10093188       5.07209921     -0.157000005      0.419596076      -1.56784904    
   0.00000000       5.48999977     -0.157000005      0.219302714      -1.56517637    
   0.00000000       4.76741982     -0.246999994      0.219302714      -1.56517637    
 -0.930077016       4.67581606     -0.246999994      0.219302714      -1.56517637    
  -1.07104599       5.38451099     -0.157000005      0.219302714      -1.56517637    
   1.07104599       5.38451099     -0.157000005      0.168214872       1.56350791    
  0.930077016       4.67581606     -0.246999994      0.168214872       1.56350791    
   0.00000000       4.76741982     -0.246999994      0.168214872       1.56350791    
   0.00000000       5.48999977     -0.157000005      0.168214872       1.56350791    
   2.10093188       5.07209921     -0.157000005      0.363323390       1.56743228    
   1.82441294       4.40452194     -0.246999994      0.363323390       1.56743228    
  0.930077016       4.67581606     -0.246999994      0.363323390       1.56743228    
   1.07104599       5.38451099     -0.157000005      0.363323390       1.56743228    
   3.05008101       4.56476784     -0.157000005      0.117084645       1.56040406    
   2.64863706       3.96396494     -0.246999994      0.117084645       1.56040406    
   1.82441294       4.40452194     -0.246999994      0.117084645       1.56040406    
   2.10093188       5.07209921     -0.157000005      0.117084645       1.56040406    
   3.88201594       3.88201594     -0.157000005      0.205807030      -1.56490326    
   3.37107491       3.37107491     -0.246999994      0.205807030      -1.56490326    
   2.64863706       3.96396494     -0.246999994      0.205807030      -1.56490326    
   3.05008101       4.56476784     -0.157000005      0.205807030      -1.56490326    
   4.56476784       3.05008101     -0.157000005      0.138321310      -1.56205511    
   3.96396494       2.64863706     -0.246999994      0.138321310      -1.56205511    
   3.37107491       3.37107491     -0.246999994      0.138321310      -1.56205511    
   3.88201594       3.88201594     -0.157000005      0.138321310      -1.56205511    
   5.07209921       2.10093188     -0.157000005      0.258398622       1.56612921    
   4.40452194       1.82441294     -0.246999994      0.258398622       1.56612921    
   3.96396494       2.64863706     -0.246999994      0.258398622       1.56612921    
   4.56476784       3.05008101     -0.157000005      0.258398622       1.56612921    
   5.38451099       1.07104599     -0.157000005      0.617132187       1.56884897    
   4.67581606      0.930077016     -0.246999994      0.617132187       1.56884897    
   4.40452194       1.82441294     -0.246999994      0.617132187       1.56884897    
   5.07209921       2.10093188     -0.157000005      0.617132187       1.56884897    
   5.48999977       0.00000000     -0.157000005      0.641689837       1.56892490    
   4.76741982       0.00000000     -0.246999994      0.641689837       1.56892490    
   4.67581606      0.930077016     -0.246999994      0.641689837       1.56892490    
   5.38451099       1.07104599     -0.157000005      0.641689837       1.56892490    
   5.38451099      -1.07104599     -0.157000005      0.482234746       1.56830335    
   4.67581606     -0.930077016     -0.246999994      0.482234746       1.56830335    
   4.76741982       0.00000000     -0.246999994      0.482234746       1.56830335    
   5.48999977       0.00000000     -0.157000005      0.482234746       1.56830335    
   5.07209921      -2.10093188     -0.157000005      0.450797647       1.56812561    
   4.40452194      -1.82441294     -0.246999994      0.450797647       1.56812561    
   4.67581606     -0.930077016     -0.246999994      0.450797647       1.56812561    
   5.38451099      -1.07104599     -0.157000005      0.450797647       1.56812561    
   4.56476784      -3.05008101     -0.157000005      0.616434753       1.56884336    
   3.96396494      -2.64863706     -0.246999994      0.616434753       1.56884336    
   4.40452194      -1.82441294     -0.246999994      0.616434753       1.56884336    
   5.07209921      -2.10093188     -0.157000005      0.616434753       1.56884336    
   3.88201594      -3.88201594     -0.157000005      0.667687833       1.56898439    
   3.37107491      -3.37107491     -0.246999994      0.667687833       1.56898439    
   3.96396494      -2.64863706     -0.246999994      0.667687833       1.56898439    
   4.56476784      -3.05008101     -0.157000005      0.667687833       1.56898439    
   3.05008101      -4.56476784     -0.157000005      0.352108538       1.56735599    
   2.64863706      -3.96396494     -0.246999994      0.352108538       1.56735599    
   3.37107491      -3.37107491     -0.246999994      0.352108538       1.56735599    
   3.88201594      -3.88201594     -0.157000005      0.352108538       1.56735599    
   2.10093188      -5.07209921     -0.157000005      0.169964373      -1.56364644    
   1.82441294      -4.40452194     -0.246999994      0.169964373      -1.56364644    
   2.64863706      -3.96396494     -0.246999994      0.169964373      -1.56364644    
   3.05008101      -4.56476784     -0.157000005      0.169964373      -1.56364644    
   1.07104599      -5.38451099     -0.157000005      0.460012972      -1.56814504    
  0.930077016      -4.67581606     -0.246999994      0.460012972      -1.56814504    
   1.82441294      -4.40452194     -0.246999994      0.460012972      -1.56814504    
   2.10093188      -5.07209921     -0.157000005      0.460012972      -1.56814504    
   0.00000000      -1.87709999     -0.606999993      0.534752011      -1.56851685    
   0.00000000      -1.36500001     -0.606999993      0.534752011      -1.56851685    
  0.266297996      -1.33877206     -0.606999993      0.534752011      -1.56851685    
  0.366203994      -1.84103203     -0.606999993      0.534752011      -1.56851685    
   0.00000000      -1.87709999     -0.606999993       1.06672311       1.56965649    
   0.00000000      -2.59967995     -0.517000020       1.06672311       1.56965649    
 -0.507171988      -2.54972792     -0.517000020       1.06672311       1.56965649    
 -0.366203994      -1.84103203     -0.606999993       1.06672311       1.56965649    
 -0.366203994      -1.84103203     -0.606999993      0.273855805       1.56635416    
 -0.266297996      -1.33877206     -0.606999993      0.273855805       1.56635416    
   0.00000000      -1.36500001     -0.606999993      0.273855805       1.56635416    
   0.00000000      -1.87709999     -0.606999993      0.273855805       1.56635416    
 -0.366203994      -1.84103203     -0.606999993       2.06547523       1.57020569    
 -0.507171988      -2.54972792     -0.517000020       2.06547523       1.57020569    
 -0.994853973      -2.40179110     -0.517000020       2.06547523       1.57020569    
 -0.718334973      -1.73421395     -0.606999993       2.06547523       1.57020569    
 -0.718334973      -1.73421395     -0.606999993      0.567176044       1.56864953    
 -0.522363007      -1.26109600     -0.606999993      0.567176044       1.56864953    
 -0.266297996      -1.33877206     -0.606999993      0.567176044       1.56864953    
 -0.366203994      -1.84103203     -0.606999993      0.567176044       1.56864953    
 -0.718334973      -1.73421395     -0.606999993      0.644990921       1.56890273    
 -0.994853973      -2.40179110     -0.517000020      0.644990921       1.56890273    
  -1.44430494      -2.16155505     -0.517000020      0.644990921       1.56890273    
  -1.04286098      -1.56075203     -0.606999993      0.644990921       1.56890273    
  -1.04286098      -1.56075203     -0.606999993      0.121934682      -1.56077707    
 -0.758352995      -1.13495600     -0.606999993      0.121934682      -1.56077707    
 -0.522363007      -1.26109600     -0.606999993      0.121934682      -1.56077707    
 -0.718334973      -1.73421395     -0.606999993      0.121934682      -1.56077707    
  -1.04286098      -1.56075203     -0.606999993       1.70387936      -1.57007718    
  -1.44430494      -2.16155505     -0.517000020       1.70387936      -1.57007718    
  -1.83825099      -1.83825099     -0.517000020       1.70387936      -1.57007718    
  -1.32730997      -1.32730997     -0.606999993       1.70387936      -1.57007718    
  -1.32730997      -1.32730997     -0.606999993       1.19218135      -1.56976938    
 -0.965201020     -0.965201020     -0.606999993       1.19218135      -1.56976938    
 -0.758352995      -1.13495600     -0.606999993       1.19218135      -1.56976938    
  -1.04286098      -1.56075203     -0.606999993       1.19218135      -1.56976938    
  -1.32730997      -1.32730997     -0.606999993       2.65509820      -1.57033336    
  -1.83825099      -1.83825099     -0.517000020       2.65509820      -1.57033336    
  -2.16155505      -1.44430494     -0.517000020       2.65509820      -1.57033336    
  -1.56075203      -1.04286098     -0.606999993       2.65509820      -1.57033336    
  -1.56075203      -1.04286098     -0.606999993       1.66836953      -1.57006216    
  -1.13495600     -0.758352995     -0.606999993       1.66836953      -1.57006216    
 -0.965201020     -0.965201020     -0.606999993       1.66836953      -1.57006216    
  -1.32730997      -1.32730997     -0.606999993       1.66836953      -1.57006216    
  -1.56075203      -1.04286098     -0.606999993       1.56774640      -1.57001269    
  -2.16155505      -1.44430494     -0.517000020       1.56774640      -1.57001269    
  -2.40179110     -0.994853973     -0.517000020       1.56774640      -1.57001269    
  -1.73421395     -0.718334973     -0.606999993       1.56774640      -1.57001269    
  -1.73421395     -0.718334973     -0.606999993       1.24140024      -1.56980920    
  -1.26109600     -0.522363007     -0.606999993       1.24140024      -1.56980920    
  -1.13495600     -0.758352995     -0.606999993       1.24140024      -1.56980920    
  -1.56075203      -1.04286098     -0.606999993       1.24140024      -1.56980920    
  -1.73421395     -0.718334973     -0.606999993       9.27491337E-02  -1.55753469    
  -2.40179110     -0.994853973     -0.517000020       9.27491337E-02  -1.55753469    
  -2.54972792     -0.507171988     -0.517000020       9.27491337E-02  -1.55753469    
  -1.84103203     -0.366203994     -0.606999993       9.27491337E-02  -1.55753469    
  -1.84103203     -0.366203994     -0.606999993      0.527408719      -1.56847823    
  -1.33877206     -0.266297996     -0.606999993      0.527408719      -1.56847823    
  -1.26109600     -0.522363007     -0.606999993      0.527408719      -1.56847823    
  -1.73421395     -0.718334973     -0.606999993      0.527408719      -1.56847823    
  -1.84103203     -0.366203994     -0.606999993       5.69518991E-02  -1.54921496    
  -2.54972792     -0.507171988     -0.517000020       5.69518991E-02  -1.54921496    
  -2.59967995       0.00000000     -0.517000020       5.69518991E-02  -1.54921496    
  -1.87709999       0.00000000     -0.606999993       5.69518991E-02  -1.54921496    
  -1.87709999       0.00000000     -0.606999993      0.240167618      -1.56569624    
  -1.36500001       0.00000000     -0.606999993      0.240167618      -1.56569624    
  -1.33877206     -0.266297996     -0.606999993      0.240167618      -1.56569624    
  -1.84103203     -0.366203994     -0.606999993      0.240167618      -1.56569624    
  -1.87709999       0.00000000     -0.606999993       1.16999662      -1.56974542    
  -2.59967995       0.00000000     -0.517000020       1.16999662      -1.56974542    
  -2.54972792      0.507171988     -0.517000020       1.16999662      -1.56974542    
  -1.84103203      0.366203994     -0.606999993       1.16999662      -1.56974542    
  -1.84103203      0.366203994     -0.606999993      0.342870742      -1.56722069    
  -1.33877206      0.266297996     -0.606999993      0.342870742      -1.56722069    
  -1.36500001       0.00000000     -0.606999993      0.342870742      -1.56722069    
  -1.87709999       0.00000000     -0.606999993      0.342870742      -1.56722069    
  -1.84103203      0.366203994     -0.606999993       1.48005533      -1.56996524    
  -2.54972792      0.507171988     -0.517000020       1.48005533      -1.56996524    
  -2.40179110      0.994853973     -0.517000020       1.48005533      -1.56996524    
  -1.73421395      0.718334973     -0.606999993       1.48005533      -1.56996524    
  -1.73421395      0.718334973     -0.606999993      0.193851396      -1.56446552    
  -1.26109600      0.522363007     -0.606999993      0.193851396      -1.56446552    
  -1.33877206      0.266297996     -0.606999993      0.193851396      -1.56446552    
  -1.84103203      0.366203994     -0.606999993      0.193851396      -1.56446552    
  -1.73421395      0.718334973     -0.606999993       4.81232516E-02  -1.54524040    
  -2.40179110      0.994853973     -0.517000020       4.81232516E-02  -1.54524040    
  -2.16155505       1.44430494     -0.517000020       4.81232516E-02  -1.54524040    
  -1.56075203       1.04286098     -0.606999993       4.81232516E-02  -1.54524040    
  -1.56075203       1.04286098     -0.606999993      0.484793007       1.56827068    
  -1.13495600      0.758352995     -0.606999993      0.484793007       1.56827068    
  -1.26109600      0.522363007     -0.606999993      0.484793007       1.56827068    
  -1.73421395      0.718334973     -0.606999993      0.484793007       1.56827068    
  -1.56075203       1.04286098     -0.606999993       1.65254700       1.57005417    
  -2.16155505       1.44430494     -0.517000020       1.65254700       1.57005417    
  -1.83825099       1.83825099     -0.517000020       1.65254700       1.57005417    
  -1.32730997       1.32730997     -0.606999993       1.65254700       1.57005417    
  -1.32730997       1.32730997     -0.606999993       1.14685214       1.56972980    
 -0.965201020      0.965201020     -0.606999993       1.14685214       1.56972980    
  -1.13495600      0.758352995     -0.606999993       1.14685214       1.56972980    
  -1.56075203       1.04286098     -0.606999993       1.14685214       1.56972980    
  -1.32730997       1.32730997     -0.606999993       1.58653462       1.57002556    
  -1.83825099       1.83825099     -0.517000020       1.58653462       1.57002556    
  -1.44430494       2.16155505     -0.517000020       1.58653462       1.57002556    
  -1.04286098       1.56075203     -0.606999993       1.58653462       1.57002556    
  -1.04286098       1.56075203     -0.606999993       1.05979073       1.56964278    
 -0.758352995       1.13495600     -0.606999993       1.05979073       1.56964278    
 -0.965201020      0.965201020     -0.606999993       1.05979073       1.56964278    
  -1.32730997       1.32730997     -0.606999993       1.05979073       1.56964278    
  -1.04286098       1.56075203     -0.606999993      0.206929296      -1.56488919    
  -1.44430494       2.16155505     -0.517000020      0.206929296      -1.56488919    
 -0.994853973       2.40179110     -0.517000020      0.206929296      -1.56488919    
 -0.718334973       1.73421395     -0.606999993      0.206929296      -1.56488919    
 -0.718334973       1.73421395     -0.606999993      0.274523497       1.56634486    
 -0.522363007       1.26109600     -0.606999993      0.274523497       1.56634486    
 -0.758352995       1.13495600     -0.606999993      0.274523497       1.56634486    
  -1.04286098       1.56075203     -0.606999993      0.274523497       1.56634486    
 -0.718334973       1.73421395     -0.606999993       1.60151172      -1.57003260    
 -0.994853973       2.40179110     -0.517000020       1.60151172      -1.57003260    
 -0.507171988       2.54972792     -0.517000020       1.60151172      -1.57003260    
 -0.366203994       1.84103203     -0.606999993       1.60151172      -1.57003260    
 -0.366203994       1.84103203     -0.606999993      0.401025832      -1.56775057    
 -0.266297996       1.33877206     -0.606999993      0.401025832      -1.56775057    
 -0.522363007       1.26109600     -0.606999993      0.401025832      -1.56775057    
 -0.718334973       1.73421395     -0.606999993      0.401025832      -1.56775057    
 -0.366203994       1.84103203     -0.606999993      0.958538473      -1.56952357    
 -0.507171988       2.54972792     -0.517000020      0.958538473      -1.56952357    
   0.00000000       2.59967995     -0.517000020      0.958538473      -1.56952357    
   0.00000000       1.87709999     -0.606999993      0.958538473      -1.56952357    
   0.00000000       1.87709999     -0.606999993      0.333831280      -1.56714129    
   0.00000000       1.36500001     -0.606999993      0.333831280      -1.56714129    
 -0.266297996       1.33877206     -0.606999993      0.333831280      -1.56714129    
 -0.366203994       1.84103203     -0.606999993      0.333831280      -1.56714129    
   0.00000000       1.87709999     -0.606999993      0.838448703       1.56934762    
   0.00000000       2.59967995     -0.517000020      0.838448703       1.56934762    
  0.507171988       2.54972792     -0.517000020      0.838448703       1.56934762    
  0.366203994       1.84103203     -0.606999993      0.838448703       1.56934762    
  0.366203994       1.84103203     -0.606999993      0.154373392       1.56290424    
  0.266297996       1.33877206     -0.606999993      0.154373392       1.56290424    
   0.00000000       1.36500001     -0.606999993      0.154373392       1.56290424    
   0.00000000       1.87709999     -0.606999993      0.154373392       1.56290424    
  0.366203994       1.84103203     -0.606999993       1.47867846       1.56997621    
  0.507171988       2.54972792     -0.517000020       1.47867846       1.56997621    
  0.994853973       2.40179110     -0.517000020       1.47867846       1.56997621    
  0.718334973       1.73421395     -0.606999993       1.47867846       1.56997621    
  0.718334973       1.73421395     -0.606999993      0.217877850       1.56521749    
  0.522363007       1.26109600     -0.606999993      0.217877850       1.56521749    
  0.266297996       1.33877206     -0.606999993      0.217877850       1.56521749    
  0.366203994       1.84103203     -0.606999993      0.217877850       1.56521749    
  0.718334973       1.73421395     -0.606999993       7.70891309E-02   1.55505514    
  0.994853973       2.40179110     -0.517000020       7.70891309E-02   1.55505514    
   1.44430494       2.16155505     -0.517000020       7.70891309E-02   1.55505514    
   1.04286098       1.56075203     -0.606999993       7.70891309E-02   1.55505514    
   1.04286098       1.56075203     -0.606999993      0.461755097      -1.56816411    
  0.758352995       1.13495600     -0.606999993      0.461755097      -1.56816411    
  0.522363007       1.26109600     -0.606999993      0.461755097      -1.56816411    
  0.718334973       1.73421395     -0.606999993      0.461755097      -1.56816411    
   1.04286098       1.56075203     -0.606999993       1.72544265      -1.57009304    
   1.44430494       2.16155505     -0.517000020       1.72544265      -1.57009304    
   1.83825099       1.83825099     -0.517000020       1.72544265      -1.57009304    
   1.32730997       1.32730997     -0.606999993       1.72544265      -1.57009304    
   1.32730997       1.32730997     -0.606999993       1.24941945      -1.56982231    
  0.965201020      0.965201020     -0.606999993       1.24941945      -1.56982231    
  0.758352995       1.13495600     -0.606999993       1.24941945      -1.56982231    
   1.04286098       1.56075203     -0.606999993       1.24941945      -1.56982231    
   1.32730997       1.32730997     -0.606999993       1.79598534      -1.57012308    
   1.83825099       1.83825099     -0.517000020       1.79598534      -1.57012308    
   2.16155505       1.44430494     -0.517000020       1.79598534      -1.57012308    
   1.56075203       1.04286098     -0.606999993       1.79598534      -1.57012308    
   1.56075203       1.04286098     -0.606999993       1.33345139      -1.56988430    
   1.13495600      0.758352995     -0.606999993       1.33345139      -1.56988430    
  0.965201020      0.965201020     -0.606999993       1.33345139      -1.56988430    
   1.32730997       1.32730997     -0.606999993       1.33345139      -1.56988430    
   1.56075203       1.04286098     -0.606999993       8.90608951E-02  -1.55723464    
   2.16155505       1.44430494     -0.517000020       8.90608951E-02  -1.55723464    
   2.40179110      0.994853973     -0.517000020       8.90608951E-02  -1.55723464    
   1.73421395      0.718334973     -0.606999993       8.90608951E-02  -1.55723464    
   1.73421395      0.718334973     -0.606999993      0.664933920      -1.56897068    
   1.26109600      0.522363007     -0.606999993      0.664933920      -1.56897068    
   1.13495600      0.758352995     -0.606999993      0.664933920      -1.56897068    
   1.56075203       1.04286098     -0.606999993      0.664933920      -1.56897068    
   1.73421395      0.718334973     -0.606999993       1.35587537       1.56990778    
   2.40179110      0.994853973     -0.517000020       1.35587537       1.56990778    
   2.54972792      0.507171988     -0.517000020       1.35587537       1.56990778    
   1.84103203      0.366203994     -0.606999993       1.35587537       1.56990778    
   1.84103203      0.366203994     -0.606999993       2.18885988E-02   1.51545000    
   1.33877206      0.266297996     -0.606999993       2.18885988E-02   1.51545000    
   1.26109600      0.522363007     -0.606999993       2.18885988E-02   1.51545000    
   1.73421395      0.718334973     -0.606999993       2.18885988E-02   1.51545000    
   1.84103203      0.366203994     -0.606999993       1.05913913       1.56965661    
   2.54972792      0.507171988     -0.517000020       1.05913913       1.56965661    
   2.59967995       0.00000000     -0.517000020       1.05913913       1.56965661    
   1.87709999       0.00000000     -0.606999993       1.05913913       1.56965661    
   1.87709999       0.00000000     -0.606999993      0.177693143       1.56397200    
   1.36500001       0.00000000     -0.606999993      0.177693143       1.56397200    
   1.33877206      0.266297996     -0.606999993      0.177693143       1.56397200    
   1.84103203      0.366203994     -0.606999993      0.177693143       1.56397200    
   1.87709999       0.00000000     -0.606999993       4.40925583E-02  -1.54339159    
   2.59967995       0.00000000     -0.517000020       4.40925583E-02  -1.54339159    
   2.54972792     -0.507171988     -0.517000020       4.40925583E-02  -1.54339159    
   1.84103203     -0.366203994     -0.606999993       4.40925583E-02  -1.54339159    
   1.84103203     -0.366203994     -0.606999993       7.91878328E-02   1.55547118    
   1.33877206     -0.266297996     -0.606999993       7.91878328E-02   1.55547118    
   1.36500001       0.00000000     -0.606999993       7.91878328E-02   1.55547118    
   1.87709999       0.00000000     -0.606999993       7.91878328E-02   1.55547118    
   1.84103203     -0.366203994     -0.606999993       1.20816950E-03  -6.90285489E-02
   2.54972792     -0.507171988     -0.517000020       1.20816950E-03  -6.90285489E-02
   2.40179110     -0.994853973     -0.517000020       1.20816950E-03  -6.90285489E-02
   1.73421395     -0.718334973     -0.606999993       1.20816950E-03  -6.90285489E-02
   1.73421395     -0.718334973     -0.606999993      0.364290714       1.56745923    
   1.26109600     -0.522363007     -0.606999993      0.364290714       1.56745923    
   1.33877206     -0.266297996     -0.606999993      0.364290714       1.56745923    
   1.84103203     -0.366203994     -0.606999993      0.364290714       1.56745923    
   1.73421395     -0.718334973     -0.606999993       1.47857463       1.56997907    
   2.40179110     -0.994853973     -0.517000020       1.47857463       1.56997907    
   2.16155505      -1.44430494     -0.517000020       1.47857463       1.56997907    
   1.56075203      -1.04286098     -0.606999993       1.47857463       1.56997907    
   1.56075203      -1.04286098     -0.606999993       1.06643212       1.56965935    
   1.13495600     -0.758352995     -0.606999993       1.06643212       1.56965935    
   1.26109600     -0.522363007     -0.606999993       1.06643212       1.56965935    