 VARIABLES="X" "Y" "Z" "abs(p) (Pa)" "angle(p) (rad)"
ZONE N=   2709,E =    2358, F=FEPOINT, ET=QUADRILATERAL
   0.00000000      -5.48999977     -0.157000005       16.4450607      -1.51881921    
   0.00000000      -4.76741982     -0.246999994       16.4450607      -1.51881921    
  0.930077016      -4.67581606     -0.246999994       16.4450607      -1.51881921    
   1.07104599      -5.38451099     -0.157000005       16.4450607      -1.51881921    
  -1.07104599      -5.38451099     -0.157000005       16.4448147      -1.52082241    
 -0.930077016      -4.67581606     -0.246999994       16.4448147      -1.52082241    
   0.00000000      -4.76741982     -0.246999994       16.4448147      -1.52082241    
   0.00000000      -5.48999977     -0.157000005       16.4448147      -1.52082241    
  -2.10093188      -5.07209921     -0.157000005       16.8311195      -1.51041162    
  -1.82441294      -4.40452194     -0.246999994       16.8311195      -1.51041162    
 -0.930077016      -4.67581606     -0.246999994       16.8311195      -1.51041162    
  -1.07104599      -5.38451099     -0.157000005       16.8311195      -1.51041162    
  -3.05008101      -4.56476784     -0.157000005       16.6787910      -1.51120389    
  -2.64863706      -3.96396494     -0.246999994       16.6787910      -1.51120389    
  -1.82441294      -4.40452194     -0.246999994       16.6787910      -1.51120389    
  -2.10093188      -5.07209921     -0.157000005       16.6787910      -1.51120389    
  -3.88201594      -3.88201594     -0.157000005       16.7407455      -1.51398492    
  -3.37107491      -3.37107491     -0.246999994       16.7407455      -1.51398492    
  -2.64863706      -3.96396494     -0.246999994       16.7407455      -1.51398492    
  -3.05008101      -4.56476784     -0.157000005       16.7407455      -1.51398492    
  -4.56476784      -3.05008101     -0.157000005       16.7286453      -1.51427662    
  -3.96396494      -2.64863706     -0.246999994       16.7286453      -1.51427662    
  -3.37107491      -3.37107491     -0.246999994       16.7286453      -1.51427662    
  -3.88201594      -3.88201594     -0.157000005       16.7286453      -1.51427662    
  -5.07209921      -2.10093188     -0.157000005       16.3266125      -1.52125001    
  -4.40452194      -1.82441294     -0.246999994       16.3266125      -1.52125001    
  -3.96396494      -2.64863706     -0.246999994       16.3266125      -1.52125001    
  -4.56476784      -3.05008101     -0.157000005       16.3266125      -1.52125001    
  -5.38451099      -1.07104599     -0.157000005       16.4081554      -1.51685214    
  -4.67581606     -0.930077016     -0.246999994       16.4081554      -1.51685214    
  -4.40452194      -1.82441294     -0.246999994       16.4081554      -1.51685214    
  -5.07209921      -2.10093188     -0.157000005       16.4081554      -1.51685214    
  -5.48999977       0.00000000     -0.157000005       16.6543255      -1.50915837    
  -4.76741982       0.00000000     -0.246999994       16.6543255      -1.50915837    
  -4.67581606     -0.930077016     -0.246999994       16.6543255      -1.50915837    
  -5.38451099      -1.07104599     -0.157000005       16.6543255      -1.50915837    
  -5.38451099       1.07104599     -0.157000005       16.6655312      -1.51056862    
  -4.67581606      0.930077016     -0.246999994       16.6655312      -1.51056862    
  -4.76741982       0.00000000     -0.246999994       16.6655312      -1.51056862    
  -5.48999977       0.00000000     -0.157000005       16.6655312      -1.51056862    
  -5.07209921       2.10093188     -0.157000005       16.4842453      -1.51283455    
  -4.40452194       1.82441294     -0.246999994       16.4842453      -1.51283455    
  -4.67581606      0.930077016     -0.246999994       16.4842453      -1.51283455    
  -5.38451099       1.07104599     -0.157000005       16.4842453      -1.51283455    
  -4.56476784       3.05008101     -0.157000005       16.2952881      -1.51446402    
  -3.96396494       2.64863706     -0.246999994       16.2952881      -1.51446402    
  -4.40452194       1.82441294     -0.246999994       16.2952881      -1.51446402    
  -5.07209921       2.10093188     -0.157000005       16.2952881      -1.51446402    
  -3.88201594       3.88201594     -0.157000005       16.2972031      -1.51886916    
  -3.37107491       3.37107491     -0.246999994       16.2972031      -1.51886916    
  -3.96396494       2.64863706     -0.246999994       16.2972031      -1.51886916    
  -4.56476784       3.05008101     -0.157000005       16.2972031      -1.51886916    
  -3.05008101       4.56476784     -0.157000005       16.6500225      -1.50939500    
  -2.64863706       3.96396494     -0.246999994       16.6500225      -1.50939500    
  -3.37107491       3.37107491     -0.246999994       16.6500225      -1.50939500    
  -3.88201594       3.88201594     -0.157000005       16.6500225      -1.50939500    
  -2.10093188       5.07209921     -0.157000005       16.4230728      -1.51290250    
  -1.82441294       4.40452194     -0.246999994       16.4230728      -1.51290250    
  -2.64863706       3.96396494     -0.246999994       16.4230728      -1.51290250    
  -3.05008101       4.56476784     -0.157000005       16.4230728      -1.51290250    
  -1.07104599       5.38451099     -0.157000005       16.5129833      -1.51020038    
 -0.930077016       4.67581606     -0.246999994       16.5129833      -1.51020038    
  -1.82441294       4.40452194     -0.246999994       16.5129833      -1.51020038    
  -2.10093188       5.07209921     -0.157000005       16.5129833      -1.51020038    
   0.00000000       5.48999977     -0.157000005       16.1550808      -1.52162719    
   0.00000000       4.76741982     -0.246999994       16.1550808      -1.52162719    
 -0.930077016       4.67581606     -0.246999994       16.1550808      -1.52162719    
  -1.07104599       5.38451099     -0.157000005       16.1550808      -1.52162719    
   1.07104599       5.38451099     -0.157000005       16.3085213      -1.51578689    
  0.930077016       4.67581606     -0.246999994       16.3085213      -1.51578689    
   0.00000000       4.76741982     -0.246999994       16.3085213      -1.51578689    
   0.00000000       5.48999977     -0.157000005       16.3085213      -1.51578689    
   2.10093188       5.07209921     -0.157000005       16.3803463      -1.51471806    
   1.82441294       4.40452194     -0.246999994       16.3803463      -1.51471806    
  0.930077016       4.67581606     -0.246999994       16.3803463      -1.51471806    
   1.07104599       5.38451099     -0.157000005       16.3803463      -1.51471806    
   3.05008101       4.56476784     -0.157000005       16.4401817      -1.51258826    
   2.64863706       3.96396494     -0.246999994       16.4401817      -1.51258826    
   1.82441294       4.40452194     -0.246999994       16.4401817      -1.51258826    
   2.10093188       5.07209921     -0.157000005       16.4401817      -1.51258826    
   3.88201594       3.88201594     -0.157000005       16.6252975      -1.50987256    
   3.37107491       3.37107491     -0.246999994       16.6252975      -1.50987256    
   2.64863706       3.96396494     -0.246999994       16.6252975      -1.50987256    
   3.05008101       4.56476784     -0.157000005       16.6252975      -1.50987256    
   4.56476784       3.05008101     -0.157000005       16.3824768      -1.51529098    
   3.96396494       2.64863706     -0.246999994       16.3824768      -1.51529098    
   3.37107491       3.37107491     -0.246999994       16.3824768      -1.51529098    
   3.88201594       3.88201594     -0.157000005       16.3824768      -1.51529098    
   5.07209921       2.10093188     -0.157000005       16.2929096      -1.51617217    
   4.40452194       1.82441294     -0.246999994       16.2929096      -1.51617217    
   3.96396494       2.64863706     -0.246999994       16.2929096      -1.51617217    
   4.56476784       3.05008101     -0.157000005       16.2929096      -1.51617217    
   5.38451099       1.07104599     -0.157000005       16.3443127      -1.51553047    
   4.67581606      0.930077016     -0.246999994       16.3443127      -1.51553047    
   4.40452194       1.82441294     -0.246999994       16.3443127      -1.51553047    
   5.07209921       2.10093188     -0.157000005       16.3443127      -1.51553047    
   5.48999977       0.00000000     -0.157000005       16.5419140      -1.51318252    
   4.76741982       0.00000000     -0.246999994       16.5419140      -1.51318252    
   4.67581606      0.930077016     -0.246999994       16.5419140      -1.51318252    
   5.38451099       1.07104599     -0.157000005       16.5419140      -1.51318252    
   5.38451099      -1.07104599     -0.157000005       16.5282478      -1.51309454    
   4.67581606     -0.930077016     -0.246999994       16.5282478      -1.51309454    
   4.76741982       0.00000000     -0.246999994       16.5282478      -1.51309454    
   5.48999977       0.00000000     -0.157000005       16.5282478      -1.51309454    
   5.07209921      -2.10093188     -0.157000005       16.4098816      -1.51549160    
   4.40452194      -1.82441294     -0.246999994       16.4098816      -1.51549160    
   4.67581606     -0.930077016     -0.246999994       16.4098816      -1.51549160    
   5.38451099      -1.07104599     -0.157000005       16.4098816      -1.51549160    
   4.56476784      -3.05008101     -0.157000005       16.3400650      -1.51979864    
   3.96396494      -2.64863706     -0.246999994       16.3400650      -1.51979864    
   4.40452194      -1.82441294     -0.246999994       16.3400650      -1.51979864    
   5.07209921      -2.10093188     -0.157000005       16.3400650      -1.51979864    
   3.88201594      -3.88201594     -0.157000005       16.5931988      -1.51902521    
   3.37107491      -3.37107491     -0.246999994       16.5931988      -1.51902521    
   3.96396494      -2.64863706     -0.246999994       16.5931988      -1.51902521    
   4.56476784      -3.05008101     -0.157000005       16.5931988      -1.51902521    
   3.05008101      -4.56476784     -0.157000005       16.8958359      -1.50847173    
   2.64863706      -3.96396494     -0.246999994       16.8958359      -1.50847173    
   3.37107491      -3.37107491     -0.246999994       16.8958359      -1.50847173    
   3.88201594      -3.88201594     -0.157000005       16.8958359      -1.50847173    
   2.10093188      -5.07209921     -0.157000005       16.6915455      -1.51167786    
   1.82441294      -4.40452194     -0.246999994       16.6915455      -1.51167786    
   2.64863706      -3.96396494     -0.246999994       16.6915455      -1.51167786    
   3.05008101      -4.56476784     -0.157000005       16.6915455      -1.51167786    
   1.07104599      -5.38451099     -0.157000005       16.7143860      -1.51453030    
  0.930077016      -4.67581606     -0.246999994       16.7143860      -1.51453030    
   1.82441294      -4.40452194     -0.246999994       16.7143860      -1.51453030    
   2.10093188      -5.07209921     -0.157000005       16.7143860      -1.51453030    
   0.00000000      -1.87709999     -0.606999993       551.226746       1.57433653    
   0.00000000      -1.36500001     -0.606999993       551.226746       1.57433653    
  0.266297996      -1.33877206     -0.606999993       551.226746       1.57433653    
  0.366203994      -1.84103203     -0.606999993       551.226746       1.57433653    
   0.00000000      -1.87709999     -0.606999993       1053.34180       1.57253659    
   0.00000000      -2.59967995     -0.517000020       1053.34180       1.57253659    
 -0.507171988      -2.54972792     -0.517000020       1053.34180       1.57253659    
 -0.366203994      -1.84103203     -0.606999993       1053.34180       1.57253659    
 -0.366203994      -1.84103203     -0.606999993       550.399170       1.57432365    
 -0.266297996      -1.33877206     -0.606999993       550.399170       1.57432365    
   0.00000000      -1.36500001     -0.606999993       550.399170       1.57432365    
   0.00000000      -1.87709999     -0.606999993       550.399170       1.57432365    
 -0.366203994      -1.84103203     -0.606999993       1047.91357       1.57264912    
 -0.507171988      -2.54972792     -0.517000020       1047.91357       1.57264912    
 -0.994853973      -2.40179110     -0.517000020       1047.91357       1.57264912    
 -0.718334973      -1.73421395     -0.606999993       1047.91357       1.57264912    
 -0.718334973      -1.73421395     -0.606999993       551.897705       1.57377851    
 -0.522363007      -1.26109600     -0.606999993       551.897705       1.57377851    
 -0.266297996      -1.33877206     -0.606999993       551.897705       1.57377851    
 -0.366203994      -1.84103203     -0.606999993       551.897705       1.57377851    
 -0.718334973      -1.73421395     -0.606999993       1040.83484       1.57272732    
 -0.994853973      -2.40179110     -0.517000020       1040.83484       1.57272732    
  -1.44430494      -2.16155505     -0.517000020       1040.83484       1.57272732    
  -1.04286098      -1.56075203     -0.606999993       1040.83484       1.57272732    
  -1.04286098      -1.56075203     -0.606999993       552.047180       1.57331359    
 -0.758352995      -1.13495600     -0.606999993       552.047180       1.57331359    
 -0.522363007      -1.26109600     -0.606999993       552.047180       1.57331359    
 -0.718334973      -1.73421395     -0.606999993       552.047180       1.57331359    
  -1.04286098      -1.56075203     -0.606999993       1038.63757       1.57261658    
  -1.44430494      -2.16155505     -0.517000020       1038.63757       1.57261658    
  -1.83825099      -1.83825099     -0.517000020       1038.63757       1.57261658    
  -1.32730997      -1.32730997     -0.606999993       1038.63757       1.57261658    
  -1.32730997      -1.32730997     -0.606999993       548.516113       1.57340574    
 -0.965201020     -0.965201020     -0.606999993       548.516113       1.57340574    
 -0.758352995      -1.13495600     -0.606999993       548.516113       1.57340574    
  -1.04286098      -1.56075203     -0.606999993       548.516113       1.57340574    
  -1.32730997      -1.32730997     -0.606999993       1042.22009       1.57238519    
  -1.83825099      -1.83825099     -0.517000020       1042.22009       1.57238519    
  -2.16155505      -1.44430494     -0.517000020       1042.22009       1.57238519    
  -1.56075203      -1.04286098     -0.606999993       1042.22009       1.57238519    
  -1.56075203      -1.04286098     -0.606999993       543.339172       1.57384598    
  -1.13495600     -0.758352995     -0.606999993       543.339172       1.57384598    
 -0.965201020     -0.965201020     -0.606999993       543.339172       1.57384598    
  -1.32730997      -1.32730997     -0.606999993       543.339172       1.57384598    
  -1.56075203      -1.04286098     -0.606999993       1048.67285       1.57223523    
  -2.16155505      -1.44430494     -0.517000020       1048.67285       1.57223523    
  -2.40179110     -0.994853973     -0.517000020       1048.67285       1.57223523    
  -1.73421395     -0.718334973     -0.606999993       1048.67285       1.57223523    
  -1.73421395     -0.718334973     -0.606999993       541.580017       1.57396758    
  -1.26109600     -0.522363007     -0.606999993       541.580017       1.57396758    
  -1.13495600     -0.758352995     -0.606999993       541.580017       1.57396758    
  -1.56075203      -1.04286098     -0.606999993       541.580017       1.57396758    
  -1.73421395     -0.718334973     -0.606999993       1057.21716       1.57223904    
  -2.40179110     -0.994853973     -0.517000020       1057.21716       1.57223904    
  -2.54972792     -0.507171988     -0.517000020       1057.21716       1.57223904    
  -1.84103203     -0.366203994     -0.606999993       1057.21716       1.57223904    
  -1.84103203     -0.366203994     -0.606999993       546.470093       1.57346964    
  -1.33877206     -0.266297996     -0.606999993       546.470093       1.57346964    
  -1.26109600     -0.522363007     -0.606999993       546.470093       1.57346964    
  -1.73421395     -0.718334973     -0.606999993       546.470093       1.57346964    
  -1.84103203     -0.366203994     -0.606999993       1066.43701       1.57232630    
  -2.54972792     -0.507171988     -0.517000020       1066.43701       1.57232630    
  -2.59967995       0.00000000     -0.517000020       1066.43701       1.57232630    
  -1.87709999       0.00000000     -0.606999993       1066.43701       1.57232630    
  -1.87709999       0.00000000     -0.606999993       555.883972       1.57287836    
  -1.36500001       0.00000000     -0.606999993       555.883972       1.57287836    
  -1.33877206     -0.266297996     -0.606999993       555.883972       1.57287836    
  -1.84103203     -0.366203994     -0.606999993       555.883972       1.57287836    
  -1.87709999       0.00000000     -0.606999993       1074.63184       1.57242560    
  -2.59967995       0.00000000     -0.517000020       1074.63184       1.57242560    
  -2.54972792      0.507171988     -0.517000020       1074.63184       1.57242560    
  -1.84103203      0.366203994     -0.606999993       1074.63184       1.57242560    
  -1.84103203      0.366203994     -0.606999993       564.599365       1.57292569    
  -1.33877206      0.266297996     -0.606999993       564.599365       1.57292569    
  -1.36500001       0.00000000     -0.606999993       564.599365       1.57292569    
  -1.87709999       0.00000000     -0.606999993       564.599365       1.57292569    
  -1.84103203      0.366203994     -0.606999993       1079.52820       1.57251763    
  -2.54972792      0.507171988     -0.517000020       1079.52820       1.57251763    
  -2.40179110      0.994853973     -0.517000020       1079.52820       1.57251763    
  -1.73421395      0.718334973     -0.606999993       1079.52820       1.57251763    
  -1.73421395      0.718334973     -0.606999993       569.593689       1.57365167    
  -1.26109600      0.522363007     -0.606999993       569.593689       1.57365167    
  -1.33877206      0.266297996     -0.606999993       569.593689       1.57365167    
  -1.84103203      0.366203994     -0.606999993       569.593689       1.57365167    
  -1.73421395      0.718334973     -0.606999993       1079.29504       1.57260180    
  -2.40179110      0.994853973     -0.517000020       1079.29504       1.57260180    
  -2.16155505       1.44430494     -0.517000020       1079.29504       1.57260180    
  -1.56075203       1.04286098     -0.606999993       1079.29504       1.57260180    
  -1.56075203       1.04286098     -0.606999993       571.868347       1.57433808    
  -1.13495600      0.758352995     -0.606999993       571.868347       1.57433808    
  -1.26109600      0.522363007     -0.606999993       571.868347       1.57433808    
  -1.73421395      0.718334973     -0.606999993       571.868347       1.57433808    
  -1.56075203       1.04286098     -0.606999993       1074.76929       1.57267606    
  -2.16155505       1.44430494     -0.517000020       1074.76929       1.57267606    
  -1.83825099       1.83825099     -0.517000020       1074.76929       1.57267606    
  -1.32730997       1.32730997     -0.606999993       1074.76929       1.57267606    
  -1.32730997       1.32730997     -0.606999993       572.972900       1.57431901    
 -0.965201020      0.965201020     -0.606999993       572.972900       1.57431901    
  -1.13495600      0.758352995     -0.606999993       572.972900       1.57431901    
  -1.56075203       1.04286098     -0.606999993       572.972900       1.57431901    
  -1.32730997       1.32730997     -0.606999993       1066.83691       1.57271504    
  -1.83825099       1.83825099     -0.517000020       1066.83691       1.57271504    
  -1.44430494       2.16155505     -0.517000020       1066.83691       1.57271504    
  -1.04286098       1.56075203     -0.606999993       1066.83691       1.57271504    
  -1.04286098       1.56075203     -0.606999993       571.472656       1.57372344    
 -0.758352995       1.13495600     -0.606999993       571.472656       1.57372344    
 -0.965201020      0.965201020     -0.606999993       571.472656       1.57372344    
  -1.32730997       1.32730997     -0.606999993       571.472656       1.57372344    
  -1.04286098       1.56075203     -0.606999993       1058.74768       1.57264912    
  -1.44430494       2.16155505     -0.517000020       1058.74768       1.57264912    
 -0.994853973       2.40179110     -0.517000020       1058.74768       1.57264912    
 -0.718334973       1.73421395     -0.606999993       1058.74768       1.57264912    
 -0.718334973       1.73421395     -0.606999993       565.404602       1.57324231    
 -0.522363007       1.26109600     -0.606999993       565.404602       1.57324231    
 -0.758352995       1.13495600     -0.606999993       565.404602       1.57324231    
  -1.04286098       1.56075203     -0.606999993       565.404602       1.57324231    
 -0.718334973       1.73421395     -0.606999993       1053.93176       1.57246935    
 -0.994853973       2.40179110     -0.517000020       1053.93176       1.57246935    
 -0.507171988       2.54972792     -0.517000020       1053.93176       1.57246935    
 -0.366203994       1.84103203     -0.606999993       1053.93176       1.57246935    
 -0.366203994       1.84103203     -0.606999993       556.315613       1.57328832    
 -0.266297996       1.33877206     -0.606999993       556.315613       1.57328832    
 -0.522363007       1.26109600     -0.606999993       556.315613       1.57328832    
 -0.718334973       1.73421395     -0.606999993       556.315613       1.57328832    
 -0.366203994       1.84103203     -0.606999993       1052.04419       1.57230711    
 -0.507171988       2.54972792     -0.517000020       1052.04419       1.57230711    
   0.00000000       2.59967995     -0.517000020       1052.04419       1.57230711    
   0.00000000       1.87709999     -0.606999993       1052.04419       1.57230711    
   0.00000000       1.87709999     -0.606999993       549.715881       1.57357824    
   0.00000000       1.36500001     -0.606999993       549.715881       1.57357824    
 -0.266297996       1.33877206     -0.606999993       549.715881       1.57357824    
 -0.366203994       1.84103203     -0.606999993       549.715881       1.57357824    
   0.00000000       1.87709999     -0.606999993       1052.97852       1.57230949    
   0.00000000       2.59967995     -0.517000020       1052.97852       1.57230949    
  0.507171988       2.54972792     -0.517000020       1052.97852       1.57230949    
  0.366203994       1.84103203     -0.606999993       1052.97852       1.57230949    
  0.366203994       1.84103203     -0.606999993       550.656799       1.57358849    
  0.266297996       1.33877206     -0.606999993       550.656799       1.57358849    
   0.00000000       1.36500001     -0.606999993       550.656799       1.57358849    
   0.00000000       1.87709999     -0.606999993       550.656799       1.57358849    
  0.366203994       1.84103203     -0.606999993       1056.07800       1.57247722    
  0.507171988       2.54972792     -0.517000020       1056.07800       1.57247722    
  0.994853973       2.40179110     -0.517000020       1056.07800       1.57247722    
  0.718334973       1.73421395     -0.606999993       1056.07800       1.57247722    
  0.718334973       1.73421395     -0.606999993       558.464233       1.57331848    
  0.522363007       1.26109600     -0.606999993       558.464233       1.57331848    
  0.266297996       1.33877206     -0.606999993       558.464233       1.57331848    
  0.366203994       1.84103203     -0.606999993       558.464233       1.57331848    
  0.718334973       1.73421395     -0.606999993       1060.55664       1.57266271    
  0.994853973       2.40179110     -0.517000020       1060.55664       1.57266271    
   1.44430494       2.16155505     -0.517000020       1060.55664       1.57266271    
   1.04286098       1.56075203     -0.606999993       1060.55664       1.57266271    
   1.04286098       1.56075203     -0.606999993       567.090576       1.57328129    
  0.758352995       1.13495600     -0.606999993       567.090576       1.57328129    
  0.522363007       1.26109600     -0.606999993       567.090576       1.57328129    
  0.718334973       1.73421395     -0.606999993       567.090576       1.57328129    
   1.04286098       1.56075203     -0.606999993       1066.84924       1.57272732    
   1.44430494       2.16155505     -0.517000020       1066.84924       1.57272732    
   1.83825099       1.83825099     -0.517000020       1066.84924       1.57272732    
   1.32730997       1.32730997     -0.606999993       1066.84924       1.57272732    
   1.32730997       1.32730997     -0.606999993       571.082214       1.57374799    
  0.965201020      0.965201020     -0.606999993       571.082214       1.57374799    
  0.758352995       1.13495600     -0.606999993       571.082214       1.57374799    
   1.04286098       1.56075203     -0.606999993       571.082214       1.57374799    
   1.32730997       1.32730997     -0.606999993       1072.60645       1.57267690    
   1.83825099       1.83825099     -0.517000020       1072.60645       1.57267690    
   2.16155505       1.44430494     -0.517000020       1072.60645       1.57267690    
   1.56075203       1.04286098     -0.606999993       1072.60645       1.57267690    
   1.56075203       1.04286098     -0.606999993       569.966492       1.57430971    
   1.13495600      0.758352995     -0.606999993       569.966492       1.57430971    
  0.965201020      0.965201020     -0.606999993       569.966492       1.57430971    
   1.32730997       1.32730997     -0.606999993       569.966492       1.57430971    
   1.56075203       1.04286098     -0.606999993       1075.97278       1.57258773    
   2.16155505       1.44430494     -0.517000020       1075.97278       1.57258773    
   2.40179110      0.994853973     -0.517000020       1075.97278       1.57258773    
   1.73421395      0.718334973     -0.606999993       1075.97278       1.57258773    
   1.73421395      0.718334973     -0.606999993       567.730591       1.57429135    
   1.26109600      0.522363007     -0.606999993       567.730591       1.57429135    
   1.13495600      0.758352995     -0.606999993       567.730591       1.57429135    
   1.56075203       1.04286098     -0.606999993       567.730591       1.57429135    
   1.73421395      0.718334973     -0.606999993       1076.65417       1.57249725    
   2.40179110      0.994853973     -0.517000020       1076.65417       1.57249725    
   2.54972792      0.507171988     -0.517000020       1076.65417       1.57249725    
   1.84103203      0.366203994     -0.606999993       1076.65417       1.57249725    
   1.84103203      0.366203994     -0.606999993       566.526917       1.57359076    
   1.33877206      0.266297996     -0.606999993       566.526917       1.57359076    
   1.26109600      0.522363007     -0.606999993       566.526917       1.57359076    
   1.73421395      0.718334973     -0.606999993       566.526917       1.57359076    
   1.84103203      0.366203994     -0.606999993       1073.35925       1.57241261    
   2.54972792      0.507171988     -0.517000020       1073.35925       1.57241261    
   2.59967995       0.00000000     -0.517000020       1073.35925       1.57241261    
   1.87709999       0.00000000     -0.606999993       1073.35925       1.57241261    
   1.87709999       0.00000000     -0.606999993       563.927979       1.57289350    
   1.36500001       0.00000000     -0.606999993       563.927979       1.57289350    
   1.33877206      0.266297996     -0.606999993       563.927979       1.57289350    
   1.84103203      0.366203994     -0.606999993       563.927979       1.57289350    
   1.87709999       0.00000000     -0.606999993       1067.12109       1.57232726    
   2.59967995       0.00000000     -0.517000020       1067.12109       1.57232726    
   2.54972792     -0.507171988     -0.517000020       1067.12109       1.57232726    
   1.84103203     -0.366203994     -0.606999993       1067.12109       1.57232726    
   1.84103203     -0.366203994     -0.606999993       558.035645       1.57289386    
   1.33877206     -0.266297996     -0.606999993       558.035645       1.57289386    
   1.36500001       0.00000000     -0.606999993       558.035645       1.57289386    
   1.87709999       0.00000000     -0.606999993       558.035645       1.57289386    
   1.84103203     -0.366203994     -0.606999993       1059.62305       1.57224905    
   2.54972792     -0.507171988     -0.517000020       1059.62305       1.57224905    
   2.40179110     -0.994853973     -0.517000020       1059.62305       1.57224905    
   1.73421395     -0.718334973     -0.606999993       1059.62305       1.57224905    
   1.73421395     -0.718334973     -0.606999993       551.271362       1.57350647    
   1.26109600     -0.522363007     -0.606999993       551.271362       1.57350647    
   1.33877206     -0.266297996     -0.606999993       551.271362       1.57350647    
   1.84103203     -0.366203994     -0.606999993       551.271362       1.57350647    
   1.73421395     -0.718334973     -0.606999993       1052.16907       1.57224452    
   2.40179110     -0.994853973     -0.517000020       1052.16907       1.57224452    
   2.16155505      -1.44430494     -0.517000020       1052.16907       1.57224452    
   1.56075203      -1.04286098     -0.606999993       1052.16907       1.57224452    
   1.56075203      -1.04286098     -0.606999993       548.295654       1.57398963    
   1.13495600     -0.758352995     -0.606999993       548.295654       1.57398963    
   1.26109600     -0.522363007     -0.606999993       548.295654       1.57398963    