 VARIABLES="X" "Y" "Z" "abs(p) (Pa)" "angle(p) (rad)"
ZONE N=   2709,E =    2358, F=FEPOINT, ET=QUADRILATERAL
   0.00000000      -5.48999977     -0.157000005       43.4809303     -0.403068662    
   0.00000000      -4.76741982     -0.246999994       43.4809303     -0.403068662    
  0.930077016      -4.67581606     -0.246999994       43.4809303     -0.403068662    
   1.07104599      -5.38451099     -0.157000005       43.4809303     -0.403068662    
  -1.07104599      -5.38451099     -0.157000005       44.0767632       2.69056940    
 -0.930077016      -4.67581606     -0.246999994       44.0767632       2.69056940    
   0.00000000      -4.76741982     -0.246999994       44.0767632       2.69056940    
   0.00000000      -5.48999977     -0.157000005       44.0767632       2.69056940    
  -2.10093188      -5.07209921     -0.157000005       127.599854       2.71177959    
  -1.82441294      -4.40452194     -0.246999994       127.599854       2.71177959    
 -0.930077016      -4.67581606     -0.246999994       127.599854       2.71177959    
  -1.07104599      -5.38451099     -0.157000005       127.599854       2.71177959    
  -3.05008101      -4.56476784     -0.157000005       209.825912       2.70801616    
  -2.64863706      -3.96396494     -0.246999994       209.825912       2.70801616    
  -1.82441294      -4.40452194     -0.246999994       209.825912       2.70801616    
  -2.10093188      -5.07209921     -0.157000005       209.825912       2.70801616    
  -3.88201594      -3.88201594     -0.157000005       281.153107       2.71074963    
  -3.37107491      -3.37107491     -0.246999994       281.153107       2.71074963    
  -2.64863706      -3.96396494     -0.246999994       281.153107       2.71074963    
  -3.05008101      -4.56476784     -0.157000005       281.153107       2.71074963    
  -4.56476784      -3.05008101     -0.157000005       336.061859       2.72148037    
  -3.96396494      -2.64863706     -0.246999994       336.061859       2.72148037    
  -3.37107491      -3.37107491     -0.246999994       336.061859       2.72148037    
  -3.88201594      -3.88201594     -0.157000005       336.061859       2.72148037    
  -5.07209921      -2.10093188     -0.157000005       390.749451       2.71455479    
  -4.40452194      -1.82441294     -0.246999994       390.749451       2.71455479    
  -3.96396494      -2.64863706     -0.246999994       390.749451       2.71455479    
  -4.56476784      -3.05008101     -0.157000005       390.749451       2.71455479    
  -5.38451099      -1.07104599     -0.157000005       425.762817       2.71555996    
  -4.67581606     -0.930077016     -0.246999994       425.762817       2.71555996    
  -4.40452194      -1.82441294     -0.246999994       425.762817       2.71555996    
  -5.07209921      -2.10093188     -0.157000005       425.762817       2.71555996    
  -5.48999977       0.00000000     -0.157000005       436.228729       2.72520757    
  -4.76741982       0.00000000     -0.246999994       436.228729       2.72520757    
  -4.67581606     -0.930077016     -0.246999994       436.228729       2.72520757    
  -5.38451099      -1.07104599     -0.157000005       436.228729       2.72520757    
  -5.38451099       1.07104599     -0.157000005       435.985046       2.72797155    
  -4.67581606      0.930077016     -0.246999994       435.985046       2.72797155    
  -4.76741982       0.00000000     -0.246999994       435.985046       2.72797155    
  -5.48999977       0.00000000     -0.157000005       435.985046       2.72797155    
  -5.07209921       2.10093188     -0.157000005       419.597900       2.72960782    
  -4.40452194       1.82441294     -0.246999994       419.597900       2.72960782    
  -4.67581606      0.930077016     -0.246999994       419.597900       2.72960782    
  -5.38451099       1.07104599     -0.157000005       419.597900       2.72960782    
  -4.56476784       3.05008101     -0.157000005       387.248444       2.73018098    
  -3.96396494       2.64863706     -0.246999994       387.248444       2.73018098    
  -4.40452194       1.82441294     -0.246999994       387.248444       2.73018098    
  -5.07209921       2.10093188     -0.157000005       387.248444       2.73018098    
  -3.88201594       3.88201594     -0.157000005       344.698120       2.72321749    
  -3.37107491       3.37107491     -0.246999994       344.698120       2.72321749    
  -3.96396494       2.64863706     -0.246999994       344.698120       2.72321749    
  -4.56476784       3.05008101     -0.157000005       344.698120       2.72321749    
  -3.05008101       4.56476784     -0.157000005       278.863068       2.73001862    
  -2.64863706       3.96396494     -0.246999994       278.863068       2.73001862    
  -3.37107491       3.37107491     -0.246999994       278.863068       2.73001862    
  -3.88201594       3.88201594     -0.157000005       278.863068       2.73001862    
  -2.10093188       5.07209921     -0.157000005       209.704498       2.72386122    
  -1.82441294       4.40452194     -0.246999994       209.704498       2.72386122    
  -2.64863706       3.96396494     -0.246999994       209.704498       2.72386122    
  -3.05008101       4.56476784     -0.157000005       209.704498       2.72386122    
  -1.07104599       5.38451099     -0.157000005       127.176865       2.73251748    
 -0.930077016       4.67581606     -0.246999994       127.176865       2.73251748    
  -1.82441294       4.40452194     -0.246999994       127.176865       2.73251748    
  -2.10093188       5.07209921     -0.157000005       127.176865       2.73251748    
   0.00000000       5.48999977     -0.157000005       42.9886208       2.74063587    
   0.00000000       4.76741982     -0.246999994       42.9886208       2.74063587    
 -0.930077016       4.67581606     -0.246999994       42.9886208       2.74063587    
  -1.07104599       5.38451099     -0.157000005       42.9886208       2.74063587    
   1.07104599       5.38451099     -0.157000005       43.5842934     -0.444096029    
  0.930077016       4.67581606     -0.246999994       43.5842934     -0.444096029    
   0.00000000       4.76741982     -0.246999994       43.5842934     -0.444096029    
   0.00000000       5.48999977     -0.157000005       43.5842934     -0.444096029    
   2.10093188       5.07209921     -0.157000005       129.913849     -0.436353862    
   1.82441294       4.40452194     -0.246999994       129.913849     -0.436353862    
  0.930077016       4.67581606     -0.246999994       129.913849     -0.436353862    
   1.07104599       5.38451099     -0.157000005       129.913849     -0.436353862    
   3.05008101       4.56476784     -0.157000005       209.717209     -0.433175206    
   2.64863706       3.96396494     -0.246999994       209.717209     -0.433175206    
   1.82441294       4.40452194     -0.246999994       209.717209     -0.433175206    
   2.10093188       5.07209921     -0.157000005       209.717209     -0.433175206    
   3.88201594       3.88201594     -0.157000005       276.314026     -0.423530817    
   3.37107491       3.37107491     -0.246999994       276.314026     -0.423530817    
   2.64863706       3.96396494     -0.246999994       276.314026     -0.423530817    
   3.05008101       4.56476784     -0.157000005       276.314026     -0.423530817    
   4.56476784       3.05008101     -0.157000005       337.680267     -0.423876196    
   3.96396494       2.64863706     -0.246999994       337.680267     -0.423876196    
   3.37107491       3.37107491     -0.246999994       337.680267     -0.423876196    
   3.88201594       3.88201594     -0.157000005       337.680267     -0.423876196    
   5.07209921       2.10093188     -0.157000005       384.053314     -0.420379430    
   4.40452194       1.82441294     -0.246999994       384.053314     -0.420379430    
   3.96396494       2.64863706     -0.246999994       384.053314     -0.420379430    
   4.56476784       3.05008101     -0.157000005       384.053314     -0.420379430    
   5.38451099       1.07104599     -0.157000005       425.756165     -0.427434862    
   4.67581606      0.930077016     -0.246999994       425.756165     -0.427434862    
   4.40452194       1.82441294     -0.246999994       425.756165     -0.427434862    
   5.07209921       2.10093188     -0.157000005       425.756165     -0.427434862    
   5.48999977       0.00000000     -0.157000005       444.811768     -0.427157283    
   4.76741982       0.00000000     -0.246999994       444.811768     -0.427157283    
   4.67581606      0.930077016     -0.246999994       444.811768     -0.427157283    
   5.38451099       1.07104599     -0.157000005       444.811768     -0.427157283    
   5.38451099      -1.07104599     -0.157000005       445.405731     -0.425620317    
   4.67581606     -0.930077016     -0.246999994       445.405731     -0.425620317    
   4.76741982       0.00000000     -0.246999994       445.405731     -0.425620317    
   5.48999977       0.00000000     -0.157000005       445.405731     -0.425620317    
   5.07209921      -2.10093188     -0.157000005       428.528778     -0.424090624    
   4.40452194      -1.82441294     -0.246999994       428.528778     -0.424090624    
   4.67581606     -0.930077016     -0.246999994       428.528778     -0.424090624    
   5.38451099      -1.07104599     -0.157000005       428.528778     -0.424090624    
   4.56476784      -3.05008101     -0.157000005       394.931946     -0.422915965    
   3.96396494      -2.64863706     -0.246999994       394.931946     -0.422915965    
   4.40452194      -1.82441294     -0.246999994       394.931946     -0.422915965    
   5.07209921      -2.10093188     -0.157000005       394.931946     -0.422915965    
   3.88201594      -3.88201594     -0.157000005       345.702271     -0.421666533    
   3.37107491      -3.37107491     -0.246999994       345.702271     -0.421666533    
   3.96396494      -2.64863706     -0.246999994       345.702271     -0.421666533    
   4.56476784      -3.05008101     -0.157000005       345.702271     -0.421666533    
   3.05008101      -4.56476784     -0.157000005       279.183350     -0.413562179    
   2.64863706      -3.96396494     -0.246999994       279.183350     -0.413562179    
   3.37107491      -3.37107491     -0.246999994       279.183350     -0.413562179    
   3.88201594      -3.88201594     -0.157000005       279.183350     -0.413562179    
   2.10093188      -5.07209921     -0.157000005       210.279816     -0.419704050    
   1.82441294      -4.40452194     -0.246999994       210.279816     -0.419704050    
   2.64863706      -3.96396494     -0.246999994       210.279816     -0.419704050    
   3.05008101      -4.56476784     -0.157000005       210.279816     -0.419704050    
   1.07104599      -5.38451099     -0.157000005       129.658585     -0.418557018    
  0.930077016      -4.67581606     -0.246999994       129.658585     -0.418557018    
   1.82441294      -4.40452194     -0.246999994       129.658585     -0.418557018    
   2.10093188      -5.07209921     -0.157000005       129.658585     -0.418557018    
   0.00000000      -1.87709999     -0.606999993       91.4106216       1.48641169    
   0.00000000      -1.36500001     -0.606999993       91.4106216       1.48641169    
  0.266297996      -1.33877206     -0.606999993       91.4106216       1.48641169    
  0.366203994      -1.84103203     -0.606999993       91.4106216       1.48641169    
   0.00000000      -1.87709999     -0.606999993       33.8192596      -1.83521092    
   0.00000000      -2.59967995     -0.517000020       33.8192596      -1.83521092    
 -0.507171988      -2.54972792     -0.517000020       33.8192596      -1.83521092    
 -0.366203994      -1.84103203     -0.606999993       33.8192596      -1.83521092    
 -0.366203994      -1.84103203     -0.606999993       94.0295334      -1.64487624    
 -0.266297996      -1.33877206     -0.606999993       94.0295334      -1.64487624    
   0.00000000      -1.36500001     -0.606999993       94.0295334      -1.64487624    
   0.00000000      -1.87709999     -0.606999993       94.0295334      -1.64487624    
 -0.366203994      -1.84103203     -0.606999993       101.656189      -1.83349836    
 -0.507171988      -2.54972792     -0.517000020       101.656189      -1.83349836    
 -0.994853973      -2.40179110     -0.517000020       101.656189      -1.83349836    
 -0.718334973      -1.73421395     -0.606999993       101.656189      -1.83349836    
 -0.718334973      -1.73421395     -0.606999993       275.862488      -1.64783955    
 -0.522363007      -1.26109600     -0.606999993       275.862488      -1.64783955    
 -0.266297996      -1.33877206     -0.606999993       275.862488      -1.64783955    
 -0.366203994      -1.84103203     -0.606999993       275.862488      -1.64783955    
 -0.718334973      -1.73421395     -0.606999993       165.712128      -1.82991326    
 -0.994853973      -2.40179110     -0.517000020       165.712128      -1.82991326    
  -1.44430494      -2.16155505     -0.517000020       165.712128      -1.82991326    
  -1.04286098      -1.56075203     -0.606999993       165.712128      -1.82991326    
  -1.04286098      -1.56075203     -0.606999993       447.312073      -1.64783716    
 -0.758352995      -1.13495600     -0.606999993       447.312073      -1.64783716    
 -0.522363007      -1.26109600     -0.606999993       447.312073      -1.64783716    
 -0.718334973      -1.73421395     -0.606999993       447.312073      -1.64783716    
  -1.04286098      -1.56075203     -0.606999993       223.879959      -1.82699966    
  -1.44430494      -2.16155505     -0.517000020       223.879959      -1.82699966    
  -1.83825099      -1.83825099     -0.517000020       223.879959      -1.82699966    
  -1.32730997      -1.32730997     -0.606999993       223.879959      -1.82699966    
  -1.32730997      -1.32730997     -0.606999993       601.911499      -1.64760482    
 -0.965201020     -0.965201020     -0.606999993       601.911499      -1.64760482    
 -0.758352995      -1.13495600     -0.606999993       601.911499      -1.64760482    
  -1.04286098      -1.56075203     -0.606999993       601.911499      -1.64760482    
  -1.32730997      -1.32730997     -0.606999993       273.967377      -1.82568586    
  -1.83825099      -1.83825099     -0.517000020       273.967377      -1.82568586    
  -2.16155505      -1.44430494     -0.517000020       273.967377      -1.82568586    
  -1.56075203      -1.04286098     -0.606999993       273.967377      -1.82568586    
  -1.56075203      -1.04286098     -0.606999993       733.870117      -1.64751649    
  -1.13495600     -0.758352995     -0.606999993       733.870117      -1.64751649    
 -0.965201020     -0.965201020     -0.606999993       733.870117      -1.64751649    
  -1.32730997      -1.32730997     -0.606999993       733.870117      -1.64751649    
  -1.56075203      -1.04286098     -0.606999993       313.555756      -1.82578313    
  -2.16155505      -1.44430494     -0.517000020       313.555756      -1.82578313    
  -2.40179110     -0.994853973     -0.517000020       313.555756      -1.82578313    
  -1.73421395     -0.718334973     -0.606999993       313.555756      -1.82578313    
  -1.73421395     -0.718334973     -0.606999993       838.200867      -1.64759886    
  -1.26109600     -0.522363007     -0.606999993       838.200867      -1.64759886    
  -1.13495600     -0.758352995     -0.606999993       838.200867      -1.64759886    
  -1.56075203      -1.04286098     -0.606999993       838.200867      -1.64759886    
  -1.73421395     -0.718334973     -0.606999993       340.624847      -1.82643950    
  -2.40179110     -0.994853973     -0.517000020       340.624847      -1.82643950    
  -2.54972792     -0.507171988     -0.517000020       340.624847      -1.82643950    
  -1.84103203     -0.366203994     -0.606999993       340.624847      -1.82643950    
  -1.84103203     -0.366203994     -0.606999993       910.379639      -1.64775074    
  -1.33877206     -0.266297996     -0.606999993       910.379639      -1.64775074    
  -1.26109600     -0.522363007     -0.606999993       910.379639      -1.64775074    
  -1.73421395     -0.718334973     -0.606999993       910.379639      -1.64775074    
  -1.84103203     -0.366203994     -0.606999993       354.410675      -1.82686782    
  -2.54972792     -0.507171988     -0.517000020       354.410675      -1.82686782    
  -2.59967995       0.00000000     -0.517000020       354.410675      -1.82686782    
  -1.87709999       0.00000000     -0.606999993       354.410675      -1.82686782    
  -1.87709999       0.00000000     -0.606999993       947.529419      -1.64785314    
  -1.36500001       0.00000000     -0.606999993       947.529419      -1.64785314    
  -1.33877206     -0.266297996     -0.606999993       947.529419      -1.64785314    
  -1.84103203     -0.366203994     -0.606999993       947.529419      -1.64785314    
  -1.87709999       0.00000000     -0.606999993       355.032928      -1.82663929    
  -2.59967995       0.00000000     -0.517000020       355.032928      -1.82663929    
  -2.54972792      0.507171988     -0.517000020       355.032928      -1.82663929    
  -1.84103203      0.366203994     -0.606999993       355.032928      -1.82663929    
  -1.84103203      0.366203994     -0.606999993       948.461243      -1.64784110    
  -1.33877206      0.266297996     -0.606999993       948.461243      -1.64784110    
  -1.36500001       0.00000000     -0.606999993       948.461243      -1.64784110    
  -1.87709999       0.00000000     -0.606999993       948.461243      -1.64784110    
  -1.84103203      0.366203994     -0.606999993       342.529694      -1.82569492    
  -2.54972792      0.507171988     -0.517000020       342.529694      -1.82569492    
  -2.40179110      0.994853973     -0.517000020       342.529694      -1.82569492    
  -1.73421395      0.718334973     -0.606999993       342.529694      -1.82569492    
  -1.73421395      0.718334973     -0.606999993       913.137024      -1.64769340    
  -1.26109600      0.522363007     -0.606999993       913.137024      -1.64769340    
  -1.33877206      0.266297996     -0.606999993       913.137024      -1.64769340    
  -1.84103203      0.366203994     -0.606999993       913.137024      -1.64769340    
  -1.73421395      0.718334973     -0.606999993       316.729462      -1.82431102    
  -2.40179110      0.994853973     -0.517000020       316.729462      -1.82431102    
  -2.16155505       1.44430494     -0.517000020       316.729462      -1.82431102    
  -1.56075203       1.04286098     -0.606999993       316.729462      -1.82431102    
  -1.56075203       1.04286098     -0.606999993       842.559631      -1.64747870    
  -1.13495600      0.758352995     -0.606999993       842.559631      -1.64747870    
  -1.26109600      0.522363007     -0.606999993       842.559631      -1.64747870    
  -1.73421395      0.718334973     -0.606999993       842.559631      -1.64747870    
  -1.56075203       1.04286098     -0.606999993       278.078613      -1.82318079    
  -2.16155505       1.44430494     -0.517000020       278.078613      -1.82318079    
  -1.83825099       1.83825099     -0.517000020       278.078613      -1.82318079    
  -1.32730997       1.32730997     -0.606999993       278.078613      -1.82318079    
  -1.32730997       1.32730997     -0.606999993       739.141235      -1.64734101    
 -0.965201020      0.965201020     -0.606999993       739.141235      -1.64734101    
  -1.13495600      0.758352995     -0.606999993       739.141235      -1.64734101    
  -1.56075203       1.04286098     -0.606999993       739.141235      -1.64734101    
  -1.32730997       1.32730997     -0.606999993       228.359161      -1.82317114    
  -1.83825099       1.83825099     -0.517000020       228.359161      -1.82317114    
  -1.44430494       2.16155505     -0.517000020       228.359161      -1.82317114    
  -1.04286098       1.56075203     -0.606999993       228.359161      -1.82317114    
  -1.04286098       1.56075203     -0.606999993       606.992554      -1.64744365    
 -0.758352995       1.13495600     -0.606999993       606.992554      -1.64744365    
 -0.965201020      0.965201020     -0.606999993       606.992554      -1.64744365    
  -1.32730997       1.32730997     -0.606999993       606.992554      -1.64744365    
  -1.04286098       1.56075203     -0.606999993       170.043518      -1.82451916    
  -1.44430494       2.16155505     -0.517000020       170.043518      -1.82451916    
 -0.994853973       2.40179110     -0.517000020       170.043518      -1.82451916    
 -0.718334973       1.73421395     -0.606999993       170.043518      -1.82451916    
 -0.718334973       1.73421395     -0.606999993       451.344391      -1.64788473    
 -0.522363007       1.26109600     -0.606999993       451.344391      -1.64788473    
 -0.758352995       1.13495600     -0.606999993       451.344391      -1.64788473    
  -1.04286098       1.56075203     -0.606999993       451.344391      -1.64788473    
 -0.718334973       1.73421395     -0.606999993       105.487709      -1.82596195    
 -0.994853973       2.40179110     -0.517000020       105.487709      -1.82596195    
 -0.507171988       2.54972792     -0.517000020       105.487709      -1.82596195    
 -0.366203994       1.84103203     -0.606999993       105.487709      -1.82596195    
 -0.366203994       1.84103203     -0.606999993       278.412903      -1.64860690    
 -0.266297996       1.33877206     -0.606999993       278.412903      -1.64860690    
 -0.522363007       1.26109600     -0.606999993       278.412903      -1.64860690    
 -0.718334973       1.73421395     -0.606999993       278.412903      -1.64860690    
 -0.366203994       1.84103203     -0.606999993       36.9493752      -1.82112944    
 -0.507171988       2.54972792     -0.517000020       36.9493752      -1.82112944    
   0.00000000       2.59967995     -0.517000020       36.9493752      -1.82112944    
   0.00000000       1.87709999     -0.606999993       36.9493752      -1.82112944    
   0.00000000       1.87709999     -0.606999993       94.7408905      -1.65022147    
   0.00000000       1.36500001     -0.606999993       94.7408905      -1.65022147    
 -0.266297996       1.33877206     -0.606999993       94.7408905      -1.65022147    
 -0.366203994       1.84103203     -0.606999993       94.7408905      -1.65022147    
   0.00000000       1.87709999     -0.606999993       33.0705185       1.29895973    
   0.00000000       2.59967995     -0.517000020       33.0705185       1.29895973    
  0.507171988       2.54972792     -0.517000020       33.0705185       1.29895973    
  0.366203994       1.84103203     -0.606999993       33.0705185       1.29895973    
  0.366203994       1.84103203     -0.606999993       92.5602798       1.49506414    
  0.266297996       1.33877206     -0.606999993       92.5602798       1.49506414    
   0.00000000       1.36500001     -0.606999993       92.5602798       1.49506414    
   0.00000000       1.87709999     -0.606999993       92.5602798       1.49506414    
  0.366203994       1.84103203     -0.606999993       101.798180       1.30916631    
  0.507171988       2.54972792     -0.517000020       101.798180       1.30916631    
  0.994853973       2.40179110     -0.517000020       101.798180       1.30916631    
  0.718334973       1.73421395     -0.606999993       101.798180       1.30916631    
  0.718334973       1.73421395     -0.606999993       276.371246       1.49416983    
  0.522363007       1.26109600     -0.606999993       276.371246       1.49416983    
  0.266297996       1.33877206     -0.606999993       276.371246       1.49416983    
  0.366203994       1.84103203     -0.606999993       276.371246       1.49416983    
  0.718334973       1.73421395     -0.606999993       166.681442       1.31389034    
  0.994853973       2.40179110     -0.517000020       166.681442       1.31389034    
   1.44430494       2.16155505     -0.517000020       166.681442       1.31389034    
   1.04286098       1.56075203     -0.606999993       166.681442       1.31389034    
   1.04286098       1.56075203     -0.606999993       449.650421       1.49444413    
  0.758352995       1.13495600     -0.606999993       449.650421       1.49444413    
  0.522363007       1.26109600     -0.606999993       449.650421       1.49444413    
  0.718334973       1.73421395     -0.606999993       449.650421       1.49444413    
   1.04286098       1.56075203     -0.606999993       225.461060       1.31667113    
   1.44430494       2.16155505     -0.517000020       225.461060       1.31667113    
   1.83825099       1.83825099     -0.517000020       225.461060       1.31667113    
   1.32730997       1.32730997     -0.606999993       225.461060       1.31667113    
   1.32730997       1.32730997     -0.606999993       605.714294       1.49464226    
  0.965201020      0.965201020     -0.606999993       605.714294       1.49464226    
  0.758352995       1.13495600     -0.606999993       605.714294       1.49464226    
   1.04286098       1.56075203     -0.606999993       605.714294       1.49464226    
   1.32730997       1.32730997     -0.606999993       275.717346       1.31731904    
   1.83825099       1.83825099     -0.517000020       275.717346       1.31731904    
   2.16155505       1.44430494     -0.517000020       275.717346       1.31731904    
   1.56075203       1.04286098     -0.606999993       275.717346       1.31731904    
   1.56075203       1.04286098     -0.606999993       738.245728       1.49455023    
   1.13495600      0.758352995     -0.606999993       738.245728       1.49455023    
  0.965201020      0.965201020     -0.606999993       738.245728       1.49455023    
   1.32730997       1.32730997     -0.606999993       738.245728       1.49455023    
   1.56075203       1.04286098     -0.606999993       314.866455       1.31635976    
   2.16155505       1.44430494     -0.517000020       314.866455       1.31635976    
   2.40179110      0.994853973     -0.517000020       314.866455       1.31635976    
   1.73421395      0.718334973     -0.606999993       314.866455       1.31635976    
   1.73421395      0.718334973     -0.606999993       841.611938       1.49420083    
   1.26109600      0.522363007     -0.606999993       841.611938       1.49420083    
   1.13495600      0.758352995     -0.606999993       841.611938       1.49420083    
   1.56075203       1.04286098     -0.606999993       841.611938       1.49420083    
   1.73421395      0.718334973     -0.606999993       341.129242       1.31486261    
   2.40179110      0.994853973     -0.517000020       341.129242       1.31486261    
   2.54972792      0.507171988     -0.517000020       341.129242       1.31486261    
   1.84103203      0.366203994     -0.606999993       341.129242       1.31486261    
   1.84103203      0.366203994     -0.606999993       912.141052       1.49379241    
   1.33877206      0.266297996     -0.606999993       912.141052       1.49379241    
   1.26109600      0.522363007     -0.606999993       912.141052       1.49379241    
   1.73421395      0.718334973     -0.606999993       912.141052       1.49379241    
   1.84103203      0.366203994     -0.606999993       354.132416       1.31376338    
   2.54972792      0.507171988     -0.517000020       354.132416       1.31376338    
   2.59967995       0.00000000     -0.517000020       354.132416       1.31376338    
   1.87709999       0.00000000     -0.606999993       354.132416       1.31376338    
   1.87709999       0.00000000     -0.606999993       947.559875       1.49346304    
   1.36500001       0.00000000     -0.606999993       947.559875       1.49346304    
   1.33877206      0.266297996     -0.606999993       947.559875       1.49346304    
   1.84103203      0.366203994     -0.606999993       947.559875       1.49346304    
   1.87709999       0.00000000     -0.606999993       354.067780       1.31342232    
   2.59967995       0.00000000     -0.517000020       354.067780       1.31342232    
   2.54972792     -0.507171988     -0.517000020       354.067780       1.31342232    
   1.84103203     -0.366203994     -0.606999993       354.067780       1.31342232    
   1.84103203     -0.366203994     -0.606999993       946.712158       1.49327338    
   1.33877206     -0.266297996     -0.606999993       946.712158       1.49327338    
   1.36500001       0.00000000     -0.606999993       946.712158       1.49327338    
   1.87709999       0.00000000     -0.606999993       946.712158       1.49327338    
   1.84103203     -0.366203994     -0.606999993       340.828217       1.31378233    
   2.54972792     -0.507171988     -0.517000020       340.828217       1.31378233    
   2.40179110     -0.994853973     -0.517000020       340.828217       1.31378233    
   1.73421395     -0.718334973     -0.606999993       340.828217       1.31378233    
   1.73421395     -0.718334973     -0.606999993       909.649475       1.49320734    
   1.26109600     -0.522363007     -0.606999993       909.649475       1.49320734    
   1.33877206     -0.266297996     -0.606999993       909.649475       1.49320734    
   1.84103203     -0.366203994     -0.606999993       909.649475       1.49320734    
   1.73421395     -0.718334973     -0.606999993       314.208893       1.31441319    
   2.40179110     -0.994853973     -0.517000020       314.208893       1.31441319    
   2.16155505      -1.44430494     -0.517000020       314.208893       1.31441319    
   1.56075203      -1.04286098     -0.606999993       314.208893       1.31441319    
   1.56075203      -1.04286098     -0.606999993       837.552551       1.49317980    
   1.13495600     -0.758352995     -0.606999993       837.552551       1.49317980    
   1.26109600     -0.522363007     -0.606999993       837.552551       1.49317980    