 VARIABLES="X" "Y" "Z" "abs(p) (Pa)" "angle(p) (rad)"
ZONE N=   2709,E =    2358, F=FEPOINT, ET=QUADRILATERAL
   0.00000000      -5.48999977     -0.157000005       191.392685     -0.236935422    
   0.00000000      -4.76741982     -0.246999994       191.392685     -0.236935422    
  0.930077016      -4.67581606     -0.246999994       191.392685     -0.236935422    
   1.07104599      -5.38451099     -0.157000005       191.392685     -0.236935422    
  -1.07104599      -5.38451099     -0.157000005       191.275467     -0.237658978    
 -0.930077016      -4.67581606     -0.246999994       191.275467     -0.237658978    
   0.00000000      -4.76741982     -0.246999994       191.275467     -0.237658978    
   0.00000000      -5.48999977     -0.157000005       191.275467     -0.237658978    
  -2.10093188      -5.07209921     -0.157000005       190.367966     -0.242832348    
  -1.82441294      -4.40452194     -0.246999994       190.367966     -0.242832348    
 -0.930077016      -4.67581606     -0.246999994       190.367966     -0.242832348    
  -1.07104599      -5.38451099     -0.157000005       190.367966     -0.242832348    
  -3.05008101      -4.56476784     -0.157000005       190.984055     -0.239534706    
  -2.64863706      -3.96396494     -0.246999994       190.984055     -0.239534706    
  -1.82441294      -4.40452194     -0.246999994       190.984055     -0.239534706    
  -2.10093188      -5.07209921     -0.157000005       190.984055     -0.239534706    
  -3.88201594      -3.88201594     -0.157000005       190.718369     -0.239665926    
  -3.37107491      -3.37107491     -0.246999994       190.718369     -0.239665926    
  -2.64863706      -3.96396494     -0.246999994       190.718369     -0.239665926    
  -3.05008101      -4.56476784     -0.157000005       190.718369     -0.239665926    
  -4.56476784      -3.05008101     -0.157000005       189.375534     -0.243339896    
  -3.96396494      -2.64863706     -0.246999994       189.375534     -0.243339896    
  -3.37107491      -3.37107491     -0.246999994       189.375534     -0.243339896    
  -3.88201594      -3.88201594     -0.157000005       189.375534     -0.243339896    
  -5.07209921      -2.10093188     -0.157000005       190.071503     -0.237612799    
  -4.40452194      -1.82441294     -0.246999994       190.071503     -0.237612799    
  -3.96396494      -2.64863706     -0.246999994       190.071503     -0.237612799    
  -4.56476784      -3.05008101     -0.157000005       190.071503     -0.237612799    
  -5.38451099      -1.07104599     -0.157000005       190.091187     -0.237039864    
  -4.67581606     -0.930077016     -0.246999994       190.091187     -0.237039864    
  -4.40452194      -1.82441294     -0.246999994       190.091187     -0.237039864    
  -5.07209921      -2.10093188     -0.157000005       190.091187     -0.237039864    
  -5.48999977       0.00000000     -0.157000005       189.090546     -0.241794288    
  -4.76741982       0.00000000     -0.246999994       189.090546     -0.241794288    
  -4.67581606     -0.930077016     -0.246999994       189.090546     -0.241794288    
  -5.38451099      -1.07104599     -0.157000005       189.090546     -0.241794288    
  -5.38451099       1.07104599     -0.157000005       188.872971     -0.242639244    
  -4.67581606      0.930077016     -0.246999994       188.872971     -0.242639244    
  -4.76741982       0.00000000     -0.246999994       188.872971     -0.242639244    
  -5.48999977       0.00000000     -0.157000005       188.872971     -0.242639244    
  -5.07209921       2.10093188     -0.157000005       188.790314     -0.242328689    
  -4.40452194       1.82441294     -0.246999994       188.790314     -0.242328689    
  -4.67581606      0.930077016     -0.246999994       188.790314     -0.242328689    
  -5.38451099       1.07104599     -0.157000005       188.790314     -0.242328689    
  -4.56476784       3.05008101     -0.157000005       188.838989     -0.241785362    
  -3.96396494       2.64863706     -0.246999994       188.838989     -0.241785362    
  -4.40452194       1.82441294     -0.246999994       188.838989     -0.241785362    
  -5.07209921       2.10093188     -0.157000005       188.838989     -0.241785362    
  -3.88201594       3.88201594     -0.157000005       189.724762     -0.239237666    
  -3.37107491       3.37107491     -0.246999994       189.724762     -0.239237666    
  -3.96396494       2.64863706     -0.246999994       189.724762     -0.239237666    
  -4.56476784       3.05008101     -0.157000005       189.724762     -0.239237666    
  -3.05008101       4.56476784     -0.157000005       189.078079     -0.244178176    
  -2.64863706       3.96396494     -0.246999994       189.078079     -0.244178176    
  -3.37107491       3.37107491     -0.246999994       189.078079     -0.244178176    
  -3.88201594       3.88201594     -0.157000005       189.078079     -0.244178176    
  -2.10093188       5.07209921     -0.157000005       189.803070     -0.241336599    
  -1.82441294       4.40452194     -0.246999994       189.803070     -0.241336599    
  -2.64863706       3.96396494     -0.246999994       189.803070     -0.241336599    
  -3.05008101       4.56476784     -0.157000005       189.803070     -0.241336599    
  -1.07104599       5.38451099     -0.157000005       189.105774     -0.245127589    
 -0.930077016       4.67581606     -0.246999994       189.105774     -0.245127589    
  -1.82441294       4.40452194     -0.246999994       189.105774     -0.245127589    
  -2.10093188       5.07209921     -0.157000005       189.105774     -0.245127589    
   0.00000000       5.48999977     -0.157000005       189.778259     -0.241442159    
   0.00000000       4.76741982     -0.246999994       189.778259     -0.241442159    
 -0.930077016       4.67581606     -0.246999994       189.778259     -0.241442159    
  -1.07104599       5.38451099     -0.157000005       189.778259     -0.241442159    
   1.07104599       5.38451099     -0.157000005       189.037750     -0.244994313    
  0.930077016       4.67581606     -0.246999994       189.037750     -0.244994313    
   0.00000000       4.76741982     -0.246999994       189.037750     -0.244994313    
   0.00000000       5.48999977     -0.157000005       189.037750     -0.244994313    
   2.10093188       5.07209921     -0.157000005       189.794861     -0.242237806    
   1.82441294       4.40452194     -0.246999994       189.794861     -0.242237806    
  0.930077016       4.67581606     -0.246999994       189.794861     -0.242237806    
   1.07104599       5.38451099     -0.157000005       189.794861     -0.242237806    
   3.05008101       4.56476784     -0.157000005       189.700211     -0.242161736    
   2.64863706       3.96396494     -0.246999994       189.700211     -0.242161736    
   1.82441294       4.40452194     -0.246999994       189.700211     -0.242161736    
   2.10093188       5.07209921     -0.157000005       189.700211     -0.242161736    
   3.88201594       3.88201594     -0.157000005       188.610413     -0.246473387    
   3.37107491       3.37107491     -0.246999994       188.610413     -0.246473387    
   2.64863706       3.96396494     -0.246999994       188.610413     -0.246473387    
   3.05008101       4.56476784     -0.157000005       188.610413     -0.246473387    
   4.56476784       3.05008101     -0.157000005       188.569595     -0.244219899    
   3.96396494       2.64863706     -0.246999994       188.569595     -0.244219899    
   3.37107491       3.37107491     -0.246999994       188.569595     -0.244219899    
   3.88201594       3.88201594     -0.157000005       188.569595     -0.244219899    
   5.07209921       2.10093188     -0.157000005       188.341248     -0.243551031    
   4.40452194       1.82441294     -0.246999994       188.341248     -0.243551031    
   3.96396494       2.64863706     -0.246999994       188.341248     -0.243551031    
   4.56476784       3.05008101     -0.157000005       188.341248     -0.243551031    
   5.38451099       1.07104599     -0.157000005       189.568527     -0.238393694    
   4.67581606      0.930077016     -0.246999994       189.568527     -0.238393694    
   4.40452194       1.82441294     -0.246999994       189.568527     -0.238393694    
   5.07209921       2.10093188     -0.157000005       189.568527     -0.238393694    
   5.48999977       0.00000000     -0.157000005       189.967499     -0.237128034    
   4.76741982       0.00000000     -0.246999994       189.967499     -0.237128034    
   4.67581606      0.930077016     -0.246999994       189.967499     -0.237128034    
   5.38451099       1.07104599     -0.157000005       189.967499     -0.237128034    
   5.38451099      -1.07104599     -0.157000005       190.186035     -0.236102343    
   4.67581606     -0.930077016     -0.246999994       190.186035     -0.236102343    
   4.76741982       0.00000000     -0.246999994       190.186035     -0.236102343    
   5.48999977       0.00000000     -0.157000005       190.186035     -0.236102343    
   5.07209921      -2.10093188     -0.157000005       190.377563     -0.234960571    
   4.40452194      -1.82441294     -0.246999994       190.377563     -0.234960571    
   4.67581606     -0.930077016     -0.246999994       190.377563     -0.234960571    
   5.38451099      -1.07104599     -0.157000005       190.377563     -0.234960571    
   4.56476784      -3.05008101     -0.157000005       190.583328     -0.234620884    
   3.96396494      -2.64863706     -0.246999994       190.583328     -0.234620884    
   4.40452194      -1.82441294     -0.246999994       190.583328     -0.234620884    
   5.07209921      -2.10093188     -0.157000005       190.583328     -0.234620884    
   3.88201594      -3.88201594     -0.157000005       190.760529     -0.236364350    
   3.37107491      -3.37107491     -0.246999994       190.760529     -0.236364350    
   3.96396494      -2.64863706     -0.246999994       190.760529     -0.236364350    
   4.56476784      -3.05008101     -0.157000005       190.760529     -0.236364350    
   3.05008101      -4.56476784     -0.157000005       190.160965     -0.241450757    
   2.64863706      -3.96396494     -0.246999994       190.160965     -0.241450757    
   3.37107491      -3.37107491     -0.246999994       190.160965     -0.241450757    
   3.88201594      -3.88201594     -0.157000005       190.160965     -0.241450757    
   2.10093188      -5.07209921     -0.157000005       191.140305     -0.238052934    
   1.82441294      -4.40452194     -0.246999994       191.140305     -0.238052934    
   2.64863706      -3.96396494     -0.246999994       191.140305     -0.238052934    
   3.05008101      -4.56476784     -0.157000005       191.140305     -0.238052934    
   1.07104599      -5.38451099     -0.157000005       191.388580     -0.237648606    
  0.930077016      -4.67581606     -0.246999994       191.388580     -0.237648606    
   1.82441294      -4.40452194     -0.246999994       191.388580     -0.237648606    
   2.10093188      -5.07209921     -0.157000005       191.388580     -0.237648606    
   0.00000000      -1.87709999     -0.606999993       743.670532      -1.40849710    
   0.00000000      -1.36500001     -0.606999993       743.670532      -1.40849710    
  0.266297996      -1.33877206     -0.606999993       743.670532      -1.40849710    
  0.366203994      -1.84103203     -0.606999993       743.670532      -1.40849710    
   0.00000000      -1.87709999     -0.606999993       543.293152      -1.36200881    
   0.00000000      -2.59967995     -0.517000020       543.293152      -1.36200881    
 -0.507171988      -2.54972792     -0.517000020       543.293152      -1.36200881    
 -0.366203994      -1.84103203     -0.606999993       543.293152      -1.36200881    
 -0.366203994      -1.84103203     -0.606999993       743.803894      -1.40854418    
 -0.266297996      -1.33877206     -0.606999993       743.803894      -1.40854418    
   0.00000000      -1.36500001     -0.606999993       743.803894      -1.40854418    
   0.00000000      -1.87709999     -0.606999993       743.803894      -1.40854418    
 -0.366203994      -1.84103203     -0.606999993       536.411133      -1.35938025    
 -0.507171988      -2.54972792     -0.517000020       536.411133      -1.35938025    
 -0.994853973      -2.40179110     -0.517000020       536.411133      -1.35938025    
 -0.718334973      -1.73421395     -0.606999993       536.411133      -1.35938025    
 -0.718334973      -1.73421395     -0.606999993       740.928772      -1.40795600    
 -0.522363007      -1.26109600     -0.606999993       740.928772      -1.40795600    
 -0.266297996      -1.33877206     -0.606999993       740.928772      -1.40795600    
 -0.366203994      -1.84103203     -0.606999993       740.928772      -1.40795600    
 -0.718334973      -1.73421395     -0.606999993       530.688293      -1.35718799    
 -0.994853973      -2.40179110     -0.517000020       530.688293      -1.35718799    
  -1.44430494      -2.16155505     -0.517000020       530.688293      -1.35718799    
  -1.04286098      -1.56075203     -0.606999993       530.688293      -1.35718799    
  -1.04286098      -1.56075203     -0.606999993       738.984070      -1.40760076    
 -0.758352995      -1.13495600     -0.606999993       738.984070      -1.40760076    
 -0.522363007      -1.26109600     -0.606999993       738.984070      -1.40760076    
 -0.718334973      -1.73421395     -0.606999993       738.984070      -1.40760076    
  -1.04286098      -1.56075203     -0.606999993       532.280273      -1.35797000    
  -1.44430494      -2.16155505     -0.517000020       532.280273      -1.35797000    
  -1.83825099      -1.83825099     -0.517000020       532.280273      -1.35797000    
  -1.32730997      -1.32730997     -0.606999993       532.280273      -1.35797000    
  -1.32730997      -1.32730997     -0.606999993       741.295044      -1.40820801    
 -0.965201020     -0.965201020     -0.606999993       741.295044      -1.40820801    
 -0.758352995      -1.13495600     -0.606999993       741.295044      -1.40820801    
  -1.04286098      -1.56075203     -0.606999993       741.295044      -1.40820801    
  -1.32730997      -1.32730997     -0.606999993       539.924011      -1.36116111    
  -1.83825099      -1.83825099     -0.517000020       539.924011      -1.36116111    
  -2.16155505      -1.44430494     -0.517000020       539.924011      -1.36116111    
  -1.56075203      -1.04286098     -0.606999993       539.924011      -1.36116111    
  -1.56075203      -1.04286098     -0.606999993       747.089050      -1.40958059    
  -1.13495600     -0.758352995     -0.606999993       747.089050      -1.40958059    
 -0.965201020     -0.965201020     -0.606999993       747.089050      -1.40958059    
  -1.32730997      -1.32730997     -0.606999993       747.089050      -1.40958059    
  -1.56075203      -1.04286098     -0.606999993       546.318298      -1.36378706    
  -2.16155505      -1.44430494     -0.517000020       546.318298      -1.36378706    
  -2.40179110     -0.994853973     -0.517000020       546.318298      -1.36378706    
  -1.73421395     -0.718334973     -0.606999993       546.318298      -1.36378706    
  -1.73421395     -0.718334973     -0.606999993       752.352722      -1.41080642    
  -1.26109600     -0.522363007     -0.606999993       752.352722      -1.41080642    
  -1.13495600     -0.758352995     -0.606999993       752.352722      -1.41080642    
  -1.56075203      -1.04286098     -0.606999993       752.352722      -1.41080642    
  -1.73421395     -0.718334973     -0.606999993       545.965454      -1.36377907    
  -2.40179110     -0.994853973     -0.517000020       545.965454      -1.36377907    
  -2.54972792     -0.507171988     -0.517000020       545.965454      -1.36377907    
  -1.84103203     -0.366203994     -0.606999993       545.965454      -1.36377907    
  -1.84103203     -0.366203994     -0.606999993       754.053528      -1.41124082    
  -1.33877206     -0.266297996     -0.606999993       754.053528      -1.41124082    
  -1.26109600     -0.522363007     -0.606999993       754.053528      -1.41124082    
  -1.73421395     -0.718334973     -0.606999993       754.053528      -1.41124082    
  -1.84103203     -0.366203994     -0.606999993       542.432129      -1.36252332    
  -2.54972792     -0.507171988     -0.517000020       542.432129      -1.36252332    
  -2.59967995       0.00000000     -0.517000020       542.432129      -1.36252332    
  -1.87709999       0.00000000     -0.606999993       542.432129      -1.36252332    
  -1.87709999       0.00000000     -0.606999993       753.471313      -1.41117442    
  -1.36500001       0.00000000     -0.606999993       753.471313      -1.41117442    
  -1.33877206     -0.266297996     -0.606999993       753.471313      -1.41117442    
  -1.84103203     -0.366203994     -0.606999993       753.471313      -1.41117442    
  -1.87709999       0.00000000     -0.606999993       542.836182      -1.36275673    
  -2.59967995       0.00000000     -0.517000020       542.836182      -1.36275673    
  -2.54972792      0.507171988     -0.517000020       542.836182      -1.36275673    
  -1.84103203      0.366203994     -0.606999993       542.836182      -1.36275673    
  -1.84103203      0.366203994     -0.606999993       753.847656      -1.41129410    
  -1.33877206      0.266297996     -0.606999993       753.847656      -1.41129410    
  -1.36500001       0.00000000     -0.606999993       753.847656      -1.41129410    
  -1.87709999       0.00000000     -0.606999993       753.847656      -1.41129410    
  -1.84103203      0.366203994     -0.606999993       548.273926      -1.36489356    
  -2.54972792      0.507171988     -0.517000020       548.273926      -1.36489356    
  -2.40179110      0.994853973     -0.517000020       548.273926      -1.36489356    
  -1.73421395      0.718334973     -0.606999993       548.273926      -1.36489356    
  -1.73421395      0.718334973     -0.606999993       755.793457      -1.41173279    
  -1.26109600      0.522363007     -0.606999993       755.793457      -1.41173279    
  -1.33877206      0.266297996     -0.606999993       755.793457      -1.41173279    
  -1.84103203      0.366203994     -0.606999993       755.793457      -1.41173279    
  -1.73421395      0.718334973     -0.606999993       552.180542      -1.36639929    
  -2.40179110      0.994853973     -0.517000020       552.180542      -1.36639929    
  -2.16155505       1.44430494     -0.517000020       552.180542      -1.36639929    
  -1.56075203       1.04286098     -0.606999993       552.180542      -1.36639929    
  -1.56075203       1.04286098     -0.606999993       756.429626      -1.41188300    
  -1.13495600      0.758352995     -0.606999993       756.429626      -1.41188300    
  -1.26109600      0.522363007     -0.606999993       756.429626      -1.41188300    
  -1.73421395      0.718334973     -0.606999993       756.429626      -1.41188300    
  -1.56075203       1.04286098     -0.606999993       548.594177      -1.36507976    
  -2.16155505       1.44430494     -0.517000020       548.594177      -1.36507976    
  -1.83825099       1.83825099     -0.517000020       548.594177      -1.36507976    
  -1.32730997       1.32730997     -0.606999993       548.594177      -1.36507976    
  -1.32730997       1.32730997     -0.606999993       753.421814      -1.41125226    
 -0.965201020      0.965201020     -0.606999993       753.421814      -1.41125226    
  -1.13495600      0.758352995     -0.606999993       753.421814      -1.41125226    
  -1.56075203       1.04286098     -0.606999993       753.421814      -1.41125226    
  -1.32730997       1.32730997     -0.606999993       541.079285      -1.36221695    
  -1.83825099       1.83825099     -0.517000020       541.079285      -1.36221695    
  -1.44430494       2.16155505     -0.517000020       541.079285      -1.36221695    
  -1.04286098       1.56075203     -0.606999993       541.079285      -1.36221695    
  -1.04286098       1.56075203     -0.606999993       748.578796      -1.41022217    
 -0.758352995       1.13495600     -0.606999993       748.578796      -1.41022217    
 -0.965201020      0.965201020     -0.606999993       748.578796      -1.41022217    
  -1.32730997       1.32730997     -0.606999993       748.578796      -1.41022217    
  -1.04286098       1.56075203     -0.606999993       537.933899      -1.36100578    
  -1.44430494       2.16155505     -0.517000020       537.933899      -1.36100578    
 -0.994853973       2.40179110     -0.517000020       537.933899      -1.36100578    
 -0.718334973       1.73421395     -0.606999993       537.933899      -1.36100578    
 -0.718334973       1.73421395     -0.606999993       745.975769      -1.40966809    
 -0.522363007       1.26109600     -0.606999993       745.975769      -1.40966809    
 -0.758352995       1.13495600     -0.606999993       745.975769      -1.40966809    
  -1.04286098       1.56075203     -0.606999993       745.975769      -1.40966809    
 -0.718334973       1.73421395     -0.606999993       542.072754      -1.36264038    
 -0.994853973       2.40179110     -0.517000020       542.072754      -1.36264038    
 -0.507171988       2.54972792     -0.517000020       542.072754      -1.36264038    
 -0.366203994       1.84103203     -0.606999993       542.072754      -1.36264038    
 -0.366203994       1.84103203     -0.606999993       747.168030      -1.40994251    
 -0.266297996       1.33877206     -0.606999993       747.168030      -1.40994251    
 -0.522363007       1.26109600     -0.606999993       747.168030      -1.40994251    
 -0.718334973       1.73421395     -0.606999993       747.168030      -1.40994251    
 -0.366203994       1.84103203     -0.606999993       548.083130      -1.36496890    
 -0.507171988       2.54972792     -0.517000020       548.083130      -1.36496890    
   0.00000000       2.59967995     -0.517000020       548.083130      -1.36496890    
   0.00000000       1.87709999     -0.606999993       548.083130      -1.36496890    
   0.00000000       1.87709999     -0.606999993       749.539917      -1.41047919    
   0.00000000       1.36500001     -0.606999993       749.539917      -1.41047919    
 -0.266297996       1.33877206     -0.606999993       749.539917      -1.41047919    
 -0.366203994       1.84103203     -0.606999993       749.539917      -1.41047919    
   0.00000000       1.87709999     -0.606999993       548.074402      -1.36499548    
   0.00000000       2.59967995     -0.517000020       548.074402      -1.36499548    
  0.507171988       2.54972792     -0.517000020       548.074402      -1.36499548    
  0.366203994       1.84103203     -0.606999993       548.074402      -1.36499548    
  0.366203994       1.84103203     -0.606999993       749.514893      -1.41049707    
  0.266297996       1.33877206     -0.606999993       749.514893      -1.41049707    
   0.00000000       1.36500001     -0.606999993       749.514893      -1.41049707    
   0.00000000       1.87709999     -0.606999993       749.514893      -1.41049707    
  0.366203994       1.84103203     -0.606999993       542.038574      -1.36271393    
  0.507171988       2.54972792     -0.517000020       542.038574      -1.36271393    
  0.994853973       2.40179110     -0.517000020       542.038574      -1.36271393    
  0.718334973       1.73421395     -0.606999993       542.038574      -1.36271393    
  0.718334973       1.73421395     -0.606999993       747.109009      -1.40999997    
  0.522363007       1.26109600     -0.606999993       747.109009      -1.40999997    
  0.266297996       1.33877206     -0.606999993       747.109009      -1.40999997    
  0.366203994       1.84103203     -0.606999993       747.109009      -1.40999997    
  0.718334973       1.73421395     -0.606999993       537.901733      -1.36112261    
  0.994853973       2.40179110     -0.517000020       537.901733      -1.36112261    
   1.44430494       2.16155505     -0.517000020       537.901733      -1.36112261    
   1.04286098       1.56075203     -0.606999993       537.901733      -1.36112261    
   1.04286098       1.56075203     -0.606999993       745.894165      -1.40975928    
  0.758352995       1.13495600     -0.606999993       745.894165      -1.40975928    
  0.522363007       1.26109600     -0.606999993       745.894165      -1.40975928    
  0.718334973       1.73421395     -0.606999993       745.894165      -1.40975928    
   1.04286098       1.56075203     -0.606999993       541.062988      -1.36236346    
   1.44430494       2.16155505     -0.517000020       541.062988      -1.36236346    
   1.83825099       1.83825099     -0.517000020       541.062988      -1.36236346    
   1.32730997       1.32730997     -0.606999993       541.062988      -1.36236346    
   1.32730997       1.32730997     -0.606999993       748.469421      -1.41032338    
  0.965201020      0.965201020     -0.606999993       748.469421      -1.41032338    
  0.758352995       1.13495600     -0.606999993       748.469421      -1.41032338    
   1.04286098       1.56075203     -0.606999993       748.469421      -1.41032338    
   1.32730997       1.32730997     -0.606999993       548.599976      -1.36522186    
   1.83825099       1.83825099     -0.517000020       548.599976      -1.36522186    
   2.16155505       1.44430494     -0.517000020       548.599976      -1.36522186    
   1.56075203       1.04286098     -0.606999993       548.599976      -1.36522186    
   1.56075203       1.04286098     -0.606999993       753.252075      -1.41133809    
   1.13495600      0.758352995     -0.606999993       753.252075      -1.41133809    
  0.965201020      0.965201020     -0.606999993       753.252075      -1.41133809    
   1.32730997       1.32730997     -0.606999993       753.252075      -1.41133809    
   1.56075203       1.04286098     -0.606999993       552.183411      -1.36650372    
   2.16155505       1.44430494     -0.517000020       552.183411      -1.36650372    
   2.40179110      0.994853973     -0.517000020       552.183411      -1.36650372    
   1.73421395      0.718334973     -0.606999993       552.183411      -1.36650372    
   1.73421395      0.718334973     -0.606999993       756.114990      -1.41192341    
   1.26109600      0.522363007     -0.606999993       756.114990      -1.41192341    
   1.13495600      0.758352995     -0.606999993       756.114990      -1.41192341    
   1.56075203       1.04286098     -0.606999993       756.114990      -1.41192341    
   1.73421395      0.718334973     -0.606999993       548.216003      -1.36491442    
   2.40179110      0.994853973     -0.517000020       548.216003      -1.36491442    
   2.54972792      0.507171988     -0.517000020       548.216003      -1.36491442    
   1.84103203      0.366203994     -0.606999993       548.216003      -1.36491442    
   1.84103203      0.366203994     -0.606999993       755.316101      -1.41171277    
   1.33877206      0.266297996     -0.606999993       755.316101      -1.41171277    
   1.26109600      0.522363007     -0.606999993       755.316101      -1.41171277    
   1.73421395      0.718334973     -0.606999993       755.316101      -1.41171277    
   1.84103203      0.366203994     -0.606999993       542.682861      -1.36267674    
   2.54972792      0.507171988     -0.517000020       542.682861      -1.36267674    
   2.59967995       0.00000000     -0.517000020       542.682861      -1.36267674    
   1.87709999       0.00000000     -0.606999993       542.682861      -1.36267674    
   1.87709999       0.00000000     -0.606999993       753.231628      -1.41120422    
   1.36500001       0.00000000     -0.606999993       753.231628      -1.41120422    
   1.33877206      0.266297996     -0.606999993       753.231628      -1.41120422    
   1.84103203      0.366203994     -0.606999993       753.231628      -1.41120422    
   1.87709999       0.00000000     -0.606999993       542.199036      -1.36234879    
   2.59967995       0.00000000     -0.517000020       542.199036      -1.36234879    
   2.54972792     -0.507171988     -0.517000020       542.199036      -1.36234879    
   1.84103203     -0.366203994     -0.606999993       542.199036      -1.36234879    
   1.84103203     -0.366203994     -0.606999993       752.720032      -1.41101193    
   1.33877206     -0.266297996     -0.606999993       752.720032      -1.41101193    
   1.36500001       0.00000000     -0.606999993       752.720032      -1.41101193    
   1.87709999       0.00000000     -0.606999993       752.720032      -1.41101193    
   1.84103203     -0.366203994     -0.606999993       545.668823      -1.36353672    
   2.54972792     -0.507171988     -0.517000020       545.668823      -1.36353672    
   2.40179110     -0.994853973     -0.517000020       545.668823      -1.36353672    
   1.73421395     -0.718334973     -0.606999993       545.668823      -1.36353672    
   1.73421395     -0.718334973     -0.606999993       753.192200      -1.41101360    
   1.26109600     -0.522363007     -0.606999993       753.192200      -1.41101360    
   1.33877206     -0.266297996     -0.606999993       753.192200      -1.41101360    
   1.84103203     -0.366203994     -0.606999993       753.192200      -1.41101360    
   1.73421395     -0.718334973     -0.606999993       545.963806      -1.36348987    
   2.40179110     -0.994853973     -0.517000020       545.963806      -1.36348987    
   2.16155505      -1.44430494     -0.517000020       545.963806      -1.36348987    
   1.56075203      -1.04286098     -0.606999993       545.963806      -1.36348987    
   1.56075203      -1.04286098     -0.606999993       751.458008      -1.41053283    
   1.13495600     -0.758352995     -0.606999993       751.458008      -1.41053283    
   1.26109600     -0.522363007     -0.606999993       751.458008      -1.41053283    