 VARIABLES="X" "Y" "Z" "abs(p) (Pa)" "angle(p) (rad)"
ZONE N=   2709,E =    2358, F=FEPOINT, ET=QUADRILATERAL
   0.00000000      -5.48999977     -0.157000005       275.209747      -1.57386768    
   0.00000000      -4.76741982     -0.246999994       275.209747      -1.57386768    
  0.930077016      -4.67581606     -0.246999994       275.209747      -1.57386768    
   1.07104599      -5.38451099     -0.157000005       275.209747      -1.57386768    
  -1.07104599      -5.38451099     -0.157000005       275.533722      -1.57424688    
 -0.930077016      -4.67581606     -0.246999994       275.533722      -1.57424688    
   0.00000000      -4.76741982     -0.246999994       275.533722      -1.57424688    
   0.00000000      -5.48999977     -0.157000005       275.533722      -1.57424688    
  -2.10093188      -5.07209921     -0.157000005       271.632019      -1.57340193    
  -1.82441294      -4.40452194     -0.246999994       271.632019      -1.57340193    
 -0.930077016      -4.67581606     -0.246999994       271.632019      -1.57340193    
  -1.07104599      -5.38451099     -0.157000005       271.632019      -1.57340193    
  -3.05008101      -4.56476784     -0.157000005       240.578110      -1.57399297    
  -2.64863706      -3.96396494     -0.246999994       240.578110      -1.57399297    
  -1.82441294      -4.40452194     -0.246999994       240.578110      -1.57399297    
  -2.10093188      -5.07209921     -0.157000005       240.578110      -1.57399297    
  -3.88201594      -3.88201594     -0.157000005       215.683502      -1.57338595    
  -3.37107491      -3.37107491     -0.246999994       215.683502      -1.57338595    
  -2.64863706      -3.96396494     -0.246999994       215.683502      -1.57338595    
  -3.05008101      -4.56476784     -0.157000005       215.683502      -1.57338595    
  -4.56476784      -3.05008101     -0.157000005       186.724670      -1.57217371    
  -3.96396494      -2.64863706     -0.246999994       186.724670      -1.57217371    
  -3.37107491      -3.37107491     -0.246999994       186.724670      -1.57217371    
  -3.88201594      -3.88201594     -0.157000005       186.724670      -1.57217371    
  -5.07209921      -2.10093188     -0.157000005       134.388123      -1.57234931    
  -4.40452194      -1.82441294     -0.246999994       134.388123      -1.57234931    
  -3.96396494      -2.64863706     -0.246999994       134.388123      -1.57234931    
  -4.56476784      -3.05008101     -0.157000005       134.388123      -1.57234931    
  -5.38451099      -1.07104599     -0.157000005       79.8376923      -1.57412946    
  -4.67581606     -0.930077016     -0.246999994       79.8376923      -1.57412946    
  -4.40452194      -1.82441294     -0.246999994       79.8376923      -1.57412946    
  -5.07209921      -2.10093188     -0.157000005       79.8376923      -1.57412946    
  -5.48999977       0.00000000     -0.157000005       27.0296955      -1.57639921    
  -4.76741982       0.00000000     -0.246999994       27.0296955      -1.57639921    
  -4.67581606     -0.930077016     -0.246999994       27.0296955      -1.57639921    
  -5.38451099      -1.07104599     -0.157000005       27.0296955      -1.57639921    
  -5.38451099       1.07104599     -0.157000005       25.6843624       1.56589854    
  -4.67581606      0.930077016     -0.246999994       25.6843624       1.56589854    
  -4.76741982       0.00000000     -0.246999994       25.6843624       1.56589854    
  -5.48999977       0.00000000     -0.157000005       25.6843624       1.56589854    
  -5.07209921       2.10093188     -0.157000005       80.5345612       1.56610930    
  -4.40452194       1.82441294     -0.246999994       80.5345612       1.56610930    
  -4.67581606      0.930077016     -0.246999994       80.5345612       1.56610930    
  -5.38451099       1.07104599     -0.157000005       80.5345612       1.56610930    
  -4.56476784       3.05008101     -0.157000005       137.501907       1.56784499    
  -3.96396494       2.64863706     -0.246999994       137.501907       1.56784499    
  -4.40452194       1.82441294     -0.246999994       137.501907       1.56784499    
  -5.07209921       2.10093188     -0.157000005       137.501907       1.56784499    
  -3.88201594       3.88201594     -0.157000005       184.362473       1.56788504    
  -3.37107491       3.37107491     -0.246999994       184.362473       1.56788504    
  -3.96396494       2.64863706     -0.246999994       184.362473       1.56788504    
  -4.56476784       3.05008101     -0.157000005       184.362473       1.56788504    
  -3.05008101       4.56476784     -0.157000005       228.109558       1.56860769    
  -2.64863706       3.96396494     -0.246999994       228.109558       1.56860769    
  -3.37107491       3.37107491     -0.246999994       228.109558       1.56860769    
  -3.88201594       3.88201594     -0.157000005       228.109558       1.56860769    
  -2.10093188       5.07209921     -0.157000005       245.876740       1.56711757    
  -1.82441294       4.40452194     -0.246999994       245.876740       1.56711757    
  -2.64863706       3.96396494     -0.246999994       245.876740       1.56711757    
  -3.05008101       4.56476784     -0.157000005       245.876740       1.56711757    
  -1.07104599       5.38451099     -0.157000005       275.365448       1.56812680    
 -0.930077016       4.67581606     -0.246999994       275.365448       1.56812680    
  -1.82441294       4.40452194     -0.246999994       275.365448       1.56812680    
  -2.10093188       5.07209921     -0.157000005       275.365448       1.56812680    
   0.00000000       5.48999977     -0.157000005       281.769257       1.56682014    
   0.00000000       4.76741982     -0.246999994       281.769257       1.56682014    
 -0.930077016       4.67581606     -0.246999994       281.769257       1.56682014    
  -1.07104599       5.38451099     -0.157000005       281.769257       1.56682014    
   1.07104599       5.38451099     -0.157000005       288.371674       1.56785023    
  0.930077016       4.67581606     -0.246999994       288.371674       1.56785023    
   0.00000000       4.76741982     -0.246999994       288.371674       1.56785023    
   0.00000000       5.48999977     -0.157000005       288.371674       1.56785023    
   2.10093188       5.07209921     -0.157000005       268.320892       1.56767297    
   1.82441294       4.40452194     -0.246999994       268.320892       1.56767297    
  0.930077016       4.67581606     -0.246999994       268.320892       1.56767297    
   1.07104599       5.38451099     -0.157000005       268.320892       1.56767297    
   3.05008101       4.56476784     -0.157000005       245.085678       1.56793845    
   2.64863706       3.96396494     -0.246999994       245.085678       1.56793845    
   1.82441294       4.40452194     -0.246999994       245.085678       1.56793845    
   2.10093188       5.07209921     -0.157000005       245.085678       1.56793845    
   3.88201594       3.88201594     -0.157000005       227.683167       1.56865692    
   3.37107491       3.37107491     -0.246999994       227.683167       1.56865692    
   2.64863706       3.96396494     -0.246999994       227.683167       1.56865692    
   3.05008101       4.56476784     -0.157000005       227.683167       1.56865692    
   4.56476784       3.05008101     -0.157000005       186.259125       1.56858587    
   3.96396494       2.64863706     -0.246999994       186.259125       1.56858587    
   3.37107491       3.37107491     -0.246999994       186.259125       1.56858587    
   3.88201594       3.88201594     -0.157000005       186.259125       1.56858587    
   5.07209921       2.10093188     -0.157000005       136.044647       1.56912124    
   4.40452194       1.82441294     -0.246999994       136.044647       1.56912124    
   3.96396494       2.64863706     -0.246999994       136.044647       1.56912124    
   4.56476784       3.05008101     -0.157000005       136.044647       1.56912124    
   5.38451099       1.07104599     -0.157000005       77.4988556       1.56478238    
   4.67581606      0.930077016     -0.246999994       77.4988556       1.56478238    
   4.40452194       1.82441294     -0.246999994       77.4988556       1.56478238    
   5.07209921       2.10093188     -0.157000005       77.4988556       1.56478238    
   5.48999977       0.00000000     -0.157000005       24.2832108       1.56223893    
   4.76741982       0.00000000     -0.246999994       24.2832108       1.56223893    
   4.67581606      0.930077016     -0.246999994       24.2832108       1.56223893    
   5.38451099       1.07104599     -0.157000005       24.2832108       1.56223893    
   5.38451099      -1.07104599     -0.157000005       27.1465855      -1.58098996    
   4.67581606     -0.930077016     -0.246999994       27.1465855      -1.58098996    
   4.76741982       0.00000000     -0.246999994       27.1465855      -1.58098996    
   5.48999977       0.00000000     -0.157000005       27.1465855      -1.58098996    
   5.07209921      -2.10093188     -0.157000005       80.4699173      -1.57540596    
   4.40452194      -1.82441294     -0.246999994       80.4699173      -1.57540596    
   4.67581606     -0.930077016     -0.246999994       80.4699173      -1.57540596    
   5.38451099      -1.07104599     -0.157000005       80.4699173      -1.57540596    
   4.56476784      -3.05008101     -0.157000005       134.641968      -1.57362103    
   3.96396494      -2.64863706     -0.246999994       134.641968      -1.57362103    
   4.40452194      -1.82441294     -0.246999994       134.641968      -1.57362103    
   5.07209921      -2.10093188     -0.157000005       134.641968      -1.57362103    
   3.88201594      -3.88201594     -0.157000005       182.592712      -1.57368612    
   3.37107491      -3.37107491     -0.246999994       182.592712      -1.57368612    
   3.96396494      -2.64863706     -0.246999994       182.592712      -1.57368612    
   4.56476784      -3.05008101     -0.157000005       182.592712      -1.57368612    
   3.05008101      -4.56476784     -0.157000005       221.982391      -1.57282138    
   2.64863706      -3.96396494     -0.246999994       221.982391      -1.57282138    
   3.37107491      -3.37107491     -0.246999994       221.982391      -1.57282138    
   3.88201594      -3.88201594     -0.157000005       221.982391      -1.57282138    
   2.10093188      -5.07209921     -0.157000005       240.610016      -1.57403398    
   1.82441294      -4.40452194     -0.246999994       240.610016      -1.57403398    
   2.64863706      -3.96396494     -0.246999994       240.610016      -1.57403398    
   3.05008101      -4.56476784     -0.157000005       240.610016      -1.57403398    
   1.07104599      -5.38451099     -0.157000005       264.467102      -1.57407713    
  0.930077016      -4.67581606     -0.246999994       264.467102      -1.57407713    
   1.82441294      -4.40452194     -0.246999994       264.467102      -1.57407713    
   2.10093188      -5.07209921     -0.157000005       264.467102      -1.57407713    
   0.00000000      -1.87709999     -0.606999993       11815.8828      -1.56870878    
   0.00000000      -1.36500001     -0.606999993       11815.8828      -1.56870878    
  0.266297996      -1.33877206     -0.606999993       11815.8828      -1.56870878    
  0.366203994      -1.84103203     -0.606999993       11815.8828      -1.56870878    
   0.00000000      -1.87709999     -0.606999993       3836.42505      -1.56918001    
   0.00000000      -2.59967995     -0.517000020       3836.42505      -1.56918001    
 -0.507171988      -2.54972792     -0.517000020       3836.42505      -1.56918001    
 -0.366203994      -1.84103203     -0.606999993       3836.42505      -1.56918001    
 -0.366203994      -1.84103203     -0.606999993       11819.4248      -1.56870937    
 -0.266297996      -1.33877206     -0.606999993       11819.4248      -1.56870937    
   0.00000000      -1.36500001     -0.606999993       11819.4248      -1.56870937    
   0.00000000      -1.87709999     -0.606999993       11819.4248      -1.56870937    
 -0.366203994      -1.84103203     -0.606999993       3780.34204      -1.56915832    
 -0.507171988      -2.54972792     -0.517000020       3780.34204      -1.56915832    
 -0.994853973      -2.40179110     -0.517000020       3780.34204      -1.56915832    
 -0.718334973      -1.73421395     -0.606999993       3780.34204      -1.56915832    
 -0.718334973      -1.73421395     -0.606999993       11444.1260      -1.56871474    
 -0.522363007      -1.26109600     -0.606999993       11444.1260      -1.56871474    
 -0.266297996      -1.33877206     -0.606999993       11444.1260      -1.56871474    
 -0.366203994      -1.84103203     -0.606999993       11444.1260      -1.56871474    
 -0.718334973      -1.73421395     -0.606999993       3609.51001      -1.56914186    
 -0.994853973      -2.40179110     -0.517000020       3609.51001      -1.56914186    
  -1.44430494      -2.16155505     -0.517000020       3609.51001      -1.56914186    
  -1.04286098      -1.56075203     -0.606999993       3609.51001      -1.56914186    
  -1.04286098      -1.56075203     -0.606999993       10652.2383      -1.56872261    
 -0.758352995      -1.13495600     -0.606999993       10652.2383      -1.56872261    
 -0.522363007      -1.26109600     -0.606999993       10652.2383      -1.56872261    
 -0.718334973      -1.73421395     -0.606999993       10652.2383      -1.56872261    
  -1.04286098      -1.56075203     -0.606999993       3250.99609      -1.56914389    
  -1.44430494      -2.16155505     -0.517000020       3250.99609      -1.56914389    
  -1.83825099      -1.83825099     -0.517000020       3250.99609      -1.56914389    
  -1.32730997      -1.32730997     -0.606999993       3250.99609      -1.56914389    
  -1.32730997      -1.32730997     -0.606999993       9406.27930      -1.56872833    
 -0.965201020     -0.965201020     -0.606999993       9406.27930      -1.56872833    
 -0.758352995      -1.13495600     -0.606999993       9406.27930      -1.56872833    
  -1.04286098      -1.56075203     -0.606999993       9406.27930      -1.56872833    
  -1.32730997      -1.32730997     -0.606999993       2665.11157      -1.56915259    
  -1.83825099      -1.83825099     -0.517000020       2665.11157      -1.56915259    
  -2.16155505      -1.44430494     -0.517000020       2665.11157      -1.56915259    
  -1.56075203      -1.04286098     -0.606999993       2665.11157      -1.56915259    
  -1.56075203      -1.04286098     -0.606999993       7722.32861      -1.56872678    
  -1.13495600     -0.758352995     -0.606999993       7722.32861      -1.56872678    
 -0.965201020     -0.965201020     -0.606999993       7722.32861      -1.56872678    
  -1.32730997      -1.32730997     -0.606999993       7722.32861      -1.56872678    
  -1.56075203      -1.04286098     -0.606999993       1894.17688      -1.56914663    
  -2.16155505      -1.44430494     -0.517000020       1894.17688      -1.56914663    
  -2.40179110     -0.994853973     -0.517000020       1894.17688      -1.56914663    
  -1.73421395     -0.718334973     -0.606999993       1894.17688      -1.56914663    
  -1.73421395     -0.718334973     -0.606999993       5691.95508      -1.56871724    
  -1.26109600     -0.522363007     -0.606999993       5691.95508      -1.56871724    
  -1.13495600     -0.758352995     -0.606999993       5691.95508      -1.56871724    
  -1.56075203      -1.04286098     -0.606999993       5691.95508      -1.56871724    
  -1.73421395     -0.718334973     -0.606999993       1079.64124      -1.56913853    
  -2.40179110     -0.994853973     -0.517000020       1079.64124      -1.56913853    
  -2.54972792     -0.507171988     -0.517000020       1079.64124      -1.56913853    
  -1.84103203     -0.366203994     -0.606999993       1079.64124      -1.56913853    
  -1.84103203     -0.366203994     -0.606999993       3460.06226      -1.56870568    
  -1.33877206     -0.266297996     -0.606999993       3460.06226      -1.56870568    
  -1.26109600     -0.522363007     -0.606999993       3460.06226      -1.56870568    
  -1.73421395     -0.718334973     -0.606999993       3460.06226      -1.56870568    
  -1.84103203     -0.366203994     -0.606999993       333.426147      -1.56921887    
  -2.54972792     -0.507171988     -0.517000020       333.426147      -1.56921887    
  -2.59967995       0.00000000     -0.517000020       333.426147      -1.56921887    
  -1.87709999       0.00000000     -0.606999993       333.426147      -1.56921887    
  -1.87709999       0.00000000     -0.606999993       1157.15845      -1.56872499    
  -1.36500001       0.00000000     -0.606999993       1157.15845      -1.56872499    
  -1.33877206     -0.266297996     -0.606999993       1157.15845      -1.56872499    
  -1.84103203     -0.366203994     -0.606999993       1157.15845      -1.56872499    
  -1.87709999       0.00000000     -0.606999993       342.153625       1.57273901    
  -2.59967995       0.00000000     -0.517000020       342.153625       1.57273901    
  -2.54972792      0.507171988     -0.517000020       342.153625       1.57273901    
  -1.84103203      0.366203994     -0.606999993       342.153625       1.57273901    
  -1.84103203      0.366203994     -0.606999993       1141.17004       1.57297325    
  -1.33877206      0.266297996     -0.606999993       1141.17004       1.57297325    
  -1.36500001       0.00000000     -0.606999993       1141.17004       1.57297325    
  -1.87709999       0.00000000     -0.606999993       1141.17004       1.57297325    
  -1.84103203      0.366203994     -0.606999993       1042.65271       1.57255697    
  -2.54972792      0.507171988     -0.517000020       1042.65271       1.57255697    
  -2.40179110      0.994853973     -0.517000020       1042.65271       1.57255697    
  -1.73421395      0.718334973     -0.606999993       1042.65271       1.57255697    
  -1.73421395      0.718334973     -0.606999993       3407.07764       1.57292759    
  -1.26109600      0.522363007     -0.606999993       3407.07764       1.57292759    
  -1.33877206      0.266297996     -0.606999993       3407.07764       1.57292759    
  -1.84103203      0.366203994     -0.606999993       3407.07764       1.57292759    
  -1.73421395      0.718334973     -0.606999993       1809.60498       1.57248449    
  -2.40179110      0.994853973     -0.517000020       1809.60498       1.57248449    
  -2.16155505       1.44430494     -0.517000020       1809.60498       1.57248449    
  -1.56075203       1.04286098     -0.606999993       1809.60498       1.57248449    
  -1.56075203       1.04286098     -0.606999993       5590.65381       1.57290268    
  -1.13495600      0.758352995     -0.606999993       5590.65381       1.57290268    
  -1.26109600      0.522363007     -0.606999993       5590.65381       1.57290268    
  -1.73421395      0.718334973     -0.606999993       5590.65381       1.57290268    
  -1.56075203       1.04286098     -0.606999993       2569.82910       1.57244718    
  -2.16155505       1.44430494     -0.517000020       2569.82910       1.57244718    
  -1.83825099       1.83825099     -0.517000020       2569.82910       1.57244718    
  -1.32730997       1.32730997     -0.606999993       2569.82910       1.57244718    
  -1.32730997       1.32730997     -0.606999993       7588.35059       1.57288373    
 -0.965201020      0.965201020     -0.606999993       7588.35059       1.57288373    
  -1.13495600      0.758352995     -0.606999993       7588.35059       1.57288373    
  -1.56075203       1.04286098     -0.606999993       7588.35059       1.57288373    
  -1.32730997       1.32730997     -0.606999993       3178.68799       1.57244134    
  -1.83825099       1.83825099     -0.517000020       3178.68799       1.57244134    
  -1.44430494       2.16155505     -0.517000020       3178.68799       1.57244134    
  -1.04286098       1.56075203     -0.606999993       3178.68799       1.57244134    
  -1.04286098       1.56075203     -0.606999993       9262.68945       1.57287359    
 -0.758352995       1.13495600     -0.606999993       9262.68945       1.57287359    
 -0.965201020      0.965201020     -0.606999993       9262.68945       1.57287359    
  -1.32730997       1.32730997     -0.606999993       9262.68945       1.57287359    
  -1.04286098       1.56075203     -0.606999993       3564.22388       1.57243109    
  -1.44430494       2.16155505     -0.517000020       3564.22388       1.57243109    
 -0.994853973       2.40179110     -0.517000020       3564.22388       1.57243109    
 -0.718334973       1.73421395     -0.606999993       3564.22388       1.57243109    
 -0.718334973       1.73421395     -0.606999993       10516.1211       1.57287145    
 -0.522363007       1.26109600     -0.606999993       10516.1211       1.57287145    
 -0.758352995       1.13495600     -0.606999993       10516.1211       1.57287145    
  -1.04286098       1.56075203     -0.606999993       10516.1211       1.57287145    
 -0.718334973       1.73421395     -0.606999993       3751.40796       1.57240546    
 -0.994853973       2.40179110     -0.517000020       3751.40796       1.57240546    
 -0.507171988       2.54972792     -0.517000020       3751.40796       1.57240546    
 -0.366203994       1.84103203     -0.606999993       3751.40796       1.57240546    
 -0.366203994       1.84103203     -0.606999993       11320.7285       1.57287204    
 -0.266297996       1.33877206     -0.606999993       11320.7285       1.57287204    
 -0.522363007       1.26109600     -0.606999993       11320.7285       1.57287204    
 -0.718334973       1.73421395     -0.606999993       11320.7285       1.57287204    
 -0.366203994       1.84103203     -0.606999993       3815.63232       1.57237649    
 -0.507171988       2.54972792     -0.517000020       3815.63232       1.57237649    
   0.00000000       2.59967995     -0.517000020       3815.63232       1.57237649    
   0.00000000       1.87709999     -0.606999993       3815.63232       1.57237649    
   0.00000000       1.87709999     -0.606999993       11706.3691       1.57287455    
   0.00000000       1.36500001     -0.606999993       11706.3691       1.57287455    
 -0.266297996       1.33877206     -0.606999993       11706.3691       1.57287455    
 -0.366203994       1.84103203     -0.606999993       11706.3691       1.57287455    
   0.00000000       1.87709999     -0.606999993       3817.15552       1.57237422    
   0.00000000       2.59967995     -0.517000020       3817.15552       1.57237422    
  0.507171988       2.54972792     -0.517000020       3817.15552       1.57237422    
  0.366203994       1.84103203     -0.606999993       3817.15552       1.57237422    
  0.366203994       1.84103203     -0.606999993       11706.9258       1.57287359    
  0.266297996       1.33877206     -0.606999993       11706.9258       1.57287359    
   0.00000000       1.36500001     -0.606999993       11706.9258       1.57287359    
   0.00000000       1.87709999     -0.606999993       11706.9258       1.57287359    
  0.366203994       1.84103203     -0.606999993       3755.92383       1.57239950    
  0.507171988       2.54972792     -0.517000020       3755.92383       1.57239950    
  0.994853973       2.40179110     -0.517000020       3755.92383       1.57239950    
  0.718334973       1.73421395     -0.606999993       3755.92383       1.57239950    
  0.718334973       1.73421395     -0.606999993       11322.0312       1.57287085    
  0.522363007       1.26109600     -0.606999993       11322.0312       1.57287085    
  0.266297996       1.33877206     -0.606999993       11322.0312       1.57287085    
  0.366203994       1.84103203     -0.606999993       11322.0312       1.57287085    
  0.718334973       1.73421395     -0.606999993       3571.63013       1.57242370    
  0.994853973       2.40179110     -0.517000020       3571.63013       1.57242370    
   1.44430494       2.16155505     -0.517000020       3571.63013       1.57242370    
   1.04286098       1.56075203     -0.606999993       3571.63013       1.57242370    
   1.04286098       1.56075203     -0.606999993       10517.2852       1.57286906    
  0.758352995       1.13495600     -0.606999993       10517.2852       1.57286906    
  0.522363007       1.26109600     -0.606999993       10517.2852       1.57286906    
  0.718334973       1.73421395     -0.606999993       10517.2852       1.57286906    
   1.04286098       1.56075203     -0.606999993       3188.72949       1.57243633    
   1.44430494       2.16155505     -0.517000020       3188.72949       1.57243633    
   1.83825099       1.83825099     -0.517000020       3188.72949       1.57243633    
   1.32730997       1.32730997     -0.606999993       3188.72949       1.57243633    
   1.32730997       1.32730997     -0.606999993       9263.01465       1.57287169    
  0.965201020      0.965201020     -0.606999993       9263.01465       1.57287169    
  0.758352995       1.13495600     -0.606999993       9263.01465       1.57287169    
   1.04286098       1.56075203     -0.606999993       9263.01465       1.57287169    
   1.32730997       1.32730997     -0.606999993       2581.66992       1.57244849    
   1.83825099       1.83825099     -0.517000020       2581.66992       1.57244849    
   2.16155505       1.44430494     -0.517000020       2581.66992       1.57244849    
   1.56075203       1.04286098     -0.606999993       2581.66992       1.57244849    
   1.56075203       1.04286098     -0.606999993       7586.63379       1.57288182    
   1.13495600      0.758352995     -0.606999993       7586.63379       1.57288182    
  0.965201020      0.965201020     -0.606999993       7586.63379       1.57288182    
   1.32730997       1.32730997     -0.606999993       7586.63379       1.57288182    
   1.56075203       1.04286098     -0.606999993       1821.73486       1.57249522    
   2.16155505       1.44430494     -0.517000020       1821.73486       1.57249522    
   2.40179110      0.994853973     -0.517000020       1821.73486       1.57249522    
   1.73421395      0.718334973     -0.606999993       1821.73486       1.57249522    
   1.73421395      0.718334973     -0.606999993       5584.88037       1.57290292    
   1.26109600      0.522363007     -0.606999993       5584.88037       1.57290292    
   1.13495600      0.758352995     -0.606999993       5584.88037       1.57290292    
   1.56075203       1.04286098     -0.606999993       5584.88037       1.57290292    
   1.73421395      0.718334973     -0.606999993       1054.18738       1.57258630    
   2.40179110      0.994853973     -0.517000020       1054.18738       1.57258630    
   2.54972792      0.507171988     -0.517000020       1054.18738       1.57258630    
   1.84103203      0.366203994     -0.606999993       1054.18738       1.57258630    
   1.84103203      0.366203994     -0.606999993       3397.77930       1.57293236    
   1.33877206      0.266297996     -0.606999993       3397.77930       1.57293236    
   1.26109600      0.522363007     -0.606999993       3397.77930       1.57293236    
   1.73421395      0.718334973     -0.606999993       3397.77930       1.57293236    
   1.84103203      0.366203994     -0.606999993       353.302826       1.57281637    
   2.54972792      0.507171988     -0.517000020       353.302826       1.57281637    
   2.59967995       0.00000000     -0.517000020       353.302826       1.57281637    
   1.87709999       0.00000000     -0.606999993       353.302826       1.57281637    
   1.87709999       0.00000000     -0.606999993       1130.36707       1.57298720    
   1.36500001       0.00000000     -0.606999993       1130.36707       1.57298720    
   1.33877206      0.266297996     -0.606999993       1130.36707       1.57298720    
   1.84103203      0.366203994     -0.606999993       1130.36707       1.57298720    
   1.87709999       0.00000000     -0.606999993       322.154083      -1.56927419    
   2.59967995       0.00000000     -0.517000020       322.154083      -1.56927419    
   2.54972792     -0.507171988     -0.517000020       322.154083      -1.56927419    
   1.84103203     -0.366203994     -0.606999993       322.154083      -1.56927419    
   1.84103203     -0.366203994     -0.606999993       1167.80603      -1.56873608    
   1.33877206     -0.266297996     -0.606999993       1167.80603      -1.56873608    
   1.36500001       0.00000000     -0.606999993       1167.80603      -1.56873608    
   1.87709999       0.00000000     -0.606999993       1167.80603      -1.56873608    
   1.84103203     -0.366203994     -0.606999993       1067.71753      -1.56914079    
   2.54972792     -0.507171988     -0.517000020       1067.71753      -1.56914079    
   2.40179110     -0.994853973     -0.517000020       1067.71753      -1.56914079    
   1.73421395     -0.718334973     -0.606999993       1067.71753      -1.56914079    
   1.73421395     -0.718334973     -0.606999993       3469.07275      -1.56870961    
   1.26109600     -0.522363007     -0.606999993       3469.07275      -1.56870961    
   1.33877206     -0.266297996     -0.606999993       3469.07275      -1.56870961    
   1.84103203     -0.366203994     -0.606999993       3469.07275      -1.56870961    
   1.73421395     -0.718334973     -0.606999993       1881.35718      -1.56914675    
   2.40179110     -0.994853973     -0.517000020       1881.35718      -1.56914675    
   2.16155505      -1.44430494     -0.517000020       1881.35718      -1.56914675    
   1.56075203      -1.04286098     -0.606999993       1881.35718      -1.56914675    
   1.56075203      -1.04286098     -0.606999993       5698.12061      -1.56871831    
   1.13495600     -0.758352995     -0.606999993       5698.12061      -1.56871831    
   1.26109600     -0.522363007     -0.606999993       5698.12061      -1.56871831    