 VARIABLES="X" "Y" "Z" "abs(p) (Pa)" "angle(p) (rad)"
ZONE N=   2709,E =    2358, F=FEPOINT, ET=QUADRILATERAL
   0.00000000      -5.48999977     -0.157000005       53.0694313       2.99234605    
   0.00000000      -4.76741982     -0.246999994       53.0694313       2.99234605    
  0.930077016      -4.67581606     -0.246999994       53.0694313       2.99234605    
   1.07104599      -5.38451099     -0.157000005       53.0694313       2.99234605    
  -1.07104599      -5.38451099     -0.157000005       52.7872086       2.99439478    
 -0.930077016      -4.67581606     -0.246999994       52.7872086       2.99439478    
   0.00000000      -4.76741982     -0.246999994       52.7872086       2.99439478    
   0.00000000      -5.48999977     -0.157000005       52.7872086       2.99439478    
  -2.10093188      -5.07209921     -0.157000005       50.3270493       2.93386245    
  -1.82441294      -4.40452194     -0.246999994       50.3270493       2.93386245    
 -0.930077016      -4.67581606     -0.246999994       50.3270493       2.93386245    
  -1.07104599      -5.38451099     -0.157000005       50.3270493       2.93386245    
  -3.05008101      -4.56476784     -0.157000005       47.4862595       3.01424384    
  -2.64863706      -3.96396494     -0.246999994       47.4862595       3.01424384    
  -1.82441294      -4.40452194     -0.246999994       47.4862595       3.01424384    
  -2.10093188      -5.07209921     -0.157000005       47.4862595       3.01424384    
  -3.88201594      -3.88201594     -0.157000005       42.4988899       2.98508739    
  -3.37107491      -3.37107491     -0.246999994       42.4988899       2.98508739    
  -2.64863706      -3.96396494     -0.246999994       42.4988899       2.98508739    
  -3.05008101      -4.56476784     -0.157000005       42.4988899       2.98508739    
  -4.56476784      -3.05008101     -0.157000005       35.1282425       2.86630297    
  -3.96396494      -2.64863706     -0.246999994       35.1282425       2.86630297    
  -3.37107491      -3.37107491     -0.246999994       35.1282425       2.86630297    
  -3.88201594      -3.88201594     -0.157000005       35.1282425       2.86630297    
  -5.07209921      -2.10093188     -0.157000005       26.3102837       2.95938301    
  -4.40452194      -1.82441294     -0.246999994       26.3102837       2.95938301    
  -3.96396494      -2.64863706     -0.246999994       26.3102837       2.95938301    
  -4.56476784      -3.05008101     -0.157000005       26.3102837       2.95938301    
  -5.38451099      -1.07104599     -0.157000005       16.1583328       3.05743933    
  -4.67581606     -0.930077016     -0.246999994       16.1583328       3.05743933    
  -4.40452194      -1.82441294     -0.246999994       16.1583328       3.05743933    
  -5.07209921      -2.10093188     -0.157000005       16.1583328       3.05743933    
  -5.48999977       0.00000000     -0.157000005       5.51439953      -3.12354803    
  -4.76741982       0.00000000     -0.246999994       5.51439953      -3.12354803    
  -4.67581606     -0.930077016     -0.246999994       5.51439953      -3.12354803    
  -5.38451099      -1.07104599     -0.157000005       5.51439953      -3.12354803    
  -5.38451099       1.07104599     -0.157000005       4.88991356     -0.245742470    
  -4.67581606      0.930077016     -0.246999994       4.88991356     -0.245742470    
  -4.76741982       0.00000000     -0.246999994       4.88991356     -0.245742470    
  -5.48999977       0.00000000     -0.157000005       4.88991356     -0.245742470    
  -5.07209921       2.10093188     -0.157000005       14.9982996     -0.187975034    
  -4.40452194       1.82441294     -0.246999994       14.9982996     -0.187975034    
  -4.67581606      0.930077016     -0.246999994       14.9982996     -0.187975034    
  -5.38451099       1.07104599     -0.157000005       14.9982996     -0.187975034    
  -4.56476784       3.05008101     -0.157000005       25.0225830     -0.225449413    
  -3.96396494       2.64863706     -0.246999994       25.0225830     -0.225449413    
  -4.40452194       1.82441294     -0.246999994       25.0225830     -0.225449413    
  -5.07209921       2.10093188     -0.157000005       25.0225830     -0.225449413    
  -3.88201594       3.88201594     -0.157000005       34.7128830     -0.187908083    
  -3.37107491       3.37107491     -0.246999994       34.7128830     -0.187908083    
  -3.96396494       2.64863706     -0.246999994       34.7128830     -0.187908083    
  -4.56476784       3.05008101     -0.157000005       34.7128830     -0.187908083    
  -3.05008101       4.56476784     -0.157000005       42.1217346     -0.249613598    
  -2.64863706       3.96396494     -0.246999994       42.1217346     -0.249613598    
  -3.37107491       3.37107491     -0.246999994       42.1217346     -0.249613598    
  -3.88201594       3.88201594     -0.157000005       42.1217346     -0.249613598    
  -2.10093188       5.07209921     -0.157000005       48.0335960     -0.156728879    
  -1.82441294       4.40452194     -0.246999994       48.0335960     -0.156728879    
  -2.64863706       3.96396494     -0.246999994       48.0335960     -0.156728879    
  -3.05008101       4.56476784     -0.157000005       48.0335960     -0.156728879    
  -1.07104599       5.38451099     -0.157000005       51.0590973     -0.224916235    
 -0.930077016       4.67581606     -0.246999994       51.0590973     -0.224916235    
  -1.82441294       4.40452194     -0.246999994       51.0590973     -0.224916235    
  -2.10093188       5.07209921     -0.157000005       51.0590973     -0.224916235    
   0.00000000       5.48999977     -0.157000005       53.0958824     -0.162777558    
   0.00000000       4.76741982     -0.246999994       53.0958824     -0.162777558    
 -0.930077016       4.67581606     -0.246999994       53.0958824     -0.162777558    
  -1.07104599       5.38451099     -0.157000005       53.0958824     -0.162777558    
   1.07104599       5.38451099     -0.157000005       52.4625893     -0.223083094    
  0.930077016       4.67581606     -0.246999994       52.4625893     -0.223083094    
   0.00000000       4.76741982     -0.246999994       52.4625893     -0.223083094    
   0.00000000       5.48999977     -0.157000005       52.4625893     -0.223083094    
   2.10093188       5.07209921     -0.157000005       51.4471207     -0.141502917    
   1.82441294       4.40452194     -0.246999994       51.4471207     -0.141502917    
  0.930077016       4.67581606     -0.246999994       51.4471207     -0.141502917    
   1.07104599       5.38451099     -0.157000005       51.4471207     -0.141502917    
   3.05008101       4.56476784     -0.157000005       48.3579369     -0.132838637    
   2.64863706       3.96396494     -0.246999994       48.3579369     -0.132838637    
   1.82441294       4.40452194     -0.246999994       48.3579369     -0.132838637    
   2.10093188       5.07209921     -0.157000005       48.3579369     -0.132838637    
   3.88201594       3.88201594     -0.157000005       42.8547173     -0.241512462    
   3.37107491       3.37107491     -0.246999994       42.8547173     -0.241512462    
   2.64863706       3.96396494     -0.246999994       42.8547173     -0.241512462    
   3.05008101       4.56476784     -0.157000005       42.8547173     -0.241512462    
   4.56476784       3.05008101     -0.157000005       35.5716286     -0.239773646    
   3.96396494       2.64863706     -0.246999994       35.5716286     -0.239773646    
   3.37107491       3.37107491     -0.246999994       35.5716286     -0.239773646    
   3.88201594       3.88201594     -0.157000005       35.5716286     -0.239773646    
   5.07209921       2.10093188     -0.157000005       25.8646584     -0.229408354    
   4.40452194       1.82441294     -0.246999994       25.8646584     -0.229408354    
   3.96396494       2.64863706     -0.246999994       25.8646584     -0.229408354    
   4.56476784       3.05008101     -0.157000005       25.8646584     -0.229408354    
   5.38451099       1.07104599     -0.157000005       15.5884895      -6.99754134E-02
   4.67581606      0.930077016     -0.246999994       15.5884895      -6.99754134E-02
   4.40452194       1.82441294     -0.246999994       15.5884895      -6.99754134E-02
   5.07209921       2.10093188     -0.157000005       15.5884895      -6.99754134E-02
   5.48999977       0.00000000     -0.157000005       4.83890009      0.101205423    
   4.76741982       0.00000000     -0.246999994       4.83890009      0.101205423    
   4.67581606      0.930077016     -0.246999994       4.83890009      0.101205423    
   5.38451099       1.07104599     -0.157000005       4.83890009      0.101205423    
   5.38451099      -1.07104599     -0.157000005       5.89568806       3.00242329    
   4.67581606     -0.930077016     -0.246999994       5.89568806       3.00242329    
   4.76741982       0.00000000     -0.246999994       5.89568806       3.00242329    
   5.48999977       0.00000000     -0.157000005       5.89568806       3.00242329    
   5.07209921      -2.10093188     -0.157000005       16.1101608       3.02346611    
   4.40452194      -1.82441294     -0.246999994       16.1101608       3.02346611    
   4.67581606     -0.930077016     -0.246999994       16.1101608       3.02346611    
   5.38451099      -1.07104599     -0.157000005       16.1101608       3.02346611    
   4.56476784      -3.05008101     -0.157000005       25.8489704       2.98522663    
   3.96396494      -2.64863706     -0.246999994       25.8489704       2.98522663    
   4.40452194      -1.82441294     -0.246999994       25.8489704       2.98522663    
   5.07209921      -2.10093188     -0.157000005       25.8489704       2.98522663    
   3.88201594      -3.88201594     -0.157000005       34.7231560       2.96133637    
   3.37107491      -3.37107491     -0.246999994       34.7231560       2.96133637    
   3.96396494      -2.64863706     -0.246999994       34.7231560       2.96133637    
   4.56476784      -3.05008101     -0.157000005       34.7231560       2.96133637    
   3.05008101      -4.56476784     -0.157000005       41.6232796       2.91185784    
   2.64863706      -3.96396494     -0.246999994       41.6232796       2.91185784    
   3.37107491      -3.37107491     -0.246999994       41.6232796       2.91185784    
   3.88201594      -3.88201594     -0.157000005       41.6232796       2.91185784    
   2.10093188      -5.07209921     -0.157000005       47.6382103       3.00372314    
   1.82441294      -4.40452194     -0.246999994       47.6382103       3.00372314    
   2.64863706      -3.96396494     -0.246999994       47.6382103       3.00372314    
   3.05008101      -4.56476784     -0.157000005       47.6382103       3.00372314    
   1.07104599      -5.38451099     -0.157000005       51.4439774       2.99654794    
  0.930077016      -4.67581606     -0.246999994       51.4439774       2.99654794    
   1.82441294      -4.40452194     -0.246999994       51.4439774       2.99654794    
   2.10093188      -5.07209921     -0.157000005       51.4439774       2.99654794    
   0.00000000      -1.87709999     -0.606999993       1599.05554       1.57773495    
   0.00000000      -1.36500001     -0.606999993       1599.05554       1.57773495    
  0.266297996      -1.33877206     -0.606999993       1599.05554       1.57773495    
  0.366203994      -1.84103203     -0.606999993       1599.05554       1.57773495    
   0.00000000      -1.87709999     -0.606999993       836.297302       1.58226967    
   0.00000000      -2.59967995     -0.517000020       836.297302       1.58226967    
 -0.507171988      -2.54972792     -0.517000020       836.297302       1.58226967    
 -0.366203994      -1.84103203     -0.606999993       836.297302       1.58226967    
 -0.366203994      -1.84103203     -0.606999993       1599.92017       1.57772529    
 -0.266297996      -1.33877206     -0.606999993       1599.92017       1.57772529    
   0.00000000      -1.36500001     -0.606999993       1599.92017       1.57772529    
   0.00000000      -1.87709999     -0.606999993       1599.92017       1.57772529    
 -0.366203994      -1.84103203     -0.606999993       812.865906       1.58214009    
 -0.507171988      -2.54972792     -0.517000020       812.865906       1.58214009    
 -0.994853973      -2.40179110     -0.517000020       812.865906       1.58214009    
 -0.718334973      -1.73421395     -0.606999993       812.865906       1.58214009    
 -0.718334973      -1.73421395     -0.606999993       1547.09668       1.57769716    
 -0.522363007      -1.26109600     -0.606999993       1547.09668       1.57769716    
 -0.266297996      -1.33877206     -0.606999993       1547.09668       1.57769716    
 -0.366203994      -1.84103203     -0.606999993       1547.09668       1.57769716    
 -0.718334973      -1.73421395     -0.606999993       763.436829       1.58197653    
 -0.994853973      -2.40179110     -0.517000020       763.436829       1.58197653    
  -1.44430494      -2.16155505     -0.517000020       763.436829       1.58197653    
  -1.04286098      -1.56075203     -0.606999993       763.436829       1.58197653    
  -1.04286098      -1.56075203     -0.606999993       1438.54443       1.57766962    
 -0.758352995      -1.13495600     -0.606999993       1438.54443       1.57766962    
 -0.522363007      -1.26109600     -0.606999993       1438.54443       1.57766962    
 -0.718334973      -1.73421395     -0.606999993       1438.54443       1.57766962    
  -1.04286098      -1.56075203     -0.606999993       682.156250       1.58188152    
  -1.44430494      -2.16155505     -0.517000020       682.156250       1.58188152    
  -1.83825099      -1.83825099     -0.517000020       682.156250       1.58188152    
  -1.32730997      -1.32730997     -0.606999993       682.156250       1.58188152    
  -1.32730997      -1.32730997     -0.606999993       1271.88904       1.57767189    
 -0.965201020     -0.965201020     -0.606999993       1271.88904       1.57767189    
 -0.758352995      -1.13495600     -0.606999993       1271.88904       1.57767189    
  -1.04286098      -1.56075203     -0.606999993       1271.88904       1.57767189    
  -1.32730997      -1.32730997     -0.606999993       564.235962       1.58193457    
  -1.83825099      -1.83825099     -0.517000020       564.235962       1.58193457    
  -2.16155505      -1.44430494     -0.517000020       564.235962       1.58193457    
  -1.56075203      -1.04286098     -0.606999993       564.235962       1.58193457    
  -1.56075203      -1.04286098     -0.606999993       1049.30981       1.57771587    
  -1.13495600     -0.758352995     -0.606999993       1049.30981       1.57771587    
 -0.965201020     -0.965201020     -0.606999993       1049.30981       1.57771587    
  -1.32730997      -1.32730997     -0.606999993       1049.30981       1.57771587    
  -1.56075203      -1.04286098     -0.606999993       413.411591       1.58219218    
  -2.16155505      -1.44430494     -0.517000020       413.411591       1.58219218    
  -2.40179110     -0.994853973     -0.517000020       413.411591       1.58219218    
  -1.73421395     -0.718334973     -0.606999993       413.411591       1.58219218    
  -1.73421395     -0.718334973     -0.606999993       780.572571       1.57780695    
  -1.26109600     -0.522363007     -0.606999993       780.572571       1.57780695    
  -1.13495600     -0.758352995     -0.606999993       780.572571       1.57780695    
  -1.56075203      -1.04286098     -0.606999993       780.572571       1.57780695    
  -1.73421395     -0.718334973     -0.606999993       248.134918       1.58257806    
  -2.40179110     -0.994853973     -0.517000020       248.134918       1.58257806    
  -2.54972792     -0.507171988     -0.517000020       248.134918       1.58257806    
  -1.84103203     -0.366203994     -0.606999993       248.134918       1.58257806    
  -1.84103203     -0.366203994     -0.606999993       482.491058       1.57795703    
  -1.33877206     -0.266297996     -0.606999993       482.491058       1.57795703    
  -1.26109600     -0.522363007     -0.606999993       482.491058       1.57795703    
  -1.73421395     -0.718334973     -0.606999993       482.491058       1.57795703    
  -1.84103203     -0.366203994     -0.606999993       85.2825089       1.58318746    
  -2.54972792     -0.507171988     -0.517000020       85.2825089       1.58318746    
  -2.59967995       0.00000000     -0.517000020       85.2825089       1.58318746    
  -1.87709999       0.00000000     -0.606999993       85.2825089       1.58318746    
  -1.87709999       0.00000000     -0.606999993       171.289276       1.57842803    
  -1.36500001       0.00000000     -0.606999993       171.289276       1.57842803    
  -1.33877206     -0.266297996     -0.606999993       171.289276       1.57842803    
  -1.84103203     -0.366203994     -0.606999993       171.289276       1.57842803    
  -1.87709999       0.00000000     -0.606999993       70.8090897      -1.55922043    
  -2.59967995       0.00000000     -0.517000020       70.8090897      -1.55922043    
  -2.54972792      0.507171988     -0.517000020       70.8090897      -1.55922043    
  -1.84103203      0.366203994     -0.606999993       70.8090897      -1.55922043    
  -1.84103203      0.366203994     -0.606999993       142.089020      -1.56448674    
  -1.33877206      0.266297996     -0.606999993       142.089020      -1.56448674    
  -1.36500001       0.00000000     -0.606999993       142.089020      -1.56448674    
  -1.87709999       0.00000000     -0.606999993       142.089020      -1.56448674    
  -1.84103203      0.366203994     -0.606999993       229.745224      -1.55907512    
  -2.54972792      0.507171988     -0.517000020       229.745224      -1.55907512    
  -2.40179110      0.994853973     -0.517000020       229.745224      -1.55907512    
  -1.73421395      0.718334973     -0.606999993       229.745224      -1.55907512    
  -1.73421395      0.718334973     -0.606999993       452.429779      -1.56398582    
  -1.26109600      0.522363007     -0.606999993       452.429779      -1.56398582    
  -1.33877206      0.266297996     -0.606999993       452.429779      -1.56398582    
  -1.84103203      0.366203994     -0.606999993       452.429779      -1.56398582    
  -1.73421395      0.718334973     -0.606999993       392.566223      -1.55929446    
  -2.40179110      0.994853973     -0.517000020       392.566223      -1.55929446    
  -2.16155505       1.44430494     -0.517000020       392.566223      -1.55929446    
  -1.56075203       1.04286098     -0.606999993       392.566223      -1.55929446    
  -1.56075203       1.04286098     -0.606999993       751.287903      -1.56390750    
  -1.13495600      0.758352995     -0.606999993       751.287903      -1.56390750    
  -1.26109600      0.522363007     -0.606999993       751.287903      -1.56390750    
  -1.73421395      0.718334973     -0.606999993       751.287903      -1.56390750    
  -1.56075203       1.04286098     -0.606999993       546.306702      -1.55952108    
  -2.16155505       1.44430494     -0.517000020       546.306702      -1.55952108    
  -1.83825099       1.83825099     -0.517000020       546.306702      -1.55952108    
  -1.32730997       1.32730997     -0.606999993       546.306702      -1.55952108    
  -1.32730997       1.32730997     -0.606999993       1024.45129      -1.56388867    
 -0.965201020      0.965201020     -0.606999993       1024.45129      -1.56388867    
  -1.13495600      0.758352995     -0.606999993       1024.45129      -1.56388867    
  -1.56075203       1.04286098     -0.606999993       1024.45129      -1.56388867    
  -1.32730997       1.32730997     -0.606999993       671.156921      -1.55958569    
  -1.83825099       1.83825099     -0.517000020       671.156921      -1.55958569    
  -1.44430494       2.16155505     -0.517000020       671.156921      -1.55958569    
  -1.04286098       1.56075203     -0.606999993       671.156921      -1.55958569    
  -1.04286098       1.56075203     -0.606999993       1254.51379      -1.56386685    
 -0.758352995       1.13495600     -0.606999993       1254.51379      -1.56386685    
 -0.965201020      0.965201020     -0.606999993       1254.51379      -1.56386685    
  -1.32730997       1.32730997     -0.606999993       1254.51379      -1.56386685    
  -1.04286098       1.56075203     -0.606999993       759.367249      -1.55950797    
  -1.44430494       2.16155505     -0.517000020       759.367249      -1.55950797    
 -0.994853973       2.40179110     -0.517000020       759.367249      -1.55950797    
 -0.718334973       1.73421395     -0.606999993       759.367249      -1.55950797    
 -0.718334973       1.73421395     -0.606999993       1429.81445      -1.56382620    
 -0.522363007       1.26109600     -0.606999993       1429.81445      -1.56382620    
 -0.758352995       1.13495600     -0.606999993       1429.81445      -1.56382620    
  -1.04286098       1.56075203     -0.606999993       1429.81445      -1.56382620    
 -0.718334973       1.73421395     -0.606999993       813.620728      -1.55934370    
 -0.994853973       2.40179110     -0.517000020       813.620728      -1.55934370    
 -0.507171988       2.54972792     -0.517000020       813.620728      -1.55934370    
 -0.366203994       1.84103203     -0.606999993       813.620728      -1.55934370    
 -0.366203994       1.84103203     -0.606999993       1545.81519      -1.56377089    
 -0.266297996       1.33877206     -0.606999993       1545.81519      -1.56377089    
 -0.522363007       1.26109600     -0.606999993       1545.81519      -1.56377089    
 -0.718334973       1.73421395     -0.606999993       1545.81519      -1.56377089    
 -0.366203994       1.84103203     -0.606999993       839.744812      -1.55921090    
 -0.507171988       2.54972792     -0.517000020       839.744812      -1.55921090    
   0.00000000       2.59967995     -0.517000020       839.744812      -1.55921090    
   0.00000000       1.87709999     -0.606999993       839.744812      -1.55921090    
   0.00000000       1.87709999     -0.606999993       1603.42261      -1.56372631    
   0.00000000       1.36500001     -0.606999993       1603.42261      -1.56372631    
 -0.266297996       1.33877206     -0.606999993       1603.42261      -1.56372631    
 -0.366203994       1.84103203     -0.606999993       1603.42261      -1.56372631    
   0.00000000       1.87709999     -0.606999993       840.143433      -1.55919206    
   0.00000000       2.59967995     -0.517000020       840.143433      -1.55919206    
  0.507171988       2.54972792     -0.517000020       840.143433      -1.55919206    
  0.366203994       1.84103203     -0.606999993       840.143433      -1.55919206    
  0.366203994       1.84103203     -0.606999993       1603.97473      -1.56371009    
  0.266297996       1.33877206     -0.606999993       1603.97473      -1.56371009    
   0.00000000       1.36500001     -0.606999993       1603.97473      -1.56371009    
   0.00000000       1.87709999     -0.606999993       1603.97473      -1.56371009    
  0.366203994       1.84103203     -0.606999993       814.822205      -1.55929089    
  0.507171988       2.54972792     -0.517000020       814.822205      -1.55929089    
  0.994853973       2.40179110     -0.517000020       814.822205      -1.55929089    
  0.718334973       1.73421395     -0.606999993       814.822205      -1.55929089    
  0.718334973       1.73421395     -0.606999993       1547.46875      -1.56372511    
  0.522363007       1.26109600     -0.606999993       1547.46875      -1.56372511    
  0.266297996       1.33877206     -0.606999993       1547.46875      -1.56372511    
  0.366203994       1.84103203     -0.606999993       1547.46875      -1.56372511    
  0.718334973       1.73421395     -0.606999993       761.397888      -1.55942261    
  0.994853973       2.40179110     -0.517000020       761.397888      -1.55942261    
   1.44430494       2.16155505     -0.517000020       761.397888      -1.55942261    
   1.04286098       1.56075203     -0.606999993       761.397888      -1.55942261    
   1.04286098       1.56075203     -0.606999993       1432.51965      -1.56375182    
  0.758352995       1.13495600     -0.606999993       1432.51965      -1.56375182    
  0.522363007       1.26109600     -0.606999993       1432.51965      -1.56375182    
  0.718334973       1.73421395     -0.606999993       1432.51965      -1.56375182    
   1.04286098       1.56075203     -0.606999993       674.035461      -1.55947316    
   1.44430494       2.16155505     -0.517000020       674.035461      -1.55947316    
   1.83825099       1.83825099     -0.517000020       674.035461      -1.55947316    
   1.32730997       1.32730997     -0.606999993       674.035461      -1.55947316    
   1.32730997       1.32730997     -0.606999993       1258.25842      -1.56376493    
  0.965201020      0.965201020     -0.606999993       1258.25842      -1.56376493    
  0.758352995       1.13495600     -0.606999993       1258.25842      -1.56376493    
   1.04286098       1.56075203     -0.606999993       1258.25842      -1.56376493    
   1.32730997       1.32730997     -0.606999993       549.914001      -1.55938101    
   1.83825099       1.83825099     -0.517000020       549.914001      -1.55938101    
   2.16155505       1.44430494     -0.517000020       549.914001      -1.55938101    
   1.56075203       1.04286098     -0.606999993       549.914001      -1.55938101    
   1.56075203       1.04286098     -0.606999993       1029.07361      -1.56376064    
   1.13495600      0.758352995     -0.606999993       1029.07361      -1.56376064    
  0.965201020      0.965201020     -0.606999993       1029.07361      -1.56376064    
   1.32730997       1.32730997     -0.606999993       1029.07361      -1.56376064    
   1.56075203       1.04286098     -0.606999993       396.648712      -1.55913723    
   2.16155505       1.44430494     -0.517000020       396.648712      -1.55913723    
   2.40179110      0.994853973     -0.517000020       396.648712      -1.55913723    
   1.73421395      0.718334973     -0.606999993       396.648712      -1.55913723    
   1.73421395      0.718334973     -0.606999993       756.385193      -1.56375408    
   1.26109600      0.522363007     -0.606999993       756.385193      -1.56375408    
   1.13495600      0.758352995     -0.606999993       756.385193      -1.56375408    
   1.56075203       1.04286098     -0.606999993       756.385193      -1.56375408    
   1.73421395      0.718334973     -0.606999993       234.057755      -1.55890274    
   2.40179110      0.994853973     -0.517000020       234.057755      -1.55890274    
   2.54972792      0.507171988     -0.517000020       234.057755      -1.55890274    
   1.84103203      0.366203994     -0.606999993       234.057755      -1.55890274    
   1.84103203      0.366203994     -0.606999993       457.799530      -1.56379247    
   1.33877206      0.266297996     -0.606999993       457.799530      -1.56379247    
   1.26109600      0.522363007     -0.606999993       457.799530      -1.56379247    
   1.73421395      0.718334973     -0.606999993       457.799530      -1.56379247    
   1.84103203      0.366203994     -0.606999993       75.2250443      -1.55903137    
   2.54972792      0.507171988     -0.517000020       75.2250443      -1.55903137    
   2.59967995       0.00000000     -0.517000020       75.2250443      -1.55903137    
   1.87709999       0.00000000     -0.606999993       75.2250443      -1.55903137    
   1.87709999       0.00000000     -0.606999993       147.680588      -1.56411505    
   1.36500001       0.00000000     -0.606999993       147.680588      -1.56411505    
   1.33877206      0.266297996     -0.606999993       147.680588      -1.56411505    
   1.84103203      0.366203994     -0.606999993       147.680588      -1.56411505    
   1.87709999       0.00000000     -0.606999993       80.8583145       1.58335280    
   2.59967995       0.00000000     -0.517000020       80.8583145       1.58335280    
   2.54972792     -0.507171988     -0.517000020       80.8583145       1.58335280    
   1.84103203     -0.366203994     -0.606999993       80.8583145       1.58335280    
   1.84103203     -0.366203994     -0.606999993       165.618393       1.57836437    
   1.33877206     -0.266297996     -0.606999993       165.618393       1.57836437    
   1.36500001       0.00000000     -0.606999993       165.618393       1.57836437    
   1.87709999       0.00000000     -0.606999993       165.618393       1.57836437    
   1.84103203     -0.366203994     -0.606999993       243.797455       1.58268762    
   2.54972792     -0.507171988     -0.517000020       243.797455       1.58268762    
   2.40179110     -0.994853973     -0.517000020       243.797455       1.58268762    
   1.73421395     -0.718334973     -0.606999993       243.797455       1.58268762    
   1.73421395     -0.718334973     -0.606999993       476.956116       1.57800317    
   1.26109600     -0.522363007     -0.606999993       476.956116       1.57800317    
   1.33877206     -0.266297996     -0.606999993       476.956116       1.57800317    
   1.84103203     -0.366203994     -0.606999993       476.956116       1.57800317    
   1.73421395     -0.718334973     -0.606999993       409.276337       1.58227658    
   2.40179110     -0.994853973     -0.517000020       409.276337       1.58227658    
   2.16155505      -1.44430494     -0.517000020       409.276337       1.58227658    
   1.56075203      -1.04286098     -0.606999993       409.276337       1.58227658    
   1.56075203      -1.04286098     -0.606999993       775.401306       1.57786596    
   1.13495600     -0.758352995     -0.606999993       775.401306       1.57786596    
   1.26109600     -0.522363007     -0.606999993       775.401306       1.57786596    