 VARIABLES="X" "Y" "Z" "abs(p) (Pa)" "angle(p) (rad)"
ZONE N=   2709,E =    2358, F=FEPOINT, ET=QUADRILATERAL
   0.00000000      -5.48999977     -0.157000005       4170.33936      -1.29835427    
   0.00000000      -4.76741982     -0.246999994       4170.33936      -1.29835427    
  0.930077016      -4.67581606     -0.246999994       4170.33936      -1.29835427    
   1.07104599      -5.38451099     -0.157000005       4170.33936      -1.29835427    
  -1.07104599      -5.38451099     -0.157000005       4174.20166      -1.29874277    
 -0.930077016      -4.67581606     -0.246999994       4174.20166      -1.29874277    
   0.00000000      -4.76741982     -0.246999994       4174.20166      -1.29874277    
   0.00000000      -5.48999977     -0.157000005       4174.20166      -1.29874277    
  -2.10093188      -5.07209921     -0.157000005       4057.65576      -1.30420232    
  -1.82441294      -4.40452194     -0.246999994       4057.65576      -1.30420232    
 -0.930077016      -4.67581606     -0.246999994       4057.65576      -1.30420232    
  -1.07104599      -5.38451099     -0.157000005       4057.65576      -1.30420232    
  -3.05008101      -4.56476784     -0.157000005       3704.51392      -1.29897439    
  -2.64863706      -3.96396494     -0.246999994       3704.51392      -1.29897439    
  -1.82441294      -4.40452194     -0.246999994       3704.51392      -1.29897439    
  -2.10093188      -5.07209921     -0.157000005       3704.51392      -1.29897439    
  -3.88201594      -3.88201594     -0.157000005       3250.09888      -1.29899573    
  -3.37107491      -3.37107491     -0.246999994       3250.09888      -1.29899573    
  -2.64863706      -3.96396494     -0.246999994       3250.09888      -1.29899573    
  -3.05008101      -4.56476784     -0.157000005       3250.09888      -1.29899573    
  -4.56476784      -3.05008101     -0.157000005       2707.75659      -1.30634832    
  -3.96396494      -2.64863706     -0.246999994       2707.75659      -1.30634832    
  -3.37107491      -3.37107491     -0.246999994       2707.75659      -1.30634832    
  -3.88201594      -3.88201594     -0.157000005       2707.75659      -1.30634832    
  -5.07209921      -2.10093188     -0.157000005       1989.68628      -1.30039215    
  -4.40452194      -1.82441294     -0.246999994       1989.68628      -1.30039215    
  -3.96396494      -2.64863706     -0.246999994       1989.68628      -1.30039215    
  -4.56476784      -3.05008101     -0.157000005       1989.68628      -1.30039215    
  -5.38451099      -1.07104599     -0.157000005       1217.82751      -1.29738343    
  -4.67581606     -0.930077016     -0.246999994       1217.82751      -1.29738343    
  -4.40452194      -1.82441294     -0.246999994       1217.82751      -1.29738343    
  -5.07209921      -2.10093188     -0.157000005       1217.82751      -1.29738343    
  -5.48999977       0.00000000     -0.157000005       408.532532      -1.29555047    
  -4.76741982       0.00000000     -0.246999994       408.532532      -1.29555047    
  -4.67581606     -0.930077016     -0.246999994       408.532532      -1.29555047    
  -5.38451099      -1.07104599     -0.157000005       408.532532      -1.29555047    
  -5.38451099       1.07104599     -0.157000005       426.550629       1.82786536    
  -4.67581606      0.930077016     -0.246999994       426.550629       1.82786536    
  -4.76741982       0.00000000     -0.246999994       426.550629       1.82786536    
  -5.48999977       0.00000000     -0.157000005       426.550629       1.82786536    
  -5.07209921       2.10093188     -0.157000005       1245.77258       1.83347082    
  -4.40452194       1.82441294     -0.246999994       1245.77258       1.83347082    
  -4.67581606      0.930077016     -0.246999994       1245.77258       1.83347082    
  -5.38451099       1.07104599     -0.157000005       1245.77258       1.83347082    
  -4.56476784       3.05008101     -0.157000005       2013.68127       1.83543026    
  -3.96396494       2.64863706     -0.246999994       2013.68127       1.83543026    
  -4.40452194       1.82441294     -0.246999994       2013.68127       1.83543026    
  -5.07209921       2.10093188     -0.157000005       2013.68127       1.83543026    
  -3.88201594       3.88201594     -0.157000005       2676.38623       1.84144783    
  -3.37107491       3.37107491     -0.246999994       2676.38623       1.84144783    
  -3.96396494       2.64863706     -0.246999994       2676.38623       1.84144783    
  -4.56476784       3.05008101     -0.157000005       2676.38623       1.84144783    
  -3.05008101       4.56476784     -0.157000005       3288.03784       1.83675647    
  -2.64863706       3.96396494     -0.246999994       3288.03784       1.83675647    
  -3.37107491       3.37107491     -0.246999994       3288.03784       1.83675647    
  -3.88201594       3.88201594     -0.157000005       3288.03784       1.83675647    
  -2.10093188       5.07209921     -0.157000005       3711.38623       1.84189475    
  -1.82441294       4.40452194     -0.246999994       3711.38623       1.84189475    
  -2.64863706       3.96396494     -0.246999994       3711.38623       1.84189475    
  -3.05008101       4.56476784     -0.157000005       3711.38623       1.84189475    
  -1.07104599       5.38451099     -0.157000005       4062.26001       1.83725047    
 -0.930077016       4.67581606     -0.246999994       4062.26001       1.83725047    
  -1.82441294       4.40452194     -0.246999994       4062.26001       1.83725047    
  -2.10093188       5.07209921     -0.157000005       4062.26001       1.83725047    
   0.00000000       5.48999977     -0.157000005       4183.52148       1.84242082    
   0.00000000       4.76741982     -0.246999994       4183.52148       1.84242082    
 -0.930077016       4.67581606     -0.246999994       4183.52148       1.84242082    
  -1.07104599       5.38451099     -0.157000005       4183.52148       1.84242082    
   1.07104599       5.38451099     -0.157000005       4221.92969       1.83794415    
  0.930077016       4.67581606     -0.246999994       4221.92969       1.83794415    
   0.00000000       4.76741982     -0.246999994       4221.92969       1.83794415    
   0.00000000       5.48999977     -0.157000005       4221.92969       1.83794415    
   2.10093188       5.07209921     -0.157000005       4019.99292       1.84354806    
   1.82441294       4.40452194     -0.246999994       4019.99292       1.84354806    
  0.930077016       4.67581606     -0.246999994       4019.99292       1.84354806    
   1.07104599       5.38451099     -0.157000005       4019.99292       1.84354806    
   3.05008101       4.56476784     -0.157000005       3706.15601       1.84398568    
   2.64863706       3.96396494     -0.246999994       3706.15601       1.84398568    
   1.82441294       4.40452194     -0.246999994       3706.15601       1.84398568    
   2.10093188       5.07209921     -0.157000005       3706.15601       1.84398568    
   3.88201594       3.88201594     -0.157000005       3292.13623       1.83777523    
   3.37107491       3.37107491     -0.246999994       3292.13623       1.83777523    
   2.64863706       3.96396494     -0.246999994       3292.13623       1.83777523    
   3.05008101       4.56476784     -0.157000005       3292.13623       1.83777523    
   4.56476784       3.05008101     -0.157000005       2702.79272       1.83840227    
   3.96396494       2.64863706     -0.246999994       2702.79272       1.83840227    
   3.37107491       3.37107491     -0.246999994       2702.79272       1.83840227    
   3.88201594       3.88201594     -0.157000005       2702.79272       1.83840227    
   5.07209921       2.10093188     -0.157000005       2016.83130       1.83695650    
   4.40452194       1.82441294     -0.246999994       2016.83130       1.83695650    
   3.96396494       2.64863706     -0.246999994       2016.83130       1.83695650    
   4.56476784       3.05008101     -0.157000005       2016.83130       1.83695650    
   5.38451099       1.07104599     -0.157000005       1225.24841       1.84527814    
   4.67581606      0.930077016     -0.246999994       1225.24841       1.84527814    
   4.40452194       1.82441294     -0.246999994       1225.24841       1.84527814    
   5.07209921       2.10093188     -0.157000005       1225.24841       1.84527814    
   5.48999977       0.00000000     -0.157000005       409.460571       1.85599148    
   4.76741982       0.00000000     -0.246999994       409.460571       1.85599148    
   4.67581606      0.930077016     -0.246999994       409.460571       1.85599148    
   5.38451099       1.07104599     -0.157000005       409.460571       1.85599148    
   5.38451099      -1.07104599     -0.157000005       416.348816      -1.31004405    
   4.67581606     -0.930077016     -0.246999994       416.348816      -1.31004405    
   4.76741982       0.00000000     -0.246999994       416.348816      -1.31004405    
   5.48999977       0.00000000     -0.157000005       416.348816      -1.31004405    
   5.07209921      -2.10093188     -0.157000005       1224.64661      -1.30152977    
   4.40452194      -1.82441294     -0.246999994       1224.64661      -1.30152977    
   4.67581606     -0.930077016     -0.246999994       1224.64661      -1.30152977    
   5.38451099      -1.07104599     -0.157000005       1224.64661      -1.30152977    
   4.56476784      -3.05008101     -0.157000005       1985.02161      -1.29985225    
   3.96396494      -2.64863706     -0.246999994       1985.02161      -1.29985225    
   4.40452194      -1.82441294     -0.246999994       1985.02161      -1.29985225    
   5.07209921      -2.10093188     -0.157000005       1985.02161      -1.29985225    
   3.88201594      -3.88201594     -0.157000005       2671.13232      -1.29985440    
   3.37107491      -3.37107491     -0.246999994       2671.13232      -1.29985440    
   3.96396494      -2.64863706     -0.246999994       2671.13232      -1.29985440    
   4.56476784      -3.05008101     -0.157000005       2671.13232      -1.29985440    
   3.05008101      -4.56476784     -0.157000005       3285.36914      -1.30504215    
   2.64863706      -3.96396494     -0.246999994       3285.36914      -1.30504215    
   3.37107491      -3.37107491     -0.246999994       3285.36914      -1.30504215    
   3.88201594      -3.88201594     -0.157000005       3285.36914      -1.30504215    
   2.10093188      -5.07209921     -0.157000005       3704.24512      -1.29932368    
   1.82441294      -4.40452194     -0.246999994       3704.24512      -1.29932368    
   2.64863706      -3.96396494     -0.246999994       3704.24512      -1.29932368    
   3.05008101      -4.56476784     -0.157000005       3704.24512      -1.29932368    
   1.07104599      -5.38451099     -0.157000005       4011.42651      -1.29848695    
  0.930077016      -4.67581606     -0.246999994       4011.42651      -1.29848695    
   1.82441294      -4.40452194     -0.246999994       4011.42651      -1.29848695    
   2.10093188      -5.07209921     -0.157000005       4011.42651      -1.29848695    
   0.00000000      -1.87709999     -0.606999993       3595.63062      -1.50717258    
   0.00000000      -1.36500001     -0.606999993       3595.63062      -1.50717258    
  0.266297996      -1.33877206     -0.606999993       3595.63062      -1.50717258    
  0.366203994      -1.84103203     -0.606999993       3595.63062      -1.50717258    
   0.00000000      -1.87709999     -0.606999993       4017.32544      -1.49793839    
   0.00000000      -2.59967995     -0.517000020       4017.32544      -1.49793839    
 -0.507171988      -2.54972792     -0.517000020       4017.32544      -1.49793839    
 -0.366203994      -1.84103203     -0.606999993       4017.32544      -1.49793839    
 -0.366203994      -1.84103203     -0.606999993       3597.31958      -1.50715983    
 -0.266297996      -1.33877206     -0.606999993       3597.31958      -1.50715983    
   0.00000000      -1.36500001     -0.606999993       3597.31958      -1.50715983    
   0.00000000      -1.87709999     -0.606999993       3597.31958      -1.50715983    
 -0.366203994      -1.84103203     -0.606999993       3852.75146      -1.49764991    
 -0.507171988      -2.54972792     -0.517000020       3852.75146      -1.49764991    
 -0.994853973      -2.40179110     -0.517000020       3852.75146      -1.49764991    
 -0.718334973      -1.73421395     -0.606999993       3852.75146      -1.49764991    
 -0.718334973      -1.73421395     -0.606999993       3455.81177      -1.50691724    
 -0.522363007      -1.26109600     -0.606999993       3455.81177      -1.50691724    
 -0.266297996      -1.33877206     -0.606999993       3455.81177      -1.50691724    
 -0.366203994      -1.84103203     -0.606999993       3455.81177      -1.50691724    
 -0.718334973      -1.73421395     -0.606999993       3542.62695      -1.49722385    
 -0.994853973      -2.40179110     -0.517000020       3542.62695      -1.49722385    
  -1.44430494      -2.16155505     -0.517000020       3542.62695      -1.49722385    
  -1.04286098      -1.56075203     -0.606999993       3542.62695      -1.49722385    
  -1.04286098      -1.56075203     -0.606999993       3182.10938      -1.50658143    
 -0.758352995      -1.13495600     -0.606999993       3182.10938      -1.50658143    
 -0.522363007      -1.26109600     -0.606999993       3182.10938      -1.50658143    
 -0.718334973      -1.73421395     -0.606999993       3182.10938      -1.50658143    
  -1.04286098      -1.56075203     -0.606999993       3106.80347      -1.49689722    
  -1.44430494      -2.16155505     -0.517000020       3106.80347      -1.49689722    
  -1.83825099      -1.83825099     -0.517000020       3106.80347      -1.49689722    
  -1.32730997      -1.32730997     -0.606999993       3106.80347      -1.49689722    
  -1.32730997      -1.32730997     -0.606999993       2790.37915      -1.50628924    
 -0.965201020     -0.965201020     -0.606999993       2790.37915      -1.50628924    
 -0.758352995      -1.13495600     -0.606999993       2790.37915      -1.50628924    
  -1.04286098      -1.56075203     -0.606999993       2790.37915      -1.50628924    
  -1.32730997      -1.32730997     -0.606999993       2556.80273      -1.49687958    
  -1.83825099      -1.83825099     -0.517000020       2556.80273      -1.49687958    
  -2.16155505      -1.44430494     -0.517000020       2556.80273      -1.49687958    
  -1.56075203      -1.04286098     -0.606999993       2556.80273      -1.49687958    
  -1.56075203      -1.04286098     -0.606999993       2293.80688      -1.50619197    
  -1.13495600     -0.758352995     -0.606999993       2293.80688      -1.50619197    
 -0.965201020     -0.965201020     -0.606999993       2293.80688      -1.50619197    
  -1.32730997      -1.32730997     -0.606999993       2293.80688      -1.50619197    
  -1.56075203      -1.04286098     -0.606999993       1904.38745      -1.49725461    
  -2.16155505      -1.44430494     -0.517000020       1904.38745      -1.49725461    
  -2.40179110     -0.994853973     -0.517000020       1904.38745      -1.49725461    
  -1.73421395     -0.718334973     -0.606999993       1904.38745      -1.49725461    
  -1.73421395     -0.718334973     -0.606999993       1707.38586      -1.50628746    
  -1.26109600     -0.522363007     -0.606999993       1707.38586      -1.50628746    
  -1.13495600     -0.758352995     -0.606999993       1707.38586      -1.50628746    
  -1.56075203      -1.04286098     -0.606999993       1707.38586      -1.50628746    
  -1.73421395     -0.718334973     -0.606999993       1171.83887      -1.49772203    
  -2.40179110     -0.994853973     -0.517000020       1171.83887      -1.49772203    
  -2.54972792     -0.507171988     -0.517000020       1171.83887      -1.49772203    
  -1.84103203     -0.366203994     -0.606999993       1171.83887      -1.49772203    
  -1.84103203     -0.366203994     -0.606999993       1051.61902      -1.50627196    
  -1.33877206     -0.266297996     -0.606999993       1051.61902      -1.50627196    
  -1.26109600     -0.522363007     -0.606999993       1051.61902      -1.50627196    
  -1.73421395     -0.718334973     -0.606999993       1051.61902      -1.50627196    
  -1.84103203     -0.366203994     -0.606999993       392.724396      -1.49710453    
  -2.54972792     -0.507171988     -0.517000020       392.724396      -1.49710453    
  -2.59967995       0.00000000     -0.517000020       392.724396      -1.49710453    
  -1.87709999       0.00000000     -0.606999993       392.724396      -1.49710453    
  -1.87709999       0.00000000     -0.606999993       353.272034      -1.50445664    
  -1.36500001       0.00000000     -0.606999993       353.272034      -1.50445664    
  -1.33877206     -0.266297996     -0.606999993       353.272034      -1.50445664    
  -1.84103203     -0.366203994     -0.606999993       353.272034      -1.50445664    
  -1.87709999       0.00000000     -0.606999993       400.235474       1.64071405    
  -2.59967995       0.00000000     -0.517000020       400.235474       1.64071405    
  -2.54972792      0.507171988     -0.517000020       400.235474       1.64071405    
  -1.84103203      0.366203994     -0.606999993       400.235474       1.64071405    
  -1.84103203      0.366203994     -0.606999993       359.163025       1.63054812    
  -1.33877206      0.266297996     -0.606999993       359.163025       1.63054812    
  -1.36500001       0.00000000     -0.606999993       359.163025       1.63054812    
  -1.87709999       0.00000000     -0.606999993       359.163025       1.63054812    
  -1.84103203      0.366203994     -0.606999993       1179.37866       1.64228582    
  -2.54972792      0.507171988     -0.517000020       1179.37866       1.64228582    
  -2.40179110      0.994853973     -0.517000020       1179.37866       1.64228582    
  -1.73421395      0.718334973     -0.606999993       1179.37866       1.64228582    
  -1.73421395      0.718334973     -0.606999993       1057.81458       1.63287771    
  -1.26109600      0.522363007     -0.606999993       1057.81458       1.63287771    
  -1.33877206      0.266297996     -0.606999993       1057.81458       1.63287771    
  -1.84103203      0.366203994     -0.606999993       1057.81458       1.63287771    
  -1.73421395      0.718334973     -0.606999993       1913.55823       1.64318955    
  -2.40179110      0.994853973     -0.517000020       1913.55823       1.64318955    
  -2.16155505       1.44430494     -0.517000020       1913.55823       1.64318955    
  -1.56075203       1.04286098     -0.606999993       1913.55823       1.64318955    
  -1.56075203       1.04286098     -0.606999993       1714.70618       1.63366592    
  -1.13495600      0.758352995     -0.606999993       1714.70618       1.63366592    
  -1.26109600      0.522363007     -0.606999993       1714.70618       1.63366592    
  -1.73421395      0.718334973     -0.606999993       1714.70618       1.63366592    
  -1.56075203       1.04286098     -0.606999993       2568.40771       1.64388824    
  -2.16155505       1.44430494     -0.517000020       2568.40771       1.64388824    
  -1.83825099       1.83825099     -0.517000020       2568.40771       1.64388824    
  -1.32730997       1.32730997     -0.606999993       2568.40771       1.64388824    
  -1.32730997       1.32730997     -0.606999993       2302.98682       1.63418090    
 -0.965201020      0.965201020     -0.606999993       2302.98682       1.63418090    
  -1.13495600      0.758352995     -0.606999993       2302.98682       1.63418090    
  -1.56075203       1.04286098     -0.606999993       2302.98682       1.63418090    
  -1.32730997       1.32730997     -0.606999993       3119.67163       1.64414287    
  -1.83825099       1.83825099     -0.517000020       3119.67163       1.64414287    
  -1.44430494       2.16155505     -0.517000020       3119.67163       1.64414287    
  -1.04286098       1.56075203     -0.606999993       3119.67163       1.64414287    
  -1.04286098       1.56075203     -0.606999993       2801.34009       1.63439190    
 -0.758352995       1.13495600     -0.606999993       2801.34009       1.63439190    
 -0.965201020      0.965201020     -0.606999993       2801.34009       1.63439190    
  -1.32730997       1.32730997     -0.606999993       2801.34009       1.63439190    
  -1.04286098       1.56075203     -0.606999993       3555.52710       1.64403617    
  -1.44430494       2.16155505     -0.517000020       3555.52710       1.64403617    
 -0.994853973       2.40179110     -0.517000020       3555.52710       1.64403617    
 -0.718334973       1.73421395     -0.606999993       3555.52710       1.64403617    
 -0.718334973       1.73421395     -0.606999993       3194.69312       1.63435078    
 -0.522363007       1.26109600     -0.606999993       3194.69312       1.63435078    
 -0.758352995       1.13495600     -0.606999993       3194.69312       1.63435078    
  -1.04286098       1.56075203     -0.606999993       3194.69312       1.63435078    
 -0.718334973       1.73421395     -0.606999993       3865.38501       1.64374006    
 -0.994853973       2.40179110     -0.517000020       3865.38501       1.64374006    
 -0.507171988       2.54972792     -0.517000020       3865.38501       1.64374006    
 -0.366203994       1.84103203     -0.606999993       3865.38501       1.64374006    
 -0.366203994       1.84103203     -0.606999993       3469.95605       1.63418627    
 -0.266297996       1.33877206     -0.606999993       3469.95605       1.63418627    
 -0.522363007       1.26109600     -0.606999993       3469.95605       1.63418627    
 -0.718334973       1.73421395     -0.606999993       3469.95605       1.63418627    
 -0.366203994       1.84103203     -0.606999993       4030.29980       1.64352167    
 -0.507171988       2.54972792     -0.517000020       4030.29980       1.64352167    
   0.00000000       2.59967995     -0.517000020       4030.29980       1.64352167    
   0.00000000       1.87709999     -0.606999993       4030.29980       1.64352167    
   0.00000000       1.87709999     -0.606999993       3613.26099       1.63405502    
   0.00000000       1.36500001     -0.606999993       3613.26099       1.63405502    
 -0.266297996       1.33877206     -0.606999993       3613.26099       1.63405502    
 -0.366203994       1.84103203     -0.606999993       3613.26099       1.63405502    
   0.00000000       1.87709999     -0.606999993       4030.58936       1.64357686    
   0.00000000       2.59967995     -0.517000020       4030.58936       1.64357686    
  0.507171988       2.54972792     -0.517000020       4030.58936       1.64357686    
  0.366203994       1.84103203     -0.606999993       4030.58936       1.64357686    
  0.366203994       1.84103203     -0.606999993       3613.72314       1.63411188    
  0.266297996       1.33877206     -0.606999993       3613.72314       1.63411188    
   0.00000000       1.36500001     -0.606999993       3613.72314       1.63411188    
   0.00000000       1.87709999     -0.606999993       3613.72314       1.63411188    
  0.366203994       1.84103203     -0.606999993       3866.31226       1.64387584    
  0.507171988       2.54972792     -0.517000020       3866.31226       1.64387584    
  0.994853973       2.40179110     -0.517000020       3866.31226       1.64387584    
  0.718334973       1.73421395     -0.606999993       3866.31226       1.64387584    
  0.718334973       1.73421395     -0.606999993       3471.58228       1.63433945    
  0.522363007       1.26109600     -0.606999993       3471.58228       1.63433945    
  0.266297996       1.33877206     -0.606999993       3471.58228       1.63433945    
  0.366203994       1.84103203     -0.606999993       3471.58228       1.63433945    
  0.718334973       1.73421395     -0.606999993       3557.14038       1.64423645    
  0.994853973       2.40179110     -0.517000020       3557.14038       1.64423645    
   1.44430494       2.16155505     -0.517000020       3557.14038       1.64423645    
   1.04286098       1.56075203     -0.606999993       3557.14038       1.64423645    
   1.04286098       1.56075203     -0.606999993       3197.62085       1.63460851    
  0.758352995       1.13495600     -0.606999993       3197.62085       1.63460851    
  0.522363007       1.26109600     -0.606999993       3197.62085       1.63460851    
  0.718334973       1.73421395     -0.606999993       3197.62085       1.63460851    
   1.04286098       1.56075203     -0.606999993       3122.05884       1.64442968    
   1.44430494       2.16155505     -0.517000020       3122.05884       1.64442968    
   1.83825099       1.83825099     -0.517000020       3122.05884       1.64442968    
   1.32730997       1.32730997     -0.606999993       3122.05884       1.64442968    
   1.32730997       1.32730997     -0.606999993       2805.66895       1.63475466    
  0.965201020      0.965201020     -0.606999993       2805.66895       1.63475466    
  0.758352995       1.13495600     -0.606999993       2805.66895       1.63475466    
   1.04286098       1.56075203     -0.606999993       2805.66895       1.63475466    
   1.32730997       1.32730997     -0.606999993       2571.53345       1.64426291    
   1.83825099       1.83825099     -0.517000020       2571.53345       1.64426291    
   2.16155505       1.44430494     -0.517000020       2571.53345       1.64426291    
   1.56075203       1.04286098     -0.606999993       2571.53345       1.64426291    
   1.56075203       1.04286098     -0.606999993       2308.72900       1.63465679    
   1.13495600      0.758352995     -0.606999993       2308.72900       1.63465679    
  0.965201020      0.965201020     -0.606999993       2308.72900       1.63465679    
   1.32730997       1.32730997     -0.606999993       2308.72900       1.63465679    
   1.56075203       1.04286098     -0.606999993       1917.17371       1.64372790    
   2.16155505       1.44430494     -0.517000020       1917.17371       1.64372790    
   2.40179110      0.994853973     -0.517000020       1917.17371       1.64372790    
   1.73421395      0.718334973     -0.606999993       1917.17371       1.64372790    
   1.73421395      0.718334973     -0.606999993       1721.63623       1.63436055    
   1.26109600      0.522363007     -0.606999993       1721.63623       1.63436055    
   1.13495600      0.758352995     -0.606999993       1721.63623       1.63436055    
   1.56075203       1.04286098     -0.606999993       1721.63623       1.63436055    
   1.73421395      0.718334973     -0.606999993       1183.30920       1.64314151    
   2.40179110      0.994853973     -0.517000020       1183.30920       1.64314151    
   2.54972792      0.507171988     -0.517000020       1183.30920       1.64314151    
   1.84103203      0.366203994     -0.606999993       1183.30920       1.64314151    
   1.84103203      0.366203994     -0.606999993       1065.73108       1.63399088    
   1.33877206      0.266297996     -0.606999993       1065.73108       1.63399088    
   1.26109600      0.522363007     -0.606999993       1065.73108       1.63399088    
   1.73421395      0.718334973     -0.606999993       1065.73108       1.63399088    
   1.84103203      0.366203994     -0.606999993       404.470825       1.64305115    
   2.54972792      0.507171988     -0.517000020       404.470825       1.64305115    
   2.59967995       0.00000000     -0.517000020       404.470825       1.64305115    
   1.87709999       0.00000000     -0.606999993       404.470825       1.64305115    
   1.87709999       0.00000000     -0.606999993       368.024231       1.63359261    
   1.36500001       0.00000000     -0.606999993       368.024231       1.63359261    
   1.33877206      0.266297996     -0.606999993       368.024231       1.63359261    
   1.84103203      0.366203994     -0.606999993       368.024231       1.63359261    
   1.87709999       0.00000000     -0.606999993       388.129852      -1.49913371    
   2.59967995       0.00000000     -0.517000020       388.129852      -1.49913371    
   2.54972792     -0.507171988     -0.517000020       388.129852      -1.49913371    
   1.84103203     -0.366203994     -0.606999993       388.129852      -1.49913371    
   1.84103203     -0.366203994     -0.606999993       343.567047      -1.50713766    
   1.33877206     -0.266297996     -0.606999993       343.567047      -1.50713766    
   1.36500001       0.00000000     -0.606999993       343.567047      -1.50713766    
   1.87709999       0.00000000     -0.606999993       343.567047      -1.50713766    
   1.84103203     -0.366203994     -0.606999993       1166.83044      -1.49824321    
   2.54972792     -0.507171988     -0.517000020       1166.83044      -1.49824321    
   2.40179110     -0.994853973     -0.517000020       1166.83044      -1.49824321    
   1.73421395     -0.718334973     -0.606999993       1166.83044      -1.49824321    
   1.73421395     -0.718334973     -0.606999993       1041.30933      -1.50701582    
   1.26109600     -0.522363007     -0.606999993       1041.30933      -1.50701582    
   1.33877206     -0.266297996     -0.606999993       1041.30933      -1.50701582    
   1.84103203     -0.366203994     -0.606999993       1041.30933      -1.50701582    
   1.73421395     -0.718334973     -0.606999993       1899.05542      -1.49747336    
   2.40179110     -0.994853973     -0.517000020       1899.05542      -1.49747336    
   2.16155505      -1.44430494     -0.517000020       1899.05542      -1.49747336    
   1.56075203      -1.04286098     -0.606999993       1899.05542      -1.49747336    
   1.56075203      -1.04286098     -0.606999993       1696.77917      -1.50664186    
   1.13495600     -0.758352995     -0.606999993       1696.77917      -1.50664186    
   1.26109600     -0.522363007     -0.606999993       1696.77917      -1.50664186    