 VARIABLES="X" "Y" "Z" "abs(p) (Pa)" "angle(p) (rad)"
ZONE N=   2709,E =    2358, F=FEPOINT, ET=QUADRILATERAL
   0.00000000      -5.48999977     -0.157000005       4730.64258      -1.60666776    
   0.00000000      -4.76741982     -0.246999994       4730.64258      -1.60666776    
  0.930077016      -4.67581606     -0.246999994       4730.64258      -1.60666776    
   1.07104599      -5.38451099     -0.157000005       4730.64258      -1.60666776    
  -1.07104599      -5.38451099     -0.157000005       4734.59277      -1.60675335    
 -0.930077016      -4.67581606     -0.246999994       4734.59277      -1.60675335    
   0.00000000      -4.76741982     -0.246999994       4734.59277      -1.60675335    
   0.00000000      -5.48999977     -0.157000005       4734.59277      -1.60675335    
  -2.10093188      -5.07209921     -0.157000005       4609.59277      -1.60246384    
  -1.82441294      -4.40452194     -0.246999994       4609.59277      -1.60246384    
 -0.930077016      -4.67581606     -0.246999994       4609.59277      -1.60246384    
  -1.07104599      -5.38451099     -0.157000005       4609.59277      -1.60246384    
  -3.05008101      -4.56476784     -0.157000005       4200.21484      -1.60663247    
  -2.64863706      -3.96396494     -0.246999994       4200.21484      -1.60663247    
  -1.82441294      -4.40452194     -0.246999994       4200.21484      -1.60663247    
  -2.10093188      -5.07209921     -0.157000005       4200.21484      -1.60663247    
  -3.88201594      -3.88201594     -0.157000005       3675.13208      -1.60715902    
  -3.37107491      -3.37107491     -0.246999994       3675.13208      -1.60715902    
  -2.64863706      -3.96396494     -0.246999994       3675.13208      -1.60715902    
  -3.05008101      -4.56476784     -0.157000005       3675.13208      -1.60715902    
  -4.56476784      -3.05008101     -0.157000005       3050.44604      -1.60262394    
  -3.96396494      -2.64863706     -0.246999994       3050.44604      -1.60262394    
  -3.37107491      -3.37107491     -0.246999994       3050.44604      -1.60262394    
  -3.88201594      -3.88201594     -0.157000005       3050.44604      -1.60262394    
  -5.07209921      -2.10093188     -0.157000005       2239.69873      -1.60568202    
  -4.40452194      -1.82441294     -0.246999994       2239.69873      -1.60568202    
  -3.96396494      -2.64863706     -0.246999994       2239.69873      -1.60568202    
  -4.56476784      -3.05008101     -0.157000005       2239.69873      -1.60568202    
  -5.38451099      -1.07104599     -0.157000005       1377.69287      -1.60751283    
  -4.67581606     -0.930077016     -0.246999994       1377.69287      -1.60751283    
  -4.40452194      -1.82441294     -0.246999994       1377.69287      -1.60751283    
  -5.07209921      -2.10093188     -0.157000005       1377.69287      -1.60751283    
  -5.48999977       0.00000000     -0.157000005       467.507416      -1.60671675    
  -4.76741982       0.00000000     -0.246999994       467.507416      -1.60671675    
  -4.67581606     -0.930077016     -0.246999994       467.507416      -1.60671675    
  -5.38451099      -1.07104599     -0.157000005       467.507416      -1.60671675    
  -5.38451099       1.07104599     -0.157000005       479.202820       1.53963542    
  -4.67581606      0.930077016     -0.246999994       479.202820       1.53963542    
  -4.76741982       0.00000000     -0.246999994       479.202820       1.53963542    
  -5.48999977       0.00000000     -0.157000005       479.202820       1.53963542    
  -5.07209921       2.10093188     -0.157000005       1408.00110       1.53932905    
  -4.40452194       1.82441294     -0.246999994       1408.00110       1.53932905    
  -4.67581606      0.930077016     -0.246999994       1408.00110       1.53932905    
  -5.38451099       1.07104599     -0.157000005       1408.00110       1.53932905    
  -4.56476784       3.05008101     -0.157000005       2279.85669       1.53995776    
  -3.96396494       2.64863706     -0.246999994       2279.85669       1.53995776    
  -4.40452194       1.82441294     -0.246999994       2279.85669       1.53995776    
  -5.07209921       2.10093188     -0.157000005       2279.85669       1.53995776    
  -3.88201594       3.88201594     -0.157000005       3027.27539       1.53538001    
  -3.37107491       3.37107491     -0.246999994       3027.27539       1.53538001    
  -3.96396494       2.64863706     -0.246999994       3027.27539       1.53538001    
  -4.56476784       3.05008101     -0.157000005       3027.27539       1.53538001    
  -3.05008101       4.56476784     -0.157000005       3729.54663       1.53897321    
  -2.64863706       3.96396494     -0.246999994       3729.54663       1.53897321    
  -3.37107491       3.37107491     -0.246999994       3729.54663       1.53897321    
  -3.88201594       3.88201594     -0.157000005       3729.54663       1.53897321    
  -2.10093188       5.07209921     -0.157000005       4204.23340       1.53522718    
  -1.82441294       4.40452194     -0.246999994       4204.23340       1.53522718    
  -2.64863706       3.96396494     -0.246999994       4204.23340       1.53522718    
  -3.05008101       4.56476784     -0.157000005       4204.23340       1.53522718    
  -1.07104599       5.38451099     -0.157000005       4615.06885       1.53938568    
 -0.930077016       4.67581606     -0.246999994       4615.06885       1.53938568    
  -1.82441294       4.40452194     -0.246999994       4615.06885       1.53938568    
  -2.10093188       5.07209921     -0.157000005       4615.06885       1.53938568    
   0.00000000       5.48999977     -0.157000005       4745.25977       1.53485858    
   0.00000000       4.76741982     -0.246999994       4745.25977       1.53485858    
 -0.930077016       4.67581606     -0.246999994       4745.25977       1.53485858    
  -1.07104599       5.38451099     -0.157000005       4745.25977       1.53485858    
   1.07104599       5.38451099     -0.157000005       4795.31006       1.53893828    
  0.930077016       4.67581606     -0.246999994       4795.31006       1.53893828    
   0.00000000       4.76741982     -0.246999994       4795.31006       1.53893828    
   0.00000000       5.48999977     -0.157000005       4795.31006       1.53893828    
   2.10093188       5.07209921     -0.157000005       4558.08496       1.53575242    
   1.82441294       4.40452194     -0.246999994       4558.08496       1.53575242    
  0.930077016       4.67581606     -0.246999994       4558.08496       1.53575242    
   1.07104599       5.38451099     -0.157000005       4558.08496       1.53575242    
   3.05008101       4.56476784     -0.157000005       4198.57910       1.53501558    
   2.64863706       3.96396494     -0.246999994       4198.57910       1.53501558    
   1.82441294       4.40452194     -0.246999994       4198.57910       1.53501558    
   2.10093188       5.07209921     -0.157000005       4198.57910       1.53501558    
   3.88201594       3.88201594     -0.157000005       3723.65137       1.53851199    
   3.37107491       3.37107491     -0.246999994       3723.65137       1.53851199    
   2.64863706       3.96396494     -0.246999994       3723.65137       1.53851199    
   3.05008101       4.56476784     -0.157000005       3723.65137       1.53851199    
   4.56476784       3.05008101     -0.157000005       3035.69238       1.53716540    
   3.96396494       2.64863706     -0.246999994       3035.69238       1.53716540    
   3.37107491       3.37107491     -0.246999994       3035.69238       1.53716540    
   3.88201594       3.88201594     -0.157000005       3035.69238       1.53716540    
   5.07209921       2.10093188     -0.157000005       2264.75415       1.53983152    
   4.40452194       1.82441294     -0.246999994       2264.75415       1.53983152    
   3.96396494       2.64863706     -0.246999994       2264.75415       1.53983152    
   4.56476784       3.05008101     -0.157000005       2264.75415       1.53983152    
   5.38451099       1.07104599     -0.157000005       1378.63770       1.53355682    
   4.67581606      0.930077016     -0.246999994       1378.63770       1.53355682    
   4.40452194       1.82441294     -0.246999994       1378.63770       1.53355682    
   5.07209921       2.10093188     -0.157000005       1378.63770       1.53355682    
   5.48999977       0.00000000     -0.157000005       464.679810       1.53231943    
   4.76741982       0.00000000     -0.246999994       464.679810       1.53231943    
   4.67581606      0.930077016     -0.246999994       464.679810       1.53231943    
   5.38451099       1.07104599     -0.157000005       464.679810       1.53231943    
   5.38451099      -1.07104599     -0.157000005       468.664551      -1.61039877    
   4.67581606     -0.930077016     -0.246999994       468.664551      -1.61039877    
   4.76741982       0.00000000     -0.246999994       468.664551      -1.61039877    
   5.48999977       0.00000000     -0.157000005       468.664551      -1.61039877    
   5.07209921      -2.10093188     -0.157000005       1382.00891      -1.60628819    
   4.40452194      -1.82441294     -0.246999994       1382.00891      -1.60628819    
   4.67581606     -0.930077016     -0.246999994       1382.00891      -1.60628819    
   5.38451099      -1.07104599     -0.157000005       1382.00891      -1.60628819    
   4.56476784      -3.05008101     -0.157000005       2241.05200      -1.60537863    
   3.96396494      -2.64863706     -0.246999994       2241.05200      -1.60537863    
   4.40452194      -1.82441294     -0.246999994       2241.05200      -1.60537863    
   5.07209921      -2.10093188     -0.157000005       2241.05200      -1.60537863    
   3.88201594      -3.88201594     -0.157000005       3019.65356      -1.60661530    
   3.37107491      -3.37107491     -0.246999994       3019.65356      -1.60661530    
   3.96396494      -2.64863706     -0.246999994       3019.65356      -1.60661530    
   4.56476784      -3.05008101     -0.157000005       3019.65356      -1.60661530    
   3.05008101      -4.56476784     -0.157000005       3728.89038      -1.60299432    
   2.64863706      -3.96396494     -0.246999994       3728.89038      -1.60299432    
   3.37107491      -3.37107491     -0.246999994       3728.89038      -1.60299432    
   3.88201594      -3.88201594     -0.157000005       3728.89038      -1.60299432    
   2.10093188      -5.07209921     -0.157000005       4201.70215      -1.60666430    
   1.82441294      -4.40452194     -0.246999994       4201.70215      -1.60666430    
   2.64863706      -3.96396494     -0.246999994       4201.70215      -1.60666430    
   3.05008101      -4.56476784     -0.157000005       4201.70215      -1.60666430    
   1.07104599      -5.38451099     -0.157000005       4549.89941      -1.60647285    
  0.930077016      -4.67581606     -0.246999994       4549.89941      -1.60647285    
   1.82441294      -4.40452194     -0.246999994       4549.89941      -1.60647285    
   2.10093188      -5.07209921     -0.157000005       4549.89941      -1.60647285    
   0.00000000      -1.87709999     -0.606999993       3040.59009      -1.57328832    
   0.00000000      -1.36500001     -0.606999993       3040.59009      -1.57328832    
  0.266297996      -1.33877206     -0.606999993       3040.59009      -1.57328832    
  0.366203994      -1.84103203     -0.606999993       3040.59009      -1.57328832    
   0.00000000      -1.87709999     -0.606999993       2010.67725      -1.57352376    
   0.00000000      -2.59967995     -0.517000020       2010.67725      -1.57352376    
 -0.507171988      -2.54972792     -0.517000020       2010.67725      -1.57352376    
 -0.366203994      -1.84103203     -0.606999993       2010.67725      -1.57352376    
 -0.366203994      -1.84103203     -0.606999993       3040.47925      -1.57329524    
 -0.266297996      -1.33877206     -0.606999993       3040.47925      -1.57329524    
   0.00000000      -1.36500001     -0.606999993       3040.47925      -1.57329524    
   0.00000000      -1.87709999     -0.606999993       3040.47925      -1.57329524    
 -0.366203994      -1.84103203     -0.606999993       1928.91736      -1.57347691    
 -0.507171988      -2.54972792     -0.517000020       1928.91736      -1.57347691    
 -0.994853973      -2.40179110     -0.517000020       1928.91736      -1.57347691    
 -0.718334973      -1.73421395     -0.606999993       1928.91736      -1.57347691    
 -0.718334973      -1.73421395     -0.606999993       2921.60889      -1.57332981    
 -0.522363007      -1.26109600     -0.606999993       2921.60889      -1.57332981    
 -0.266297996      -1.33877206     -0.606999993       2921.60889      -1.57332981    
 -0.366203994      -1.84103203     -0.606999993       2921.60889      -1.57332981    
 -0.718334973      -1.73421395     -0.606999993       1774.58313      -1.57353008    
 -0.994853973      -2.40179110     -0.517000020       1774.58313      -1.57353008    
  -1.44430494      -2.16155505     -0.517000020       1774.58313      -1.57353008    
  -1.04286098      -1.56075203     -0.606999993       1774.58313      -1.57353008    
  -1.04286098      -1.56075203     -0.606999993       2691.07104      -1.57338250    
 -0.758352995      -1.13495600     -0.606999993       2691.07104      -1.57338250    
 -0.522363007      -1.26109600     -0.606999993       2691.07104      -1.57338250    
 -0.718334973      -1.73421395     -0.606999993       2691.07104      -1.57338250    
  -1.04286098      -1.56075203     -0.606999993       1556.95264      -1.57363737    
  -1.44430494      -2.16155505     -0.517000020       1556.95264      -1.57363737    
  -1.83825099      -1.83825099     -0.517000020       1556.95264      -1.57363737    
  -1.32730997      -1.32730997     -0.606999993       1556.95264      -1.57363737    
  -1.32730997      -1.32730997     -0.606999993       2358.91650      -1.57345557    
 -0.965201020     -0.965201020     -0.606999993       2358.91650      -1.57345557    
 -0.758352995      -1.13495600     -0.606999993       2358.91650      -1.57345557    
  -1.04286098      -1.56075203     -0.606999993       2358.91650      -1.57345557    
  -1.32730997      -1.32730997     -0.606999993       1281.15137      -1.57375610    
  -1.83825099      -1.83825099     -0.517000020       1281.15137      -1.57375610    
  -2.16155505      -1.44430494     -0.517000020       1281.15137      -1.57375610    
  -1.56075203      -1.04286098     -0.606999993       1281.15137      -1.57375610    
  -1.56075203      -1.04286098     -0.606999993       1936.63049      -1.57353783    
  -1.13495600     -0.758352995     -0.606999993       1936.63049      -1.57353783    
 -0.965201020     -0.965201020     -0.606999993       1936.63049      -1.57353783    
  -1.32730997      -1.32730997     -0.606999993       1936.63049      -1.57353783    
  -1.56075203      -1.04286098     -0.606999993       953.387512      -1.57387638    
  -2.16155505      -1.44430494     -0.517000020       953.387512      -1.57387638    
  -2.40179110     -0.994853973     -0.517000020       953.387512      -1.57387638    
  -1.73421395     -0.718334973     -0.606999993       953.387512      -1.57387638    
  -1.73421395     -0.718334973     -0.606999993       1438.82141      -1.57364583    
  -1.26109600     -0.522363007     -0.606999993       1438.82141      -1.57364583    
  -1.13495600     -0.758352995     -0.606999993       1438.82141      -1.57364583    
  -1.56075203      -1.04286098     -0.606999993       1438.82141      -1.57364583    
  -1.73421395     -0.718334973     -0.606999993       585.997375      -1.57406151    
  -2.40179110     -0.994853973     -0.517000020       585.997375      -1.57406151    
  -2.54972792     -0.507171988     -0.517000020       585.997375      -1.57406151    
  -1.84103203     -0.366203994     -0.606999993       585.997375      -1.57406151    
  -1.84103203     -0.366203994     -0.606999993       884.052917      -1.57391429    
  -1.33877206     -0.266297996     -0.606999993       884.052917      -1.57391429    
  -1.26109600     -0.522363007     -0.606999993       884.052917      -1.57391429    
  -1.73421395     -0.718334973     -0.606999993       884.052917      -1.57391429    
  -1.84103203     -0.366203994     -0.606999993       196.673340      -1.57505131    
  -2.54972792     -0.507171988     -0.517000020       196.673340      -1.57505131    
  -2.59967995       0.00000000     -0.517000020       196.673340      -1.57505131    
  -1.87709999       0.00000000     -0.606999993       196.673340      -1.57505131    
  -1.87709999       0.00000000     -0.606999993       294.941315      -1.57520354    
  -1.36500001       0.00000000     -0.606999993       294.941315      -1.57520354    
  -1.33877206     -0.266297996     -0.606999993       294.941315      -1.57520354    
  -1.84103203     -0.366203994     -0.606999993       294.941315      -1.57520354    
  -1.87709999       0.00000000     -0.606999993       198.501907       1.56963253    
  -2.59967995       0.00000000     -0.517000020       198.501907       1.56963253    
  -2.54972792      0.507171988     -0.517000020       198.501907       1.56963253    
  -1.84103203      0.366203994     -0.606999993       198.501907       1.56963253    
  -1.84103203      0.366203994     -0.606999993       305.284943       1.57018816    
  -1.33877206      0.266297996     -0.606999993       305.284943       1.57018816    
  -1.36500001       0.00000000     -0.606999993       305.284943       1.57018816    
  -1.87709999       0.00000000     -0.606999993       305.284943       1.57018816    
  -1.84103203      0.366203994     -0.606999993       587.236877       1.56858230    
  -2.54972792      0.507171988     -0.517000020       587.236877       1.56858230    
  -2.40179110      0.994853973     -0.517000020       587.236877       1.56858230    
  -1.73421395      0.718334973     -0.606999993       587.236877       1.56858230    
  -1.73421395      0.718334973     -0.606999993       893.768188       1.56891680    
  -1.26109600      0.522363007     -0.606999993       893.768188       1.56891680    
  -1.33877206      0.266297996     -0.606999993       893.768188       1.56891680    
  -1.84103203      0.366203994     -0.606999993       893.768188       1.56891680    
  -1.73421395      0.718334973     -0.606999993       954.777710       1.56834900    
  -2.40179110      0.994853973     -0.517000020       954.777710       1.56834900    
  -2.16155505       1.44430494     -0.517000020       954.777710       1.56834900    
  -1.56075203       1.04286098     -0.606999993       954.777710       1.56834900    
  -1.56075203       1.04286098     -0.606999993       1447.79736       1.56863248    
  -1.13495600      0.758352995     -0.606999993       1447.79736       1.56863248    
  -1.26109600      0.522363007     -0.606999993       1447.79736       1.56863248    
  -1.73421395      0.718334973     -0.606999993       1447.79736       1.56863248    
  -1.56075203       1.04286098     -0.606999993       1283.36353       1.56824315    
  -2.16155505       1.44430494     -0.517000020       1283.36353       1.56824315    
  -1.83825099       1.83825099     -0.517000020       1283.36353       1.56824315    
  -1.32730997       1.32730997     -0.606999993       1283.36353       1.56824315    
  -1.32730997       1.32730997     -0.606999993       1944.92798       1.56849670    
 -0.965201020      0.965201020     -0.606999993       1944.92798       1.56849670    
  -1.13495600      0.758352995     -0.606999993       1944.92798       1.56849670    
  -1.56075203       1.04286098     -0.606999993       1944.92798       1.56849670    
  -1.32730997       1.32730997     -0.606999993       1559.61035       1.56817985    
  -1.83825099       1.83825099     -0.517000020       1559.61035       1.56817985    
  -1.44430494       2.16155505     -0.517000020       1559.61035       1.56817985    
  -1.04286098       1.56075203     -0.606999993       1559.61035       1.56817985    
  -1.04286098       1.56075203     -0.606999993       2366.38965       1.56842065    
 -0.758352995       1.13495600     -0.606999993       2366.38965       1.56842065    
 -0.965201020      0.965201020     -0.606999993       2366.38965       1.56842065    
  -1.32730997       1.32730997     -0.606999993       2366.38965       1.56842065    
  -1.04286098       1.56075203     -0.606999993       1777.23608       1.56816423    
  -1.44430494       2.16155505     -0.517000020       1777.23608       1.56816423    
 -0.994853973       2.40179110     -0.517000020       1777.23608       1.56816423    
 -0.718334973       1.73421395     -0.606999993       1777.23608       1.56816423    
 -0.718334973       1.73421395     -0.606999993       2697.59570       1.56837523    
 -0.522363007       1.26109600     -0.606999993       2697.59570       1.56837523    
 -0.758352995       1.13495600     -0.606999993       2697.59570       1.56837523    
  -1.04286098       1.56075203     -0.606999993       2697.59570       1.56837523    
 -0.718334973       1.73421395     -0.606999993       1931.16479       1.56811869    
 -0.994853973       2.40179110     -0.517000020       1931.16479       1.56811869    
 -0.507171988       2.54972792     -0.517000020       1931.16479       1.56811869    
 -0.366203994       1.84103203     -0.606999993       1931.16479       1.56811869    
 -0.366203994       1.84103203     -0.606999993       2927.00684       1.56834066    
 -0.266297996       1.33877206     -0.606999993       2927.00684       1.56834066    
 -0.522363007       1.26109600     -0.606999993       2927.00684       1.56834066    
 -0.718334973       1.73421395     -0.606999993       2927.00684       1.56834066    
 -0.366203994       1.84103203     -0.606999993       2012.59583       1.56805670    
 -0.507171988       2.54972792     -0.517000020       2012.59583       1.56805670    
   0.00000000       2.59967995     -0.517000020       2012.59583       1.56805670    
   0.00000000       1.87709999     -0.606999993       2012.59583       1.56805670    
   0.00000000       1.87709999     -0.606999993       3044.81396       1.56831372    
   0.00000000       1.36500001     -0.606999993       3044.81396       1.56831372    
 -0.266297996       1.33877206     -0.606999993       3044.81396       1.56831372    
 -0.366203994       1.84103203     -0.606999993       3044.81396       1.56831372    
   0.00000000       1.87709999     -0.606999993       2012.30542       1.56796980    
   0.00000000       2.59967995     -0.517000020       2012.30542       1.56796980    
  0.507171988       2.54972792     -0.517000020       2012.30542       1.56796980    
  0.366203994       1.84103203     -0.606999993       2012.30542       1.56796980    
  0.366203994       1.84103203     -0.606999993       3043.75024       1.56825900    
  0.266297996       1.33877206     -0.606999993       3043.75024       1.56825900    
   0.00000000       1.36500001     -0.606999993       3043.75024       1.56825900    
   0.00000000       1.87709999     -0.606999993       3043.75024       1.56825900    
  0.366203994       1.84103203     -0.606999993       1930.26404       1.56783330    
  0.507171988       2.54972792     -0.517000020       1930.26404       1.56783330    
  0.994853973       2.40179110     -0.517000020       1930.26404       1.56783330    
  0.718334973       1.73421395     -0.606999993       1930.26404       1.56783330    
  0.718334973       1.73421395     -0.606999993       2924.06714       1.56818223    
  0.522363007       1.26109600     -0.606999993       2924.06714       1.56818223    
  0.266297996       1.33877206     -0.606999993       2924.06714       1.56818223    
  0.366203994       1.84103203     -0.606999993       2924.06714       1.56818223    
  0.718334973       1.73421395     -0.606999993       1775.96277       1.56771564    
  0.994853973       2.40179110     -0.517000020       1775.96277       1.56771564    
   1.44430494       2.16155505     -0.517000020       1775.96277       1.56771564    
   1.04286098       1.56075203     -0.606999993       1775.96277       1.56771564    
   1.04286098       1.56075203     -0.606999993       2693.03662       1.56813574    
  0.758352995       1.13495600     -0.606999993       2693.03662       1.56813574    
  0.522363007       1.26109600     -0.606999993       2693.03662       1.56813574    
  0.718334973       1.73421395     -0.606999993       2693.03662       1.56813574    
   1.04286098       1.56075203     -0.606999993       1558.29150       1.56770456    
   1.44430494       2.16155505     -0.517000020       1558.29150       1.56770456    
   1.83825099       1.83825099     -0.517000020       1558.29150       1.56770456    
   1.32730997       1.32730997     -0.606999993       1558.29150       1.56770456    
   1.32730997       1.32730997     -0.606999993       2360.58496       1.56812620    
  0.965201020      0.965201020     -0.606999993       2360.58496       1.56812620    
  0.758352995       1.13495600     -0.606999993       2360.58496       1.56812620    
   1.04286098       1.56075203     -0.606999993       2360.58496       1.56812620    
   1.32730997       1.32730997     -0.606999993       1281.93420       1.56790388    
   1.83825099       1.83825099     -0.517000020       1281.93420       1.56790388    
   2.16155505       1.44430494     -0.517000020       1281.93420       1.56790388    
   1.56075203       1.04286098     -0.606999993       1281.93420       1.56790388    
   1.56075203       1.04286098     -0.606999993       1938.35364       1.56817436    
   1.13495600      0.758352995     -0.606999993       1938.35364       1.56817436    
  0.965201020      0.965201020     -0.606999993       1938.35364       1.56817436    
   1.32730997       1.32730997     -0.606999993       1938.35364       1.56817436    
   1.56075203       1.04286098     -0.606999993       953.361389       1.56840551    
   2.16155505       1.44430494     -0.517000020       953.361389       1.56840551    
   2.40179110      0.994853973     -0.517000020       953.361389       1.56840551    
   1.73421395      0.718334973     -0.606999993       953.361389       1.56840551    
   1.73421395      0.718334973     -0.606999993       1439.95532       1.56828463    
   1.26109600      0.522363007     -0.606999993       1439.95532       1.56828463    
   1.13495600      0.758352995     -0.606999993       1439.95532       1.56828463    
   1.56075203       1.04286098     -0.606999993       1439.95532       1.56828463    
   1.73421395      0.718334973     -0.606999993       585.689209       1.56919742    
   2.40179110      0.994853973     -0.517000020       585.689209       1.56919742    
   2.54972792      0.507171988     -0.517000020       585.689209       1.56919742    
   1.84103203      0.366203994     -0.606999993       585.689209       1.56919742    
   1.84103203      0.366203994     -0.606999993       884.761902       1.56844187    
   1.33877206      0.266297996     -0.606999993       884.761902       1.56844187    
   1.26109600      0.522363007     -0.606999993       884.761902       1.56844187    
   1.73421395      0.718334973     -0.606999993       884.761902       1.56844187    
   1.84103203      0.366203994     -0.606999993       196.894562       1.57133198    
   2.54972792      0.507171988     -0.517000020       196.894562       1.57133198    
   2.59967995       0.00000000     -0.517000020       196.894562       1.57133198    
   1.87709999       0.00000000     -0.606999993       196.894562       1.57133198    
   1.87709999       0.00000000     -0.606999993       295.709045       1.56870985    
   1.36500001       0.00000000     -0.606999993       295.709045       1.56870985    
   1.33877206      0.266297996     -0.606999993       295.709045       1.56870985    
   1.84103203      0.366203994     -0.606999993       295.709045       1.56870985    
   1.87709999       0.00000000     -0.606999993       198.312241      -1.57494128    
   2.59967995       0.00000000     -0.517000020       198.312241      -1.57494128    
   2.54972792     -0.507171988     -0.517000020       198.312241      -1.57494128    
   1.84103203     -0.366203994     -0.606999993       198.312241      -1.57494128    
   1.84103203     -0.366203994     -0.606999993       304.376129      -1.57322562    
   1.33877206     -0.266297996     -0.606999993       304.376129      -1.57322562    
   1.36500001       0.00000000     -0.606999993       304.376129      -1.57322562    
   1.87709999       0.00000000     -0.606999993       304.376129      -1.57322562    
   1.84103203     -0.366203994     -0.606999993       587.075012      -1.57334995    
   2.54972792     -0.507171988     -0.517000020       587.075012      -1.57334995    
   2.40179110     -0.994853973     -0.517000020       587.075012      -1.57334995    
   1.73421395     -0.718334973     -0.606999993       587.075012      -1.57334995    
   1.73421395     -0.718334973     -0.606999993       892.543213      -1.57309425    
   1.26109600     -0.522363007     -0.606999993       892.543213      -1.57309425    
   1.33877206     -0.266297996     -0.606999993       892.543213      -1.57309425    
   1.84103203     -0.366203994     -0.606999993       892.543213      -1.57309425    
   1.73421395     -0.718334973     -0.606999993       953.721497      -1.57316244    
   2.40179110     -0.994853973     -0.517000020       953.721497      -1.57316244    
   2.16155505      -1.44430494     -0.517000020       953.721497      -1.57316244    
   1.56075203      -1.04286098     -0.606999993       953.721497      -1.57316244    
   1.56075203      -1.04286098     -0.606999993       1445.59167      -1.57315302    
   1.13495600     -0.758352995     -0.606999993       1445.59167      -1.57315302    
   1.26109600     -0.522363007     -0.606999993       1445.59167      -1.57315302    