 VARIABLES="X" "Y" "Z" "abs(p) (Pa)" "angle(p) (rad)"
ZONE N=   2709,E =    2358, F=FEPOINT, ET=QUADRILATERAL
   0.00000000      -5.48999977     -0.157000005       2.01998568       1.44050777    
   0.00000000      -4.76741982     -0.246999994       2.01998568       1.44050777    
  0.930077016      -4.67581606     -0.246999994       2.01998568       1.44050777    
   1.07104599      -5.38451099     -0.157000005       2.01998568       1.44050777    
  -1.07104599      -5.38451099     -0.157000005       1.85611331       1.53362405    
 -0.930077016      -4.67581606     -0.246999994       1.85611331       1.53362405    
   0.00000000      -4.76741982     -0.246999994       1.85611331       1.53362405    
   0.00000000      -5.48999977     -0.157000005       1.85611331       1.53362405    
  -2.10093188      -5.07209921     -0.157000005       3.21748686       1.64341331    
  -1.82441294      -4.40452194     -0.246999994       3.21748686       1.64341331    
 -0.930077016      -4.67581606     -0.246999994       3.21748686       1.64341331    
  -1.07104599      -5.38451099     -0.157000005       3.21748686       1.64341331    
  -3.05008101      -4.56476784     -0.157000005       2.22540879       1.80425966    
  -2.64863706      -3.96396494     -0.246999994       2.22540879       1.80425966    
  -1.82441294      -4.40452194     -0.246999994       2.22540879       1.80425966    
  -2.10093188      -5.07209921     -0.157000005       2.22540879       1.80425966    
  -3.88201594      -3.88201594     -0.157000005       2.65341854       1.78763211    
  -3.37107491      -3.37107491     -0.246999994       2.65341854       1.78763211    
  -2.64863706      -3.96396494     -0.246999994       2.65341854       1.78763211    
  -3.05008101      -4.56476784     -0.157000005       2.65341854       1.78763211    
  -4.56476784      -3.05008101     -0.157000005      0.378136188       2.56543636    
  -3.96396494      -2.64863706     -0.246999994      0.378136188       2.56543636    
  -3.37107491      -3.37107491     -0.246999994      0.378136188       2.56543636    
  -3.88201594      -3.88201594     -0.157000005      0.378136188       2.56543636    
  -5.07209921      -2.10093188     -0.157000005       1.21410155       1.48549151    
  -4.40452194      -1.82441294     -0.246999994       1.21410155       1.48549151    
  -3.96396494      -2.64863706     -0.246999994       1.21410155       1.48549151    
  -4.56476784      -3.05008101     -0.157000005       1.21410155       1.48549151    
  -5.38451099      -1.07104599     -0.157000005       1.91405094       1.31076133    
  -4.67581606     -0.930077016     -0.246999994       1.91405094       1.31076133    
  -4.40452194      -1.82441294     -0.246999994       1.91405094       1.31076133    
  -5.07209921      -2.10093188     -0.157000005       1.91405094       1.31076133    
  -5.48999977       0.00000000     -0.157000005       3.80548716       1.40150118    
  -4.76741982       0.00000000     -0.246999994       3.80548716       1.40150118    
  -4.67581606     -0.930077016     -0.246999994       3.80548716       1.40150118    
  -5.38451099      -1.07104599     -0.157000005       3.80548716       1.40150118    
  -5.38451099       1.07104599     -0.157000005       4.17232037       1.43765545    
  -4.67581606      0.930077016     -0.246999994       4.17232037       1.43765545    
  -4.76741982       0.00000000     -0.246999994       4.17232037       1.43765545    
  -5.48999977       0.00000000     -0.157000005       4.17232037       1.43765545    
  -5.07209921       2.10093188     -0.157000005       4.18083096       1.49067700    
  -4.40452194       1.82441294     -0.246999994       4.18083096       1.49067700    
  -4.67581606      0.930077016     -0.246999994       4.18083096       1.49067700    
  -5.38451099       1.07104599     -0.157000005       4.18083096       1.49067700    
  -4.56476784       3.05008101     -0.157000005       3.99858356       1.53510499    
  -3.96396494       2.64863706     -0.246999994       3.99858356       1.53510499    
  -4.40452194       1.82441294     -0.246999994       3.99858356       1.53510499    
  -5.07209921       2.10093188     -0.157000005       3.99858356       1.53510499    
  -3.88201594       3.88201594     -0.157000005       2.50992513       1.53858221    
  -3.37107491       3.37107491     -0.246999994       2.50992513       1.53858221    
  -3.96396494       2.64863706     -0.246999994       2.50992513       1.53858221    
  -4.56476784       3.05008101     -0.157000005       2.50992513       1.53858221    
  -3.05008101       4.56476784     -0.157000005       3.69817519       1.53126049    
  -2.64863706       3.96396494     -0.246999994       3.69817519       1.53126049    
  -3.37107491       3.37107491     -0.246999994       3.69817519       1.53126049    
  -3.88201594       3.88201594     -0.157000005       3.69817519       1.53126049    
  -2.10093188       5.07209921     -0.157000005       2.41436982       1.46241128    
  -1.82441294       4.40452194     -0.246999994       2.41436982       1.46241128    
  -2.64863706       3.96396494     -0.246999994       2.41436982       1.46241128    
  -3.05008101       4.56476784     -0.157000005       2.41436982       1.46241128    
  -1.07104599       5.38451099     -0.157000005       3.58567739       1.48715377    
 -0.930077016       4.67581606     -0.246999994       3.58567739       1.48715377    
  -1.82441294       4.40452194     -0.246999994       3.58567739       1.48715377    
  -2.10093188       5.07209921     -0.157000005       3.58567739       1.48715377    
   0.00000000       5.48999977     -0.157000005       2.27530885       1.47232914    
   0.00000000       4.76741982     -0.246999994       2.27530885       1.47232914    
 -0.930077016       4.67581606     -0.246999994       2.27530885       1.47232914    
  -1.07104599       5.38451099     -0.157000005       2.27530885       1.47232914    
   1.07104599       5.38451099     -0.157000005       3.52365589       1.55684316    
  0.930077016       4.67581606     -0.246999994       3.52365589       1.55684316    
   0.00000000       4.76741982     -0.246999994       3.52365589       1.55684316    
   0.00000000       5.48999977     -0.157000005       3.52365589       1.55684316    
   2.10093188       5.07209921     -0.157000005       2.31901336       1.61167061    
   1.82441294       4.40452194     -0.246999994       2.31901336       1.61167061    
  0.930077016       4.67581606     -0.246999994       2.31901336       1.61167061    
   1.07104599       5.38451099     -0.157000005       2.31901336       1.61167061    
   3.05008101       4.56476784     -0.157000005       2.44667792       1.60181117    
   2.64863706       3.96396494     -0.246999994       2.44667792       1.60181117    
   1.82441294       4.40452194     -0.246999994       2.44667792       1.60181117    
   2.10093188       5.07209921     -0.157000005       2.44667792       1.60181117    
   3.88201594       3.88201594     -0.157000005       4.01658010       1.53731251    
   3.37107491       3.37107491     -0.246999994       4.01658010       1.53731251    
   2.64863706       3.96396494     -0.246999994       4.01658010       1.53731251    
   3.05008101       4.56476784     -0.157000005       4.01658010       1.53731251    
   4.56476784       3.05008101     -0.157000005       2.82373214       1.41817153    
   3.96396494       2.64863706     -0.246999994       2.82373214       1.41817153    
   3.37107491       3.37107491     -0.246999994       2.82373214       1.41817153    
   3.88201594       3.88201594     -0.157000005       2.82373214       1.41817153    
   5.07209921       2.10093188     -0.157000005       3.20557737       1.37714159    
   4.40452194       1.82441294     -0.246999994       3.20557737       1.37714159    
   3.96396494       2.64863706     -0.246999994       3.20557737       1.37714159    
   4.56476784       3.05008101     -0.157000005       3.20557737       1.37714159    
   5.38451099       1.07104599     -0.157000005       2.18495154       1.29267275    
   4.67581606      0.930077016     -0.246999994       2.18495154       1.29267275    
   4.40452194       1.82441294     -0.246999994       2.18495154       1.29267275    
   5.07209921       2.10093188     -0.157000005       2.18495154       1.29267275    
   5.48999977       0.00000000     -0.157000005       2.24679685       1.40969324    
   4.76741982       0.00000000     -0.246999994       2.24679685       1.40969324    
   4.67581606      0.930077016     -0.246999994       2.24679685       1.40969324    
   5.38451099       1.07104599     -0.157000005       2.24679685       1.40969324    
   5.38451099      -1.07104599     -0.157000005       2.27230859       1.54280150    
   4.67581606     -0.930077016     -0.246999994       2.27230859       1.54280150    
   4.76741982       0.00000000     -0.246999994       2.27230859       1.54280150    
   5.48999977       0.00000000     -0.157000005       2.27230859       1.54280150    
   5.07209921      -2.10093188     -0.157000005       2.13978934       1.63151944    
   4.40452194      -1.82441294     -0.246999994       2.13978934       1.63151944    
   4.67581606     -0.930077016     -0.246999994       2.13978934       1.63151944    
   5.38451099      -1.07104599     -0.157000005       2.13978934       1.63151944    
   4.56476784      -3.05008101     -0.157000005       1.97548091       1.65052366    
   3.96396494      -2.64863706     -0.246999994       1.97548091       1.65052366    
   4.40452194      -1.82441294     -0.246999994       1.97548091       1.65052366    
   5.07209921      -2.10093188     -0.157000005       1.97548091       1.65052366    
   3.88201594      -3.88201594     -0.157000005       2.00581002       1.59990418    
   3.37107491      -3.37107491     -0.246999994       2.00581002       1.59990418    
   3.96396494      -2.64863706     -0.246999994       2.00581002       1.59990418    
   4.56476784      -3.05008101     -0.157000005       2.00581002       1.59990418    
   3.05008101      -4.56476784     -0.157000005       3.49857998       1.54583359    
   2.64863706      -3.96396494     -0.246999994       3.49857998       1.54583359    
   3.37107491      -3.37107491     -0.246999994       3.49857998       1.54583359    
   3.88201594      -3.88201594     -0.157000005       3.49857998       1.54583359    
   2.10093188      -5.07209921     -0.157000005       2.30682349       1.47288251    
   1.82441294      -4.40452194     -0.246999994       2.30682349       1.47288251    
   2.64863706      -3.96396494     -0.246999994       2.30682349       1.47288251    
   3.05008101      -4.56476784     -0.157000005       2.30682349       1.47288251    
   1.07104599      -5.38451099     -0.157000005       2.18519020       1.43232942    
  0.930077016      -4.67581606     -0.246999994       2.18519020       1.43232942    
   1.82441294      -4.40452194     -0.246999994       2.18519020       1.43232942    
   2.10093188      -5.07209921     -0.157000005       2.18519020       1.43232942    
   0.00000000      -1.87709999     -0.606999993       1.67836666      -1.58358848    
   0.00000000      -1.36500001     -0.606999993       1.67836666      -1.58358848    
  0.266297996      -1.33877206     -0.606999993       1.67836666      -1.58358848    
  0.366203994      -1.84103203     -0.606999993       1.67836666      -1.58358848    
   0.00000000      -1.87709999     -0.606999993      0.373240739      -1.61117268    
   0.00000000      -2.59967995     -0.517000020      0.373240739      -1.61117268    
 -0.507171988      -2.54972792     -0.517000020      0.373240739      -1.61117268    
 -0.366203994      -1.84103203     -0.606999993      0.373240739      -1.61117268    
 -0.366203994      -1.84103203     -0.606999993       1.79200721      -1.58772993    
 -0.266297996      -1.33877206     -0.606999993       1.79200721      -1.58772993    
   0.00000000      -1.36500001     -0.606999993       1.79200721      -1.58772993    
   0.00000000      -1.87709999     -0.606999993       1.79200721      -1.58772993    
 -0.366203994      -1.84103203     -0.606999993      0.423697561      -1.62308466    
 -0.507171988      -2.54972792     -0.517000020      0.423697561      -1.62308466    
 -0.994853973      -2.40179110     -0.517000020      0.423697561      -1.62308466    
 -0.718334973      -1.73421395     -0.606999993      0.423697561      -1.62308466    
 -0.718334973      -1.73421395     -0.606999993       1.90284157      -1.58725786    
 -0.522363007      -1.26109600     -0.606999993       1.90284157      -1.58725786    
 -0.266297996      -1.33877206     -0.606999993       1.90284157      -1.58725786    
 -0.366203994      -1.84103203     -0.606999993       1.90284157      -1.58725786    
 -0.718334973      -1.73421395     -0.606999993      0.466913998      -1.61811006    
 -0.994853973      -2.40179110     -0.517000020      0.466913998      -1.61811006    
  -1.44430494      -2.16155505     -0.517000020      0.466913998      -1.61811006    
  -1.04286098      -1.56075203     -0.606999993      0.466913998      -1.61811006    
  -1.04286098      -1.56075203     -0.606999993       1.99962902      -1.58223546    
 -0.758352995      -1.13495600     -0.606999993       1.99962902      -1.58223546    
 -0.522363007      -1.26109600     -0.606999993       1.99962902      -1.58223546    
 -0.718334973      -1.73421395     -0.606999993       1.99962902      -1.58223546    
  -1.04286098      -1.56075203     -0.606999993      0.496130615      -1.59594095    
  -1.44430494      -2.16155505     -0.517000020      0.496130615      -1.59594095    
  -1.83825099      -1.83825099     -0.517000020      0.496130615      -1.59594095    
  -1.32730997      -1.32730997     -0.606999993      0.496130615      -1.59594095    
  -1.32730997      -1.32730997     -0.606999993       2.06744957      -1.57333791    
 -0.965201020     -0.965201020     -0.606999993       2.06744957      -1.57333791    
 -0.758352995      -1.13495600     -0.606999993       2.06744957      -1.57333791    
  -1.04286098      -1.56075203     -0.606999993       2.06744957      -1.57333791    
  -1.32730997      -1.32730997     -0.606999993      0.504538536      -1.55830324    
  -1.83825099      -1.83825099     -0.517000020      0.504538536      -1.55830324    
  -2.16155505      -1.44430494     -0.517000020      0.504538536      -1.55830324    
  -1.56075203      -1.04286098     -0.606999993      0.504538536      -1.55830324    
  -1.56075203      -1.04286098     -0.606999993       2.09087610      -1.56155181    
  -1.13495600     -0.758352995     -0.606999993       2.09087610      -1.56155181    
 -0.965201020     -0.965201020     -0.606999993       2.09087610      -1.56155181    
  -1.32730997      -1.32730997     -0.606999993       2.09087610      -1.56155181    
  -1.56075203      -1.04286098     -0.606999993      0.482760370      -1.50791597    
  -2.16155505      -1.44430494     -0.517000020      0.482760370      -1.50791597    
  -2.40179110     -0.994853973     -0.517000020      0.482760370      -1.50791597    
  -1.73421395     -0.718334973     -0.606999993      0.482760370      -1.50791597    
  -1.73421395     -0.718334973     -0.606999993       2.05185127      -1.54789078    
  -1.26109600     -0.522363007     -0.606999993       2.05185127      -1.54789078    
  -1.13495600     -0.758352995     -0.606999993       2.05185127      -1.54789078    
  -1.56075203      -1.04286098     -0.606999993       2.05185127      -1.54789078    
  -1.73421395     -0.718334973     -0.606999993      0.433576614      -1.44704115    
  -2.40179110     -0.994853973     -0.517000020      0.433576614      -1.44704115    
  -2.54972792     -0.507171988     -0.517000020      0.433576614      -1.44704115    
  -1.84103203     -0.366203994     -0.606999993      0.433576614      -1.44704115    
  -1.84103203     -0.366203994     -0.606999993       1.96570444      -1.53377092    
  -1.33877206     -0.266297996     -0.606999993       1.96570444      -1.53377092    
  -1.26109600     -0.522363007     -0.606999993       1.96570444      -1.53377092    
  -1.73421395     -0.718334973     -0.606999993       1.96570444      -1.53377092    
  -1.84103203     -0.366203994     -0.606999993      0.367868334      -1.37867785    
  -2.54972792     -0.507171988     -0.517000020      0.367868334      -1.37867785    
  -2.59967995       0.00000000     -0.517000020      0.367868334      -1.37867785    
  -1.87709999       0.00000000     -0.606999993      0.367868334      -1.37867785    
  -1.87709999       0.00000000     -0.606999993       1.85136497      -1.52108395    
  -1.36500001       0.00000000     -0.606999993       1.85136497      -1.52108395    
  -1.33877206     -0.266297996     -0.606999993       1.85136497      -1.52108395    
  -1.84103203     -0.366203994     -0.606999993       1.85136497      -1.52108395    
  -1.87709999       0.00000000     -0.606999993      0.299930125      -1.30876780    
  -2.59967995       0.00000000     -0.517000020      0.299930125      -1.30876780    
  -2.54972792      0.507171988     -0.517000020      0.299930125      -1.30876780    
  -1.84103203      0.366203994     -0.606999993      0.299930125      -1.30876780    
  -1.84103203      0.366203994     -0.606999993       1.72653568      -1.51184130    
  -1.33877206      0.266297996     -0.606999993       1.72653568      -1.51184130    
  -1.36500001       0.00000000     -0.606999993       1.72653568      -1.51184130    
  -1.87709999       0.00000000     -0.606999993       1.72653568      -1.51184130    
  -1.84103203      0.366203994     -0.606999993      0.240743160      -1.24776816    
  -2.54972792      0.507171988     -0.517000020      0.240743160      -1.24776816    
  -2.40179110      0.994853973     -0.517000020      0.240743160      -1.24776816    
  -1.73421395      0.718334973     -0.606999993      0.240743160      -1.24776816    
  -1.73421395      0.718334973     -0.606999993       1.60819757      -1.50785470    
  -1.26109600      0.522363007     -0.606999993       1.60819757      -1.50785470    
  -1.33877206      0.266297996     -0.606999993       1.60819757      -1.50785470    
  -1.84103203      0.366203994     -0.606999993       1.60819757      -1.50785470    
  -1.73421395      0.718334973     -0.606999993      0.196242481      -1.21034920    
  -2.40179110      0.994853973     -0.517000020      0.196242481      -1.21034920    
  -2.16155505       1.44430494     -0.517000020      0.196242481      -1.21034920    
  -1.56075203       1.04286098     -0.606999993      0.196242481      -1.21034920    
  -1.56075203       1.04286098     -0.606999993       1.51118374      -1.51025772    
  -1.13495600      0.758352995     -0.606999993       1.51118374      -1.51025772    
  -1.26109600      0.522363007     -0.606999993       1.51118374      -1.51025772    
  -1.73421395      0.718334973     -0.606999993       1.51118374      -1.51025772    
  -1.56075203       1.04286098     -0.606999993      0.167793110      -1.21051061    
  -2.16155505       1.44430494     -0.517000020      0.167793110      -1.21051061    
  -1.83825099       1.83825099     -0.517000020      0.167793110      -1.21051061    
  -1.32730997       1.32730997     -0.606999993      0.167793110      -1.21051061    
  -1.32730997       1.32730997     -0.606999993       1.44664145      -1.51879323    
 -0.965201020      0.965201020     -0.606999993       1.44664145      -1.51879323    
  -1.13495600      0.758352995     -0.606999993       1.44664145      -1.51879323    
  -1.56075203       1.04286098     -0.606999993       1.44664145      -1.51879323    
  -1.32730997       1.32730997     -0.606999993      0.158503115      -1.25899458    
  -1.83825099       1.83825099     -0.517000020      0.158503115      -1.25899458    
  -1.44430494       2.16155505     -0.517000020      0.158503115      -1.25899458    
  -1.04286098       1.56075203     -0.606999993      0.158503115      -1.25899458    
  -1.04286098       1.56075203     -0.606999993       1.42224705      -1.53166246    
 -0.758352995       1.13495600     -0.606999993       1.42224705      -1.53166246    
 -0.965201020      0.965201020     -0.606999993       1.42224705      -1.53166246    
  -1.32730997       1.32730997     -0.606999993       1.42224705      -1.53166246    
  -1.04286098       1.56075203     -0.606999993      0.168003008      -1.33852386    
  -1.44430494       2.16155505     -0.517000020      0.168003008      -1.33852386    
 -0.994853973       2.40179110     -0.517000020      0.168003008      -1.33852386    
 -0.718334973       1.73421395     -0.606999993      0.168003008      -1.33852386    
 -0.718334973       1.73421395     -0.606999993       1.44178236      -1.54584479    
 -0.522363007       1.26109600     -0.606999993       1.44178236      -1.54584479    
 -0.758352995       1.13495600     -0.606999993       1.44178236      -1.54584479    
  -1.04286098       1.56075203     -0.606999993       1.44178236      -1.54584479    
 -0.718334973       1.73421395     -0.606999993      0.196846232      -1.41931474    
 -0.994853973       2.40179110     -0.517000020      0.196846232      -1.41931474    
 -0.507171988       2.54972792     -0.517000020      0.196846232      -1.41931474    
 -0.366203994       1.84103203     -0.606999993      0.196846232      -1.41931474    
 -0.366203994       1.84103203     -0.606999993       1.49939334      -1.55797172    
 -0.266297996       1.33877206     -0.606999993       1.49939334      -1.55797172    
 -0.522363007       1.26109600     -0.606999993       1.49939334      -1.55797172    
 -0.718334973       1.73421395     -0.606999993       1.49939334      -1.55797172    
 -0.366203994       1.84103203     -0.606999993      0.239747256      -1.47657812    
 -0.507171988       2.54972792     -0.517000020      0.239747256      -1.47657812    
   0.00000000       2.59967995     -0.517000020      0.239747256      -1.47657812    
   0.00000000       1.87709999     -0.606999993      0.239747256      -1.47657812    
   0.00000000       1.87709999     -0.606999993       1.58888459      -1.56576180    
   0.00000000       1.36500001     -0.606999993       1.58888459      -1.56576180    
 -0.266297996       1.33877206     -0.606999993       1.58888459      -1.56576180    
 -0.366203994       1.84103203     -0.606999993       1.58888459      -1.56576180    
   0.00000000       1.87709999     -0.606999993      0.287477165      -1.50486505    
   0.00000000       2.59967995     -0.517000020      0.287477165      -1.50486505    
  0.507171988       2.54972792     -0.517000020      0.287477165      -1.50486505    
  0.366203994       1.84103203     -0.606999993      0.287477165      -1.50486505    
  0.366203994       1.84103203     -0.606999993       1.69341898      -1.56833994    
  0.266297996       1.33877206     -0.606999993       1.69341898      -1.56833994    
   0.00000000       1.36500001     -0.606999993       1.69341898      -1.56833994    
   0.00000000       1.87709999     -0.606999993       1.69341898      -1.56833994    
  0.366203994       1.84103203     -0.606999993      0.335495412      -1.50919056    
  0.507171988       2.54972792     -0.517000020      0.335495412      -1.50919056    
  0.994853973       2.40179110     -0.517000020      0.335495412      -1.50919056    
  0.718334973       1.73421395     -0.606999993      0.335495412      -1.50919056    
  0.718334973       1.73421395     -0.606999993       1.80142987      -1.56602299    
  0.522363007       1.26109600     -0.606999993       1.80142987      -1.56602299    
  0.266297996       1.33877206     -0.606999993       1.80142987      -1.56602299    
  0.366203994       1.84103203     -0.606999993       1.80142987      -1.56602299    
  0.718334973       1.73421395     -0.606999993      0.380769789      -1.49571514    
  0.994853973       2.40179110     -0.517000020      0.380769789      -1.49571514    
   1.44430494       2.16155505     -0.517000020      0.380769789      -1.49571514    
   1.04286098       1.56075203     -0.606999993      0.380769789      -1.49571514    
   1.04286098       1.56075203     -0.606999993       1.90297532      -1.55996585    
  0.758352995       1.13495600     -0.606999993       1.90297532      -1.55996585    
  0.522363007       1.26109600     -0.606999993       1.90297532      -1.55996585    
  0.718334973       1.73421395     -0.606999993       1.90297532      -1.55996585    
   1.04286098       1.56075203     -0.606999993      0.419183552      -1.47221780    
   1.44430494       2.16155505     -0.517000020      0.419183552      -1.47221780    
   1.83825099       1.83825099     -0.517000020      0.419183552      -1.47221780    
   1.32730997       1.32730997     -0.606999993      0.419183552      -1.47221780    
   1.32730997       1.32730997     -0.606999993       1.98506367      -1.55158925    
  0.965201020      0.965201020     -0.606999993       1.98506367      -1.55158925    
  0.758352995       1.13495600     -0.606999993       1.98506367      -1.55158925    
   1.04286098       1.56075203     -0.606999993       1.98506367      -1.55158925    
   1.32730997       1.32730997     -0.606999993      0.446607053      -1.44663692    
   1.83825099       1.83825099     -0.517000020      0.446607053      -1.44663692    
   2.16155505       1.44430494     -0.517000020      0.446607053      -1.44663692    
   1.56075203       1.04286098     -0.606999993      0.446607053      -1.44663692    
   1.56075203       1.04286098     -0.606999993       2.03447032      -1.54245055    
   1.13495600      0.758352995     -0.606999993       2.03447032      -1.54245055    
  0.965201020      0.965201020     -0.606999993       2.03447032      -1.54245055    
   1.32730997       1.32730997     -0.606999993       2.03447032      -1.54245055    
   1.56075203       1.04286098     -0.606999993      0.450307876      -1.42328465    
   2.16155505       1.44430494     -0.517000020      0.450307876      -1.42328465    
   2.40179110      0.994853973     -0.517000020      0.450307876      -1.42328465    
   1.73421395      0.718334973     -0.606999993      0.450307876      -1.42328465    
   1.73421395      0.718334973     -0.606999993       2.03011656      -1.53367209    
   1.26109600      0.522363007     -0.606999993       2.03011656      -1.53367209    
   1.13495600      0.758352995     -0.606999993       2.03011656      -1.53367209    
   1.56075203       1.04286098     -0.606999993       2.03011656      -1.53367209    
   1.73421395      0.718334973     -0.606999993      0.427591056      -1.40480268    
   2.40179110      0.994853973     -0.517000020      0.427591056      -1.40480268    
   2.54972792      0.507171988     -0.517000020      0.427591056      -1.40480268    
   1.84103203      0.366203994     -0.606999993      0.427591056      -1.40480268    
   1.84103203      0.366203994     -0.606999993       1.95903957      -1.52592683    
   1.33877206      0.266297996     -0.606999993       1.95903957      -1.52592683    
   1.26109600      0.522363007     -0.606999993       1.95903957      -1.52592683    
   1.73421395      0.718334973     -0.606999993       1.95903957      -1.52592683    
   1.84103203      0.366203994     -0.606999993      0.385455996      -1.39334226    
   2.54972792      0.507171988     -0.517000020      0.385455996      -1.39334226    
   2.59967995       0.00000000     -0.517000020      0.385455996      -1.39334226    
   1.87709999       0.00000000     -0.606999993      0.385455996      -1.39334226    
   1.87709999       0.00000000     -0.606999993       1.85281229      -1.52038288    
   1.36500001       0.00000000     -0.606999993       1.85281229      -1.52038288    
   1.33877206      0.266297996     -0.606999993       1.85281229      -1.52038288    
   1.84103203      0.366203994     -0.606999993       1.85281229      -1.52038288    
   1.87709999       0.00000000     -0.606999993      0.336827368      -1.39121592    
   2.59967995       0.00000000     -0.517000020      0.336827368      -1.39121592    
   2.54972792     -0.507171988     -0.517000020      0.336827368      -1.39121592    
   1.84103203     -0.366203994     -0.606999993      0.336827368      -1.39121592    
   1.84103203     -0.366203994     -0.606999993       1.73746347      -1.51828957    
   1.33877206     -0.266297996     -0.606999993       1.73746347      -1.51828957    
   1.36500001       0.00000000     -0.606999993       1.73746347      -1.51828957    
   1.87709999       0.00000000     -0.606999993       1.73746347      -1.51828957    
   1.84103203     -0.366203994     -0.606999993      0.290934324      -1.39841664    
   2.54972792     -0.507171988     -0.517000020      0.290934324      -1.39841664    
   2.40179110     -0.994853973     -0.517000020      0.290934324      -1.39841664    
   1.73421395     -0.718334973     -0.606999993      0.290934324      -1.39841664    
   1.73421395     -0.718334973     -0.606999993       1.62995327      -1.52032840    
   1.26109600     -0.522363007     -0.606999993       1.62995327      -1.52032840    
   1.33877206     -0.266297996     -0.606999993       1.62995327      -1.52032840    
   1.84103203     -0.366203994     -0.606999993       1.62995327      -1.52032840    
   1.73421395     -0.718334973     -0.606999993      0.253520012      -1.41314530    
   2.40179110     -0.994853973     -0.517000020      0.253520012      -1.41314530    
   2.16155505      -1.44430494     -0.517000020      0.253520012      -1.41314530    
   1.56075203      -1.04286098     -0.606999993      0.253520012      -1.41314530    
   1.56075203      -1.04286098     -0.606999993       1.54366684      -1.52671671    
   1.13495600     -0.758352995     -0.606999993       1.54366684      -1.52671671    
   1.26109600     -0.522363007     -0.606999993       1.54366684      -1.52671671    