 VARIABLES="X" "Y" "Z" "abs(p) (Pa)" "angle(p) (rad)"
ZONE N=   2709,E =    2358, F=FEPOINT, ET=QUADRILATERAL
   0.00000000      -5.48999977     -0.157000005       7.28487444      -1.49886191    
   0.00000000      -4.76741982     -0.246999994       7.28487444      -1.49886191    
  0.930077016      -4.67581606     -0.246999994       7.28487444      -1.49886191    
   1.07104599      -5.38451099     -0.157000005       7.28487444      -1.49886191    
  -1.07104599      -5.38451099     -0.157000005       7.66600561       1.65733337    
 -0.930077016      -4.67581606     -0.246999994       7.66600561       1.65733337    
   0.00000000      -4.76741982     -0.246999994       7.66600561       1.65733337    
   0.00000000      -5.48999977     -0.157000005       7.66600561       1.65733337    
  -2.10093188      -5.07209921     -0.157000005       22.5453472       1.62568486    
  -1.82441294      -4.40452194     -0.246999994       22.5453472       1.62568486    
 -0.930077016      -4.67581606     -0.246999994       22.5453472       1.62568486    
  -1.07104599      -5.38451099     -0.157000005       22.5453472       1.62568486    
  -3.05008101      -4.56476784     -0.157000005       32.6877365       1.61577618    
  -2.64863706      -3.96396494     -0.246999994       32.6877365       1.61577618    
  -1.82441294      -4.40452194     -0.246999994       32.6877365       1.61577618    
  -2.10093188      -5.07209921     -0.157000005       32.6877365       1.61577618    
  -3.88201594      -3.88201594     -0.157000005       43.2745285       1.61491060    
  -3.37107491      -3.37107491     -0.246999994       43.2745285       1.61491060    
  -2.64863706      -3.96396494     -0.246999994       43.2745285       1.61491060    
  -3.05008101      -4.56476784     -0.157000005       43.2745285       1.61491060    
  -4.56476784      -3.05008101     -0.157000005       55.4339256       1.61928904    
  -3.96396494      -2.64863706     -0.246999994       55.4339256       1.61928904    
  -3.37107491      -3.37107491     -0.246999994       55.4339256       1.61928904    
  -3.88201594      -3.88201594     -0.157000005       55.4339256       1.61928904    
  -5.07209921      -2.10093188     -0.157000005       61.2804298       1.62751031    
  -4.40452194      -1.82441294     -0.246999994       61.2804298       1.62751031    
  -3.96396494      -2.64863706     -0.246999994       61.2804298       1.62751031    
  -4.56476784      -3.05008101     -0.157000005       61.2804298       1.62751031    
  -5.38451099      -1.07104599     -0.157000005       66.9872360       1.62074423    
  -4.67581606     -0.930077016     -0.246999994       66.9872360       1.62074423    
  -4.40452194      -1.82441294     -0.246999994       66.9872360       1.62074423    
  -5.07209921      -2.10093188     -0.157000005       66.9872360       1.62074423    
  -5.48999977       0.00000000     -0.157000005       72.6985550       1.60800123    
  -4.76741982       0.00000000     -0.246999994       72.6985550       1.60800123    
  -4.67581606     -0.930077016     -0.246999994       72.6985550       1.60800123    
  -5.38451099      -1.07104599     -0.157000005       72.6985550       1.60800123    
  -5.38451099       1.07104599     -0.157000005       73.4774475       1.60567319    
  -4.67581606      0.930077016     -0.246999994       73.4774475       1.60567319    
  -4.76741982       0.00000000     -0.246999994       73.4774475       1.60567319    
  -5.48999977       0.00000000     -0.157000005       73.4774475       1.60567319    
  -5.07209921       2.10093188     -0.157000005       71.7309036       1.60886633    
  -4.40452194       1.82441294     -0.246999994       71.7309036       1.60886633    
  -4.67581606      0.930077016     -0.246999994       71.7309036       1.60886633    
  -5.38451099       1.07104599     -0.157000005       71.7309036       1.60886633    
  -4.56476784       3.05008101     -0.157000005       65.5446243       1.61054432    
  -3.96396494       2.64863706     -0.246999994       65.5446243       1.61054432    
  -4.40452194       1.82441294     -0.246999994       65.5446243       1.61054432    
  -5.07209921       2.10093188     -0.157000005       65.5446243       1.61054432    
  -3.88201594       3.88201594     -0.157000005       54.2801285       1.61004877    
  -3.37107491       3.37107491     -0.246999994       54.2801285       1.61004877    
  -3.96396494       2.64863706     -0.246999994       54.2801285       1.61004877    
  -4.56476784       3.05008101     -0.157000005       54.2801285       1.61004877    
  -3.05008101       4.56476784     -0.157000005       45.7758255       1.60443473    
  -2.64863706       3.96396494     -0.246999994       45.7758255       1.60443473    
  -3.37107491       3.37107491     -0.246999994       45.7758255       1.60443473    
  -3.88201594       3.88201594     -0.157000005       45.7758255       1.60443473    
  -2.10093188       5.07209921     -0.157000005       32.8109779       1.61605000    
  -1.82441294       4.40452194     -0.246999994       32.8109779       1.61605000    
  -2.64863706       3.96396494     -0.246999994       32.8109779       1.61605000    
  -3.05008101       4.56476784     -0.157000005       32.8109779       1.61605000    
  -1.07104599       5.38451099     -0.157000005       22.0520401       1.62514997    
 -0.930077016       4.67581606     -0.246999994       22.0520401       1.62514997    
  -1.82441294       4.40452194     -0.246999994       22.0520401       1.62514997    
  -2.10093188       5.07209921     -0.157000005       22.0520401       1.62514997    
   0.00000000       5.48999977     -0.157000005       7.43101978       1.62723494    
   0.00000000       4.76741982     -0.246999994       7.43101978       1.62723494    
 -0.930077016       4.67581606     -0.246999994       7.43101978       1.62723494    
  -1.07104599       5.38451099     -0.157000005       7.43101978       1.62723494    
   1.07104599       5.38451099     -0.157000005       7.97454929      -1.49313426    
  0.930077016       4.67581606     -0.246999994       7.97454929      -1.49313426    
   0.00000000       4.76741982     -0.246999994       7.97454929      -1.49313426    
   0.00000000       5.48999977     -0.157000005       7.97454929      -1.49313426    
   2.10093188       5.07209921     -0.157000005       21.3585472      -1.51220119    
   1.82441294       4.40452194     -0.246999994       21.3585472      -1.51220119    
  0.930077016       4.67581606     -0.246999994       21.3585472      -1.51220119    
   1.07104599       5.38451099     -0.157000005       21.3585472      -1.51220119    
   3.05008101       4.56476784     -0.157000005       32.6135712      -1.52680206    
   2.64863706       3.96396494     -0.246999994       32.6135712      -1.52680206    
   1.82441294       4.40452194     -0.246999994       32.6135712      -1.52680206    
   2.10093188       5.07209921     -0.157000005       32.6135712      -1.52680206    
   3.88201594       3.88201594     -0.157000005       45.8984299      -1.53119195    
   3.37107491       3.37107491     -0.246999994       45.8984299      -1.53119195    
   2.64863706       3.96396494     -0.246999994       45.8984299      -1.53119195    
   3.05008101       4.56476784     -0.157000005       45.8984299      -1.53119195    
   4.56476784       3.05008101     -0.157000005       55.4991341      -1.52201748    
   3.96396494       2.64863706     -0.246999994       55.4991341      -1.52201748    
   3.37107491       3.37107491     -0.246999994       55.4991341      -1.52201748    
   3.88201594       3.88201594     -0.157000005       55.4991341      -1.52201748    
   5.07209921       2.10093188     -0.157000005       65.1267624      -1.52208364    
   4.40452194       1.82441294     -0.246999994       65.1267624      -1.52208364    
   3.96396494       2.64863706     -0.246999994       65.1267624      -1.52208364    
   4.56476784       3.05008101     -0.157000005       65.1267624      -1.52208364    
   5.38451099       1.07104599     -0.157000005       67.4699631      -1.52204382    
   4.67581606      0.930077016     -0.246999994       67.4699631      -1.52204382    
   4.40452194       1.82441294     -0.246999994       67.4699631      -1.52204382    
   5.07209921       2.10093188     -0.157000005       67.4699631      -1.52204382    
   5.48999977       0.00000000     -0.157000005       68.8198776      -1.52531648    
   4.76741982       0.00000000     -0.246999994       68.8198776      -1.52531648    
   4.67581606      0.930077016     -0.246999994       68.8198776      -1.52531648    
   5.38451099       1.07104599     -0.157000005       68.8198776      -1.52531648    
   5.38451099      -1.07104599     -0.157000005       68.6728516      -1.52221787    
   4.67581606     -0.930077016     -0.246999994       68.6728516      -1.52221787    
   4.76741982       0.00000000     -0.246999994       68.6728516      -1.52221787    
   5.48999977       0.00000000     -0.157000005       68.6728516      -1.52221787    
   5.07209921      -2.10093188     -0.157000005       66.6616058      -1.51820827    
   4.40452194      -1.82441294     -0.246999994       66.6616058      -1.51820827    
   4.67581606     -0.930077016     -0.246999994       66.6616058      -1.51820827    
   5.38451099      -1.07104599     -0.157000005       66.6616058      -1.51820827    
   4.56476784      -3.05008101     -0.157000005       60.9242744      -1.52127588    
   3.96396494      -2.64863706     -0.246999994       60.9242744      -1.52127588    
   4.40452194      -1.82441294     -0.246999994       60.9242744      -1.52127588    
   5.07209921      -2.10093188     -0.157000005       60.9242744      -1.52127588    
   3.88201594      -3.88201594     -0.157000005       53.0460625      -1.53125679    
   3.37107491      -3.37107491     -0.246999994       53.0460625      -1.53125679    
   3.96396494      -2.64863706     -0.246999994       53.0460625      -1.53125679    
   4.56476784      -3.05008101     -0.157000005       53.0460625      -1.53125679    
   3.05008101      -4.56476784     -0.157000005       45.3304710      -1.53786504    
   2.64863706      -3.96396494     -0.246999994       45.3304710      -1.53786504    
   3.37107491      -3.37107491     -0.246999994       45.3304710      -1.53786504    
   3.88201594      -3.88201594     -0.157000005       45.3304710      -1.53786504    
   2.10093188      -5.07209921     -0.157000005       32.7742805      -1.52245700    
   1.82441294      -4.40452194     -0.246999994       32.7742805      -1.52245700    
   2.64863706      -3.96396494     -0.246999994       32.7742805      -1.52245700    
   3.05008101      -4.56476784     -0.157000005       32.7742805      -1.52245700    
   1.07104599      -5.38451099     -0.157000005       21.2304459      -1.50313580    
  0.930077016      -4.67581606     -0.246999994       21.2304459      -1.50313580    
   1.82441294      -4.40452194     -0.246999994       21.2304459      -1.50313580    
   2.10093188      -5.07209921     -0.157000005       21.2304459      -1.50313580    
   0.00000000      -1.87709999     -0.606999993       167.744354      -1.56985509    
   0.00000000      -1.36500001     -0.606999993       167.744354      -1.56985509    
  0.266297996      -1.33877206     -0.606999993       167.744354      -1.56985509    
  0.366203994      -1.84103203     -0.606999993       167.744354      -1.56985509    
   0.00000000      -1.87709999     -0.606999993       82.9273529       1.57132590    
   0.00000000      -2.59967995     -0.517000020       82.9273529       1.57132590    
 -0.507171988      -2.54972792     -0.517000020       82.9273529       1.57132590    
 -0.366203994      -1.84103203     -0.606999993       82.9273529       1.57132590    
 -0.366203994      -1.84103203     -0.606999993       165.180923       1.57127321    
 -0.266297996      -1.33877206     -0.606999993       165.180923       1.57127321    
   0.00000000      -1.36500001     -0.606999993       165.180923       1.57127321    
   0.00000000      -1.87709999     -0.606999993       165.180923       1.57127321    
 -0.366203994      -1.84103203     -0.606999993       239.371826       1.57150030    
 -0.507171988      -2.54972792     -0.517000020       239.371826       1.57150030    
 -0.994853973      -2.40179110     -0.517000020       239.371826       1.57150030    
 -0.718334973      -1.73421395     -0.606999993       239.371826       1.57150030    
 -0.718334973      -1.73421395     -0.606999993       486.818481       1.57143521    
 -0.522363007      -1.26109600     -0.606999993       486.818481       1.57143521    
 -0.266297996      -1.33877206     -0.606999993       486.818481       1.57143521    
 -0.366203994      -1.84103203     -0.606999993       486.818481       1.57143521    
 -0.718334973      -1.73421395     -0.606999993       367.097107       1.57154560    
 -0.994853973      -2.40179110     -0.517000020       367.097107       1.57154560    
  -1.44430494      -2.16155505     -0.517000020       367.097107       1.57154560    
  -1.04286098      -1.56075203     -0.606999993       367.097107       1.57154560    
  -1.04286098      -1.56075203     -0.606999993       779.065979       1.57147825    
 -0.758352995      -1.13495600     -0.606999993       779.065979       1.57147825    
 -0.522363007      -1.26109600     -0.606999993       779.065979       1.57147825    
 -0.718334973      -1.73421395     -0.606999993       779.065979       1.57147825    
  -1.04286098      -1.56075203     -0.606999993       472.512634       1.57158709    
  -1.44430494      -2.16155505     -0.517000020       472.512634       1.57158709    
  -1.83825099      -1.83825099     -0.517000020       472.512634       1.57158709    
  -1.32730997      -1.32730997     -0.606999993       472.512634       1.57158709    
  -1.32730997      -1.32730997     -0.606999993       1035.21143       1.57150960    
 -0.965201020     -0.965201020     -0.606999993       1035.21143       1.57150960    
 -0.758352995      -1.13495600     -0.606999993       1035.21143       1.57150960    
  -1.04286098      -1.56075203     -0.606999993       1035.21143       1.57150960    
  -1.32730997      -1.32730997     -0.606999993       566.403381       1.57163203    
  -1.83825099      -1.83825099     -0.517000020       566.403381       1.57163203    
  -2.16155505      -1.44430494     -0.517000020       566.403381       1.57163203    
  -1.56075203      -1.04286098     -0.606999993       566.403381       1.57163203    
  -1.56075203      -1.04286098     -0.606999993       1254.10645       1.57153201    
  -1.13495600     -0.758352995     -0.606999993       1254.10645       1.57153201    
 -0.965201020     -0.965201020     -0.606999993       1254.10645       1.57153201    
  -1.32730997      -1.32730997     -0.606999993       1254.10645       1.57153201    
  -1.56075203      -1.04286098     -0.606999993       652.524109       1.57165873    
  -2.16155505      -1.44430494     -0.517000020       652.524109       1.57165873    
  -2.40179110     -0.994853973     -0.517000020       652.524109       1.57165873    
  -1.73421395     -0.718334973     -0.606999993       652.524109       1.57165873    
  -1.73421395     -0.718334973     -0.606999993       1433.48376       1.57154834    
  -1.26109600     -0.522363007     -0.606999993       1433.48376       1.57154834    
  -1.13495600     -0.758352995     -0.606999993       1433.48376       1.57154834    
  -1.56075203      -1.04286098     -0.606999993       1433.48376       1.57154834    
  -1.73421395     -0.718334973     -0.606999993       721.168213       1.57166028    
  -2.40179110     -0.994853973     -0.517000020       721.168213       1.57166028    
  -2.54972792     -0.507171988     -0.517000020       721.168213       1.57166028    
  -1.84103203     -0.366203994     -0.606999993       721.168213       1.57166028    
  -1.84103203     -0.366203994     -0.606999993       1564.11292       1.57155335    
  -1.33877206     -0.266297996     -0.606999993       1564.11292       1.57155335    
  -1.26109600     -0.522363007     -0.606999993       1564.11292       1.57155335    
  -1.73421395     -0.718334973     -0.606999993       1564.11292       1.57155335    
  -1.84103203     -0.366203994     -0.606999993       760.343445       1.57165241    
  -2.54972792     -0.507171988     -0.517000020       760.343445       1.57165241    
  -2.59967995       0.00000000     -0.517000020       760.343445       1.57165241    
  -1.87709999       0.00000000     -0.606999993       760.343445       1.57165241    
  -1.87709999       0.00000000     -0.606999993       1634.70776       1.57155454    
  -1.36500001       0.00000000     -0.606999993       1634.70776       1.57155454    
  -1.33877206     -0.266297996     -0.606999993       1634.70776       1.57155454    
  -1.84103203     -0.366203994     -0.606999993       1634.70776       1.57155454    
  -1.87709999       0.00000000     -0.606999993       762.298340       1.57166052    
  -2.59967995       0.00000000     -0.517000020       762.298340       1.57166052    
  -2.54972792      0.507171988     -0.517000020       762.298340       1.57166052    
  -1.84103203      0.366203994     -0.606999993       762.298340       1.57166052    
  -1.84103203      0.366203994     -0.606999993       1637.10559       1.57155991    
  -1.33877206      0.266297996     -0.606999993       1637.10559       1.57155991    
  -1.36500001       0.00000000     -0.606999993       1637.10559       1.57155991    
  -1.87709999       0.00000000     -0.606999993       1637.10559       1.57155991    
  -1.84103203      0.366203994     -0.606999993       726.064331       1.57168746    
  -2.54972792      0.507171988     -0.517000020       726.064331       1.57168746    
  -2.40179110      0.994853973     -0.517000020       726.064331       1.57168746    
  -1.73421395      0.718334973     -0.606999993       726.064331       1.57168746    
  -1.73421395      0.718334973     -0.606999993       1570.33691       1.57157004    
  -1.26109600      0.522363007     -0.606999993       1570.33691       1.57157004    
  -1.33877206      0.266297996     -0.606999993       1570.33691       1.57157004    
  -1.84103203      0.366203994     -0.606999993       1570.33691       1.57157004    
  -1.73421395      0.718334973     -0.606999993       657.725525       1.57172143    
  -2.40179110      0.994853973     -0.517000020       657.725525       1.57172143    
  -2.16155505       1.44430494     -0.517000020       657.725525       1.57172143    
  -1.56075203       1.04286098     -0.606999993       657.725525       1.57172143    
  -1.56075203       1.04286098     -0.606999993       1441.40833       1.57158160    
  -1.13495600      0.758352995     -0.606999993       1441.40833       1.57158160    
  -1.26109600      0.522363007     -0.606999993       1441.40833       1.57158160    
  -1.73421395      0.718334973     -0.606999993       1441.40833       1.57158160    
  -1.56075203       1.04286098     -0.606999993       569.418579       1.57173789    
  -2.16155505       1.44430494     -0.517000020       569.418579       1.57173789    
  -1.83825099       1.83825099     -0.517000020       569.418579       1.57173789    
  -1.32730997       1.32730997     -0.606999993       569.418579       1.57173789    
  -1.32730997       1.32730997     -0.606999993       1261.43579       1.57158875    
 -0.965201020      0.965201020     -0.606999993       1261.43579       1.57158875    
  -1.13495600      0.758352995     -0.606999993       1261.43579       1.57158875    
  -1.56075203       1.04286098     -0.606999993       1261.43579       1.57158875    
  -1.32730997       1.32730997     -0.606999993       472.942749       1.57173371    
  -1.83825099       1.83825099     -0.517000020       472.942749       1.57173371    
  -1.44430494       2.16155505     -0.517000020       472.942749       1.57173371    
  -1.04286098       1.56075203     -0.606999993       472.942749       1.57173371    
  -1.04286098       1.56075203     -0.606999993       1040.63293       1.57158911    
 -0.758352995       1.13495600     -0.606999993       1040.63293       1.57158911    
 -0.965201020      0.965201020     -0.606999993       1040.63293       1.57158911    
  -1.32730997       1.32730997     -0.606999993       1040.63293       1.57158911    
  -1.04286098       1.56075203     -0.606999993       366.531006       1.57173717    
  -1.44430494       2.16155505     -0.517000020       366.531006       1.57173717    
 -0.994853973       2.40179110     -0.517000020       366.531006       1.57173717    
 -0.718334973       1.73421395     -0.606999993       366.531006       1.57173717    
 -0.718334973       1.73421395     -0.606999993       782.805786       1.57159269    
 -0.522363007       1.26109600     -0.606999993       782.805786       1.57159269    
 -0.758352995       1.13495600     -0.606999993       782.805786       1.57159269    
  -1.04286098       1.56075203     -0.606999993       782.805786       1.57159269    
 -0.718334973       1.73421395     -0.606999993       239.697433       1.57177436    
 -0.994853973       2.40179110     -0.517000020       239.697433       1.57177436    
 -0.507171988       2.54972792     -0.517000020       239.697433       1.57177436    
 -0.366203994       1.84103203     -0.606999993       239.697433       1.57177436    
 -0.366203994       1.84103203     -0.606999993       490.119873       1.57161498    
 -0.266297996       1.33877206     -0.606999993       490.119873       1.57161498    
 -0.522363007       1.26109600     -0.606999993       490.119873       1.57161498    
 -0.718334973       1.73421395     -0.606999993       490.119873       1.57161498    
 -0.366203994       1.84103203     -0.606999993       85.3337021       1.57199323    
 -0.507171988       2.54972792     -0.517000020       85.3337021       1.57199323    
   0.00000000       2.59967995     -0.517000020       85.3337021       1.57199323    
   0.00000000       1.87709999     -0.606999993       85.3337021       1.57199323    
   0.00000000       1.87709999     -0.606999993       168.836639       1.57175648    
   0.00000000       1.36500001     -0.606999993       168.836639       1.57175648    
 -0.266297996       1.33877206     -0.606999993       168.836639       1.57175648    
 -0.366203994       1.84103203     -0.606999993       168.836639       1.57175648    
   0.00000000       1.87709999     -0.606999993       81.1938782      -1.57026279    
   0.00000000       2.59967995     -0.517000020       81.1938782      -1.57026279    
  0.507171988       2.54972792     -0.517000020       81.1938782      -1.57026279    
  0.366203994       1.84103203     -0.606999993       81.1938782      -1.57026279    
  0.366203994       1.84103203     -0.606999993       163.552322      -1.57026875    
  0.266297996       1.33877206     -0.606999993       163.552322      -1.57026875    
   0.00000000       1.36500001     -0.606999993       163.552322      -1.57026875    
   0.00000000       1.87709999     -0.606999993       163.552322      -1.57026875    
  0.366203994       1.84103203     -0.606999993       235.877563      -1.57002354    
  0.507171988       2.54972792     -0.517000020       235.877563      -1.57002354    
  0.994853973       2.40179110     -0.517000020       235.877563      -1.57002354    
  0.718334973       1.73421395     -0.606999993       235.877563      -1.57002354    
  0.718334973       1.73421395     -0.606999993       485.250977      -1.57011390    
  0.522363007       1.26109600     -0.606999993       485.250977      -1.57011390    
  0.266297996       1.33877206     -0.606999993       485.250977      -1.57011390    
  0.366203994       1.84103203     -0.606999993       485.250977      -1.57011390    
  0.718334973       1.73421395     -0.606999993       363.231689      -1.56995201    
  0.994853973       2.40179110     -0.517000020       363.231689      -1.56995201    
   1.44430494       2.16155505     -0.517000020       363.231689      -1.56995201    
   1.04286098       1.56075203     -0.606999993       363.231689      -1.56995201    
   1.04286098       1.56075203     -0.606999993       778.881042      -1.57007277    
  0.758352995       1.13495600     -0.606999993       778.881042      -1.57007277    
  0.522363007       1.26109600     -0.606999993       778.881042      -1.57007277    
  0.718334973       1.73421395     -0.606999993       778.881042      -1.57007277    
   1.04286098       1.56075203     -0.606999993       470.340729      -1.56989539    
   1.44430494       2.16155505     -0.517000020       470.340729      -1.56989539    
   1.83825099       1.83825099     -0.517000020       470.340729      -1.56989539    
   1.32730997       1.32730997     -0.606999993       470.340729      -1.56989539    
   1.32730997       1.32730997     -0.606999993       1037.88098      -1.57004642    
  0.965201020      0.965201020     -0.606999993       1037.88098      -1.57004642    
  0.758352995       1.13495600     -0.606999993       1037.88098      -1.57004642    
   1.04286098       1.56075203     -0.606999993       1037.88098      -1.57004642    
   1.32730997       1.32730997     -0.606999993       567.560730      -1.56985152    
   1.83825099       1.83825099     -0.517000020       567.560730      -1.56985152    
   2.16155505       1.44430494     -0.517000020       567.560730      -1.56985152    
   1.56075203       1.04286098     -0.606999993       567.560730      -1.56985152    
   1.56075203       1.04286098     -0.606999993       1259.92603      -1.57002831    
   1.13495600      0.758352995     -0.606999993       1259.92603      -1.57002831    
  0.965201020      0.965201020     -0.606999993       1259.92603      -1.57002831    
   1.32730997       1.32730997     -0.606999993       1259.92603      -1.57002831    
   1.56075203       1.04286098     -0.606999993       656.543823      -1.56983793    
   2.16155505       1.44430494     -0.517000020       656.543823      -1.56983793    
   2.40179110      0.994853973     -0.517000020       656.543823      -1.56983793    
   1.73421395      0.718334973     -0.606999993       656.543823      -1.56983793    
   1.73421395      0.718334973     -0.606999993       1440.67896      -1.57001936    
   1.26109600      0.522363007     -0.606999993       1440.67896      -1.57001936    
   1.13495600      0.758352995     -0.606999993       1440.67896      -1.57001936    
   1.56075203       1.04286098     -0.606999993       1440.67896      -1.57001936    
   1.73421395      0.718334973     -0.606999993       725.462463      -1.56985068    
   2.40179110      0.994853973     -0.517000020       725.462463      -1.56985068    
   2.54972792      0.507171988     -0.517000020       725.462463      -1.56985068    
   1.84103203      0.366203994     -0.606999993       725.462463      -1.56985068    
   1.84103203      0.366203994     -0.606999993       1570.23413      -1.57002115    
   1.33877206      0.266297996     -0.606999993       1570.23413      -1.57002115    
   1.26109600      0.522363007     -0.606999993       1570.23413      -1.57002115    
   1.73421395      0.718334973     -0.606999993       1570.23413      -1.57002115    
   1.84103203      0.366203994     -0.606999993       762.221558      -1.56986570    
   2.54972792      0.507171988     -0.517000020       762.221558      -1.56986570    
   2.59967995       0.00000000     -0.517000020       762.221558      -1.56986570    
   1.87709999       0.00000000     -0.606999993       762.221558      -1.56986570    
   1.87709999       0.00000000     -0.606999993       1637.57141      -1.57002270    
   1.36500001       0.00000000     -0.606999993       1637.57141      -1.57002270    
   1.33877206      0.266297996     -0.606999993       1637.57141      -1.57002270    
   1.84103203      0.366203994     -0.606999993       1637.57141      -1.57002270    
   1.87709999       0.00000000     -0.606999993       760.777283      -1.56986296    
   2.59967995       0.00000000     -0.517000020       760.777283      -1.56986296    
   2.54972792     -0.507171988     -0.517000020       760.777283      -1.56986296    
   1.84103203     -0.366203994     -0.606999993       760.777283      -1.56986296    
   1.84103203     -0.366203994     -0.606999993       1635.64612      -1.57001960    
   1.33877206     -0.266297996     -0.606999993       1635.64612      -1.57001960    
   1.36500001       0.00000000     -0.606999993       1635.64612      -1.57001960    
   1.87709999       0.00000000     -0.606999993       1635.64612      -1.57001960    
   1.84103203     -0.366203994     -0.606999993       722.109192      -1.56985164    
   2.54972792     -0.507171988     -0.517000020       722.109192      -1.56985164    
   2.40179110     -0.994853973     -0.517000020       722.109192      -1.56985164    
   1.73421395     -0.718334973     -0.606999993       722.109192      -1.56985164    
   1.73421395     -0.718334973     -0.606999993       1565.55835      -1.57001448    
   1.26109600     -0.522363007     -0.606999993       1565.55835      -1.57001448    
   1.33877206     -0.266297996     -0.606999993       1565.55835      -1.57001448    
   1.84103203     -0.366203994     -0.606999993       1565.55835      -1.57001448    
   1.73421395     -0.718334973     -0.606999993       653.946716      -1.56985068    
   2.40179110     -0.994853973     -0.517000020       653.946716      -1.56985068    
   2.16155505      -1.44430494     -0.517000020       653.946716      -1.56985068    
   1.56075203      -1.04286098     -0.606999993       653.946716      -1.56985068    
   1.56075203      -1.04286098     -0.606999993       1435.61816      -1.57001090    
   1.13495600     -0.758352995     -0.606999993       1435.61816      -1.57001090    
   1.26109600     -0.522363007     -0.606999993       1435.61816      -1.57001090    