 VARIABLES="X" "Y" "Z" "abs(p) (Pa)" "angle(p) (rad)"
ZONE N=   2709,E =    2358, F=FEPOINT, ET=QUADRILATERAL
   0.00000000      -5.48999977     -0.157000005       1735.51477     -0.922764778    
   0.00000000      -4.76741982     -0.246999994       1735.51477     -0.922764778    
  0.930077016      -4.67581606     -0.246999994       1735.51477     -0.922764778    
   1.07104599      -5.38451099     -0.157000005       1735.51477     -0.922764778    
  -1.07104599      -5.38451099     -0.157000005       1735.47461     -0.922944248    
 -0.930077016      -4.67581606     -0.246999994       1735.47461     -0.922944248    
   0.00000000      -4.76741982     -0.246999994       1735.47461     -0.922944248    
   0.00000000      -5.48999977     -0.157000005       1735.47461     -0.922944248    
  -2.10093188      -5.07209921     -0.157000005       1665.31323     -0.925106764    
  -1.82441294      -4.40452194     -0.246999994       1665.31323     -0.925106764    
 -0.930077016      -4.67581606     -0.246999994       1665.31323     -0.925106764    
  -1.07104599      -5.38451099     -0.157000005       1665.31323     -0.925106764    
  -3.05008101      -4.56476784     -0.157000005       1541.26794     -0.924181402    
  -2.64863706      -3.96396494     -0.246999994       1541.26794     -0.924181402    
  -1.82441294      -4.40452194     -0.246999994       1541.26794     -0.924181402    
  -2.10093188      -5.07209921     -0.157000005       1541.26794     -0.924181402    
  -3.88201594      -3.88201594     -0.157000005       1358.09131     -0.927357554    
  -3.37107491      -3.37107491     -0.246999994       1358.09131     -0.927357554    
  -2.64863706      -3.96396494     -0.246999994       1358.09131     -0.927357554    
  -3.05008101      -4.56476784     -0.157000005       1358.09131     -0.927357554    
  -4.56476784      -3.05008101     -0.157000005       1116.68335     -0.932951450    
  -3.96396494      -2.64863706     -0.246999994       1116.68335     -0.932951450    
  -3.37107491      -3.37107491     -0.246999994       1116.68335     -0.932951450    
  -3.88201594      -3.88201594     -0.157000005       1116.68335     -0.932951450    
  -5.07209921      -2.10093188     -0.157000005       834.652588     -0.931651175    
  -4.40452194      -1.82441294     -0.246999994       834.652588     -0.931651175    
  -3.96396494      -2.64863706     -0.246999994       834.652588     -0.931651175    
  -4.56476784      -3.05008101     -0.157000005       834.652588     -0.931651175    
  -5.38451099      -1.07104599     -0.157000005       516.408203     -0.930526674    
  -4.67581606     -0.930077016     -0.246999994       516.408203     -0.930526674    
  -4.40452194      -1.82441294     -0.246999994       516.408203     -0.930526674    
  -5.07209921      -2.10093188     -0.157000005       516.408203     -0.930526674    
  -5.48999977       0.00000000     -0.157000005       180.391251     -0.942845702    
  -4.76741982       0.00000000     -0.246999994       180.391251     -0.942845702    
  -4.67581606     -0.930077016     -0.246999994       180.391251     -0.942845702    
  -5.38451099      -1.07104599     -0.157000005       180.391251     -0.942845702    
  -5.38451099       1.07104599     -0.157000005       159.070236       2.24510360    
  -4.67581606      0.930077016     -0.246999994       159.070236       2.24510360    
  -4.76741982       0.00000000     -0.246999994       159.070236       2.24510360    
  -5.48999977       0.00000000     -0.157000005       159.070236       2.24510360    
  -5.07209921       2.10093188     -0.157000005       495.086517       2.22428799    
  -4.40452194       1.82441294     -0.246999994       495.086517       2.22428799    
  -4.67581606      0.930077016     -0.246999994       495.086517       2.22428799    
  -5.38451099       1.07104599     -0.157000005       495.086517       2.22428799    
  -4.56476784       3.05008101     -0.157000005       817.821350       2.21614337    
  -3.96396494       2.64863706     -0.246999994       817.821350       2.21614337    
  -4.40452194       1.82441294     -0.246999994       817.821350       2.21614337    
  -5.07209921       2.10093188     -0.157000005       817.821350       2.21614337    
  -3.88201594       3.88201594     -0.157000005       1112.69141       2.21399188    
  -3.37107491       3.37107491     -0.246999994       1112.69141       2.21399188    
  -3.96396494       2.64863706     -0.246999994       1112.69141       2.21399188    
  -4.56476784       3.05008101     -0.157000005       1112.69141       2.21399188    
  -3.05008101       4.56476784     -0.157000005       1354.04407       2.21256900    
  -2.64863706       3.96396494     -0.246999994       1354.04407       2.21256900    
  -3.37107491       3.37107491     -0.246999994       1354.04407       2.21256900    
  -3.88201594       3.88201594     -0.157000005       1354.04407       2.21256900    
  -2.10093188       5.07209921     -0.157000005       1545.36816       2.21645951    
  -1.82441294       4.40452194     -0.246999994       1545.36816       2.21645951    
  -2.64863706       3.96396494     -0.246999994       1545.36816       2.21645951    
  -3.05008101       4.56476784     -0.157000005       1545.36816       2.21645951    
  -1.07104599       5.38451099     -0.157000005       1672.68652       2.21542072    
 -0.930077016       4.67581606     -0.246999994       1672.68652       2.21542072    
  -1.82441294       4.40452194     -0.246999994       1672.68652       2.21542072    
  -2.10093188       5.07209921     -0.157000005       1672.68652       2.21542072    
   0.00000000       5.48999977     -0.157000005       1745.07983       2.21696782    
   0.00000000       4.76741982     -0.246999994       1745.07983       2.21696782    
 -0.930077016       4.67581606     -0.246999994       1745.07983       2.21696782    
  -1.07104599       5.38451099     -0.157000005       1745.07983       2.21696782    
   1.07104599       5.38451099     -0.157000005       1741.29797       2.21546555    
  0.930077016       4.67581606     -0.246999994       1741.29797       2.21546555    
   0.00000000       4.76741982     -0.246999994       1741.29797       2.21546555    
   0.00000000       5.48999977     -0.157000005       1741.29797       2.21546555    
   2.10093188       5.07209921     -0.157000005       1679.40222       2.21709561    
   1.82441294       4.40452194     -0.246999994       1679.40222       2.21709561    
  0.930077016       4.67581606     -0.246999994       1679.40222       2.21709561    
   1.07104599       5.38451099     -0.157000005       1679.40222       2.21709561    
   3.05008101       4.56476784     -0.157000005       1548.99646       2.21661735    
   2.64863706       3.96396494     -0.246999994       1548.99646       2.21661735    
   1.82441294       4.40452194     -0.246999994       1548.99646       2.21661735    
   2.10093188       5.07209921     -0.157000005       1548.99646       2.21661735    
   3.88201594       3.88201594     -0.157000005       1357.36206       2.21225452    
   3.37107491       3.37107491     -0.246999994       1357.36206       2.21225452    
   2.64863706       3.96396494     -0.246999994       1357.36206       2.21225452    
   3.05008101       4.56476784     -0.157000005       1357.36206       2.21225452    
   4.56476784       3.05008101     -0.157000005       1114.10522       2.21223831    
   3.96396494       2.64863706     -0.246999994       1114.10522       2.21223831    
   3.37107491       3.37107491     -0.246999994       1114.10522       2.21223831    
   3.88201594       3.88201594     -0.157000005       1114.10522       2.21223831    
   5.07209921       2.10093188     -0.157000005       822.253296       2.21560502    
   4.40452194       1.82441294     -0.246999994       822.253296       2.21560502    
   3.96396494       2.64863706     -0.246999994       822.253296       2.21560502    
   4.56476784       3.05008101     -0.157000005       822.253296       2.21560502    
   5.38451099       1.07104599     -0.157000005       502.750427       2.22589231    
   4.67581606      0.930077016     -0.246999994       502.750427       2.22589231    
   4.40452194       1.82441294     -0.246999994       502.750427       2.22589231    
   5.07209921       2.10093188     -0.157000005       502.750427       2.22589231    
   5.48999977       0.00000000     -0.157000005       166.310272       2.24690485    
   4.76741982       0.00000000     -0.246999994       166.310272       2.24690485    
   4.67581606      0.930077016     -0.246999994       166.310272       2.24690485    
   5.38451099       1.07104599     -0.157000005       166.310272       2.24690485    
   5.38451099      -1.07104599     -0.157000005       174.438980     -0.942795277    
   4.67581606     -0.930077016     -0.246999994       174.438980     -0.942795277    
   4.76741982       0.00000000     -0.246999994       174.438980     -0.942795277    
   5.48999977       0.00000000     -0.157000005       174.438980     -0.942795277    
   5.07209921      -2.10093188     -0.157000005       510.737488     -0.930485308    
   4.40452194      -1.82441294     -0.246999994       510.737488     -0.930485308    
   4.67581606     -0.930077016     -0.246999994       510.737488     -0.930485308    
   5.38451099      -1.07104599     -0.157000005       510.737488     -0.930485308    
   4.56476784      -3.05008101     -0.157000005       830.797729     -0.930986702    
   3.96396494      -2.64863706     -0.246999994       830.797729     -0.930986702    
   4.40452194      -1.82441294     -0.246999994       830.797729     -0.930986702    
   5.07209921      -2.10093188     -0.157000005       830.797729     -0.930986702    
   3.88201594      -3.88201594     -0.157000005       1116.98682     -0.930604815    
   3.37107491      -3.37107491     -0.246999994       1116.98682     -0.930604815    
   3.96396494      -2.64863706     -0.246999994       1116.98682     -0.930604815    
   4.56476784      -3.05008101     -0.157000005       1116.98682     -0.930604815    
   3.05008101      -4.56476784     -0.157000005       1350.96008     -0.929109573    
   2.64863706      -3.96396494     -0.246999994       1350.96008     -0.929109573    
   3.37107491      -3.37107491     -0.246999994       1350.96008     -0.929109573    
   3.88201594      -3.88201594     -0.157000005       1350.96008     -0.929109573    
   2.10093188      -5.07209921     -0.157000005       1538.96484     -0.924096882    
   1.82441294      -4.40452194     -0.246999994       1538.96484     -0.924096882    
   2.64863706      -3.96396494     -0.246999994       1538.96484     -0.924096882    
   3.05008101      -4.56476784     -0.157000005       1538.96484     -0.924096882    
   1.07104599      -5.38451099     -0.157000005       1669.30823     -0.923154891    
  0.930077016      -4.67581606     -0.246999994       1669.30823     -0.923154891    
   1.82441294      -4.40452194     -0.246999994       1669.30823     -0.923154891    
   2.10093188      -5.07209921     -0.157000005       1669.30823     -0.923154891    
   0.00000000      -1.87709999     -0.606999993       8783.18652      -1.54293466    
   0.00000000      -1.36500001     -0.606999993       8783.18652      -1.54293466    
  0.266297996      -1.33877206     -0.606999993       8783.18652      -1.54293466    
  0.366203994      -1.84103203     -0.606999993       8783.18652      -1.54293466    
   0.00000000      -1.87709999     -0.606999993       5041.90869      -1.50143480    
   0.00000000      -2.59967995     -0.517000020       5041.90869      -1.50143480    
 -0.507171988      -2.54972792     -0.517000020       5041.90869      -1.50143480    
 -0.366203994      -1.84103203     -0.606999993       5041.90869      -1.50143480    
 -0.366203994      -1.84103203     -0.606999993       8791.71582      -1.54293025    
 -0.266297996      -1.33877206     -0.606999993       8791.71582      -1.54293025    
   0.00000000      -1.36500001     -0.606999993       8791.71582      -1.54293025    
   0.00000000      -1.87709999     -0.606999993       8791.71582      -1.54293025    
 -0.366203994      -1.84103203     -0.606999993       4891.61035      -1.50189340    
 -0.507171988      -2.54972792     -0.517000020       4891.61035      -1.50189340    
 -0.994853973      -2.40179110     -0.517000020       4891.61035      -1.50189340    
 -0.718334973      -1.73421395     -0.606999993       4891.61035      -1.50189340    
 -0.718334973      -1.73421395     -0.606999993       8492.03223      -1.54294109    
 -0.522363007      -1.26109600     -0.606999993       8492.03223      -1.54294109    
 -0.266297996      -1.33877206     -0.606999993       8492.03223      -1.54294109    
 -0.366203994      -1.84103203     -0.606999993       8492.03223      -1.54294109    
 -0.718334973      -1.73421395     -0.606999993       4572.60938      -1.50254691    
 -0.994853973      -2.40179110     -0.517000020       4572.60938      -1.50254691    
  -1.44430494      -2.16155505     -0.517000020       4572.60938      -1.50254691    
  -1.04286098      -1.56075203     -0.606999993       4572.60938      -1.50254691    
  -1.04286098      -1.56075203     -0.606999993       7878.09131      -1.54294932    
 -0.758352995      -1.13495600     -0.606999993       7878.09131      -1.54294932    
 -0.522363007      -1.26109600     -0.606999993       7878.09131      -1.54294932    
 -0.718334973      -1.73421395     -0.606999993       7878.09131      -1.54294932    
  -1.04286098      -1.56075203     -0.606999993       4063.08423      -1.50307560    
  -1.44430494      -2.16155505     -0.517000020       4063.08423      -1.50307560    
  -1.83825099      -1.83825099     -0.517000020       4063.08423      -1.50307560    
  -1.32730997      -1.32730997     -0.606999993       4063.08423      -1.50307560    
  -1.32730997      -1.32730997     -0.606999993       6947.77539      -1.54293096    
 -0.965201020     -0.965201020     -0.606999993       6947.77539      -1.54293096    
 -0.758352995      -1.13495600     -0.606999993       6947.77539      -1.54293096    
  -1.04286098      -1.56075203     -0.606999993       6947.77539      -1.54293096    
  -1.32730997      -1.32730997     -0.606999993       3352.47876      -1.50319195    
  -1.83825099      -1.83825099     -0.517000020       3352.47876      -1.50319195    
  -2.16155505      -1.44430494     -0.517000020       3352.47876      -1.50319195    
  -1.56075203      -1.04286098     -0.606999993       3352.47876      -1.50319195    
  -1.56075203      -1.04286098     -0.606999993       5722.17188      -1.54289401    
  -1.13495600     -0.758352995     -0.606999993       5722.17188      -1.54289401    
 -0.965201020     -0.965201020     -0.606999993       5722.17188      -1.54289401    
  -1.32730997      -1.32730997     -0.606999993       5722.17188      -1.54289401    
  -1.56075203      -1.04286098     -0.606999993       2471.02466      -1.50277722    
  -2.16155505      -1.44430494     -0.517000020       2471.02466      -1.50277722    
  -2.40179110     -0.994853973     -0.517000020       2471.02466      -1.50277722    
  -1.73421395     -0.718334973     -0.606999993       2471.02466      -1.50277722    
  -1.73421395     -0.718334973     -0.606999993       4256.94336      -1.54287219    
  -1.26109600     -0.522363007     -0.606999993       4256.94336      -1.54287219    
  -1.13495600     -0.758352995     -0.606999993       4256.94336      -1.54287219    
  -1.56075203      -1.04286098     -0.606999993       4256.94336      -1.54287219    
  -1.73421395     -0.718334973     -0.606999993       1502.83289      -1.50225532    
  -2.40179110     -0.994853973     -0.517000020       1502.83289      -1.50225532    
  -2.54972792     -0.507171988     -0.517000020       1502.83289      -1.50225532    
  -1.84103203     -0.366203994     -0.606999993       1502.83289      -1.50225532    
  -1.84103203     -0.366203994     -0.606999993       2633.81543      -1.54288495    
  -1.33877206     -0.266297996     -0.606999993       2633.81543      -1.54288495    
  -1.26109600     -0.522363007     -0.606999993       2633.81543      -1.54288495    
  -1.73421395     -0.718334973     -0.606999993       2633.81543      -1.54288495    
  -1.84103203     -0.366203994     -0.606999993       527.171204      -1.50382781    
  -2.54972792     -0.507171988     -0.517000020       527.171204      -1.50382781    
  -2.59967995       0.00000000     -0.517000020       527.171204      -1.50382781    
  -1.87709999       0.00000000     -0.606999993       527.171204      -1.50382781    
  -1.87709999       0.00000000     -0.606999993       933.841858      -1.54301071    
  -1.36500001       0.00000000     -0.606999993       933.841858      -1.54301071    
  -1.33877206     -0.266297996     -0.606999993       933.841858      -1.54301071    
  -1.84103203     -0.366203994     -0.606999993       933.841858      -1.54301071    
  -1.87709999       0.00000000     -0.606999993       429.161377       1.64688277    
  -2.59967995       0.00000000     -0.517000020       429.161377       1.64688277    
  -2.54972792      0.507171988     -0.517000020       429.161377       1.64688277    
  -1.84103203      0.366203994     -0.606999993       429.161377       1.64688277    
  -1.84103203      0.366203994     -0.606999993       782.290466       1.59905934    
  -1.33877206      0.266297996     -0.606999993       782.290466       1.59905934    
  -1.36500001       0.00000000     -0.606999993       782.290466       1.59905934    
  -1.87709999       0.00000000     -0.606999993       782.290466       1.59905934    
  -1.84103203      0.366203994     -0.606999993       1387.43127       1.64288700    
  -2.54972792      0.507171988     -0.517000020       1387.43127       1.64288700    
  -2.40179110      0.994853973     -0.517000020       1387.43127       1.64288700    
  -1.73421395      0.718334973     -0.606999993       1387.43127       1.64288700    
  -1.73421395      0.718334973     -0.606999993       2474.21021       1.59889853    
  -1.26109600      0.522363007     -0.606999993       2474.21021       1.59889853    
  -1.33877206      0.266297996     -0.606999993       2474.21021       1.59889853    
  -1.84103203      0.366203994     -0.606999993       2474.21021       1.59889853    
  -1.73421395      0.718334973     -0.606999993       2342.21582       1.64125431    
  -2.40179110      0.994853973     -0.517000020       2342.21582       1.64125431    
  -2.16155505       1.44430494     -0.517000020       2342.21582       1.64125431    
  -1.56075203       1.04286098     -0.606999993       2342.21582       1.64125431    
  -1.56075203       1.04286098     -0.606999993       4091.87329       1.59887326    
  -1.13495600      0.758352995     -0.606999993       4091.87329       1.59887326    
  -1.26109600      0.522363007     -0.606999993       4091.87329       1.59887326    
  -1.73421395      0.718334973     -0.606999993       4091.87329       1.59887326    
  -1.56075203       1.04286098     -0.606999993       3231.28271       1.64017308    
  -2.16155505       1.44430494     -0.517000020       3231.28271       1.64017308    
  -1.83825099       1.83825099     -0.517000020       3231.28271       1.64017308    
  -1.32730997       1.32730997     -0.606999993       3231.28271       1.64017308    
  -1.32730997       1.32730997     -0.606999993       5563.48145       1.59885037    
 -0.965201020      0.965201020     -0.606999993       5563.48145       1.59885037    
  -1.13495600      0.758352995     -0.606999993       5563.48145       1.59885037    
  -1.56075203       1.04286098     -0.606999993       5563.48145       1.59885037    
  -1.32730997       1.32730997     -0.606999993       3967.01294       1.63978469    
  -1.83825099       1.83825099     -0.517000020       3967.01294       1.63978469    
  -1.44430494       2.16155505     -0.517000020       3967.01294       1.63978469    
  -1.04286098       1.56075203     -0.606999993       3967.01294       1.63978469    
  -1.04286098       1.56075203     -0.606999993       6807.11523       1.59882832    
 -0.758352995       1.13495600     -0.606999993       6807.11523       1.59882832    
 -0.965201020      0.965201020     -0.606999993       6807.11523       1.59882832    
  -1.32730997       1.32730997     -0.606999993       6807.11523       1.59882832    
  -1.04286098       1.56075203     -0.606999993       4504.08203       1.63996375    
  -1.44430494       2.16155505     -0.517000020       4504.08203       1.63996375    
 -0.994853973       2.40179110     -0.517000020       4504.08203       1.63996375    
 -0.718334973       1.73421395     -0.606999993       4504.08203       1.63996375    
 -0.718334973       1.73421395     -0.606999993       7763.23682       1.59881961    
 -0.522363007       1.26109600     -0.606999993       7763.23682       1.59881961    
 -0.758352995       1.13495600     -0.606999993       7763.23682       1.59881961    
  -1.04286098       1.56075203     -0.606999993       7763.23682       1.59881961    
 -0.718334973       1.73421395     -0.606999993       4844.83252       1.64039457    
 -0.994853973       2.40179110     -0.517000020       4844.83252       1.64039457    
 -0.507171988       2.54972792     -0.517000020       4844.83252       1.64039457    
 -0.366203994       1.84103203     -0.606999993       4844.83252       1.64039457    
 -0.366203994       1.84103203     -0.606999993       8403.90918       1.59882796    
 -0.266297996       1.33877206     -0.606999993       8403.90918       1.59882796    
 -0.522363007       1.26109600     -0.606999993       8403.90918       1.59882796    
 -0.718334973       1.73421395     -0.606999993       8403.90918       1.59882796    
 -0.366203994       1.84103203     -0.606999993       5010.83691       1.64070809    
 -0.507171988       2.54972792     -0.517000020       5010.83691       1.64070809    
   0.00000000       2.59967995     -0.517000020       5010.83691       1.64070809    
   0.00000000       1.87709999     -0.606999993       5010.83691       1.64070809    
   0.00000000       1.87709999     -0.606999993       8727.18066       1.59883344    
   0.00000000       1.36500001     -0.606999993       8727.18066       1.59883344    
 -0.266297996       1.33877206     -0.606999993       8727.18066       1.59883344    
 -0.366203994       1.84103203     -0.606999993       8727.18066       1.59883344    
   0.00000000       1.87709999     -0.606999993       5016.67676       1.64064848    
   0.00000000       2.59967995     -0.517000020       5016.67676       1.64064848    
  0.507171988       2.54972792     -0.517000020       5016.67676       1.64064848    
  0.366203994       1.84103203     -0.606999993       5016.67676       1.64064848    
  0.366203994       1.84103203     -0.606999993       8736.81934       1.59881747    
  0.266297996       1.33877206     -0.606999993       8736.81934       1.59881747    
   0.00000000       1.36500001     -0.606999993       8736.81934       1.59881747    
   0.00000000       1.87709999     -0.606999993       8736.81934       1.59881747    
  0.366203994       1.84103203     -0.606999993       4862.13867       1.64021194    
  0.507171988       2.54972792     -0.517000020       4862.13867       1.64021194    
  0.994853973       2.40179110     -0.517000020       4862.13867       1.64021194    
  0.718334973       1.73421395     -0.606999993       4862.13867       1.64021194    
  0.718334973       1.73421395     -0.606999993       8432.48340       1.59877825    
  0.522363007       1.26109600     -0.606999993       8432.48340       1.59877825    
  0.266297996       1.33877206     -0.606999993       8432.48340       1.59877825    
  0.366203994       1.84103203     -0.606999993       8432.48340       1.59877825    
  0.718334973       1.73421395     -0.606999993       4532.44141       1.63964331    
  0.994853973       2.40179110     -0.517000020       4532.44141       1.63964331    
   1.44430494       2.16155505     -0.517000020       4532.44141       1.63964331    
   1.04286098       1.56075203     -0.606999993       4532.44141       1.63964331    
   1.04286098       1.56075203     -0.606999993       7809.35840       1.59873426    
  0.758352995       1.13495600     -0.606999993       7809.35840       1.59873426    
  0.522363007       1.26109600     -0.606999993       7809.35840       1.59873426    
  0.718334973       1.73421395     -0.606999993       7809.35840       1.59873426    
   1.04286098       1.56075203     -0.606999993       4005.58350       1.63929248    
   1.44430494       2.16155505     -0.517000020       4005.58350       1.63929248    
   1.83825099       1.83825099     -0.517000020       4005.58350       1.63929248    
   1.32730997       1.32730997     -0.606999993       4005.58350       1.63929248    
   1.32730997       1.32730997     -0.606999993       6869.20215       1.59870255    
  0.965201020      0.965201020     -0.606999993       6869.20215       1.59870255    
  0.758352995       1.13495600     -0.606999993       6869.20215       1.59870255    
   1.04286098       1.56075203     -0.606999993       6869.20215       1.59870255    
   1.32730997       1.32730997     -0.606999993       3278.30029       1.63944399    
   1.83825099       1.83825099     -0.517000020       3278.30029       1.63944399    
   2.16155505       1.44430494     -0.517000020       3278.30029       1.63944399    
   1.56075203       1.04286098     -0.606999993       3278.30029       1.63944399    
   1.56075203       1.04286098     -0.606999993       5638.35938       1.59867811    
   1.13495600      0.758352995     -0.606999993       5638.35938       1.59867811    
  0.965201020      0.965201020     -0.606999993       5638.35938       1.59867811    
   1.32730997       1.32730997     -0.606999993       5638.35938       1.59867811    
   1.56075203       1.04286098     -0.606999993       2394.94434       1.64014268    
   2.16155505       1.44430494     -0.517000020       2394.94434       1.64014268    
   2.40179110      0.994853973     -0.517000020       2394.94434       1.64014268    
   1.73421395      0.718334973     -0.606999993       2394.94434       1.64014268    
   1.73421395      0.718334973     -0.606999993       4174.60840       1.59865260    
   1.26109600      0.522363007     -0.606999993       4174.60840       1.59865260    
   1.13495600      0.758352995     -0.606999993       4174.60840       1.59865260    
   1.56075203       1.04286098     -0.606999993       4174.60840       1.59865260    
   1.73421395      0.718334973     -0.606999993       1443.07288       1.64094937    
   2.40179110      0.994853973     -0.517000020       1443.07288       1.64094937    
   2.54972792      0.507171988     -0.517000020       1443.07288       1.64094937    
   1.84103203      0.366203994     -0.606999993       1443.07288       1.64094937    
   1.84103203      0.366203994     -0.606999993       2560.90967       1.59858632    
   1.33877206      0.266297996     -0.606999993       2560.90967       1.59858632    
   1.26109600      0.522363007     -0.606999993       2560.90967       1.59858632    
   1.73421395      0.718334973     -0.606999993       2560.90967       1.59858632    
   1.84103203      0.366203994     -0.606999993       485.527161       1.64079356    
   2.54972792      0.507171988     -0.517000020       485.527161       1.64079356    
   2.59967995       0.00000000     -0.517000020       485.527161       1.64079356    
   1.87709999       0.00000000     -0.606999993       485.527161       1.64079356    
   1.87709999       0.00000000     -0.606999993       870.153198       1.59829330    
   1.36500001       0.00000000     -0.606999993       870.153198       1.59829330    
   1.33877206      0.266297996     -0.606999993       870.153198       1.59829330    
   1.84103203      0.366203994     -0.606999993       870.153198       1.59829330    
   1.87709999       0.00000000     -0.606999993       471.872528      -1.49891794    
   2.59967995       0.00000000     -0.517000020       471.872528      -1.49891794    
   2.54972792     -0.507171988     -0.517000020       471.872528      -1.49891794    
   1.84103203     -0.366203994     -0.606999993       471.872528      -1.49891794    
   1.84103203     -0.366203994     -0.606999993       848.077515      -1.54248905    
   1.33877206     -0.266297996     -0.606999993       848.077515      -1.54248905    
   1.36500001       0.00000000     -0.606999993       848.077515      -1.54248905    
   1.87709999       0.00000000     -0.606999993       848.077515      -1.54248905    
   1.84103203     -0.366203994     -0.606999993       1450.29138      -1.50071454    
   2.54972792     -0.507171988     -0.517000020       1450.29138      -1.50071454    
   2.40179110     -0.994853973     -0.517000020       1450.29138      -1.50071454    
   1.73421395     -0.718334973     -0.606999993       1450.29138      -1.50071454    
   1.73421395     -0.718334973     -0.606999993       2553.34009      -1.54278529    
   1.26109600     -0.522363007     -0.606999993       2553.34009      -1.54278529    
   1.33877206     -0.266297996     -0.606999993       2553.34009      -1.54278529    
   1.84103203     -0.366203994     -0.606999993       2553.34009      -1.54278529    
   1.73421395     -0.718334973     -0.606999993       2422.95557      -1.50195837    
   2.40179110     -0.994853973     -0.517000020       2422.95557      -1.50195837    
   2.16155505      -1.44430494     -0.517000020       2422.95557      -1.50195837    
   1.56075203      -1.04286098     -0.606999993       2422.95557      -1.50195837    
   1.56075203      -1.04286098     -0.606999993       4184.86328      -1.54286134    
   1.13495600     -0.758352995     -0.606999993       4184.86328      -1.54286134    
   1.26109600     -0.522363007     -0.606999993       4184.86328      -1.54286134    