 VARIABLES="X" "Y" "Z" "abs(p) (Pa)" "angle(p) (rad)"
ZONE N=   2709,E =    2358, F=FEPOINT, ET=QUADRILATERAL
   0.00000000      -5.48999977     -0.157000005       4128.81836      -1.50224495    
   0.00000000      -4.76741982     -0.246999994       4128.81836      -1.50224495    
  0.930077016      -4.67581606     -0.246999994       4128.81836      -1.50224495    
   1.07104599      -5.38451099     -0.157000005       4128.81836      -1.50224495    
  -1.07104599      -5.38451099     -0.157000005       4130.36328      -1.50213754    
 -0.930077016      -4.67581606     -0.246999994       4130.36328      -1.50213754    
   0.00000000      -4.76741982     -0.246999994       4130.36328      -1.50213754    
   0.00000000      -5.48999977     -0.157000005       4130.36328      -1.50213754    
  -2.10093188      -5.07209921     -0.157000005       4029.31934      -1.50351107    
  -1.82441294      -4.40452194     -0.246999994       4029.31934      -1.50351107    
 -0.930077016      -4.67581606     -0.246999994       4029.31934      -1.50351107    
  -1.07104599      -5.38451099     -0.157000005       4029.31934      -1.50351107    
  -3.05008101      -4.56476784     -0.157000005       3661.44629      -1.50033379    
  -2.64863706      -3.96396494     -0.246999994       3661.44629      -1.50033379    
  -1.82441294      -4.40452194     -0.246999994       3661.44629      -1.50033379    
  -2.10093188      -5.07209921     -0.157000005       3661.44629      -1.50033379    
  -3.88201594      -3.88201594     -0.157000005       3212.35718      -1.49898386    
  -3.37107491      -3.37107491     -0.246999994       3212.35718      -1.49898386    
  -2.64863706      -3.96396494     -0.246999994       3212.35718      -1.49898386    
  -3.05008101      -4.56476784     -0.157000005       3212.35718      -1.49898386    
  -4.56476784      -3.05008101     -0.157000005       2691.60278      -1.50060821    
  -3.96396494      -2.64863706     -0.246999994       2691.60278      -1.50060821    
  -3.37107491      -3.37107491     -0.246999994       2691.60278      -1.50060821    
  -3.88201594      -3.88201594     -0.157000005       2691.60278      -1.50060821    
  -5.07209921      -2.10093188     -0.157000005       1969.32898      -1.49723804    
  -4.40452194      -1.82441294     -0.246999994       1969.32898      -1.49723804    
  -3.96396494      -2.64863706     -0.246999994       1969.32898      -1.49723804    
  -4.56476784      -3.05008101     -0.157000005       1969.32898      -1.49723804    
  -5.38451099      -1.07104599     -0.157000005       1201.64941      -1.49562216    
  -4.67581606     -0.930077016     -0.246999994       1201.64941      -1.49562216    
  -4.40452194      -1.82441294     -0.246999994       1201.64941      -1.49562216    
  -5.07209921      -2.10093188     -0.157000005       1201.64941      -1.49562216    
  -5.48999977       0.00000000     -0.157000005       401.944580      -1.49634016    
  -4.76741982       0.00000000     -0.246999994       401.944580      -1.49634016    
  -4.67581606     -0.930077016     -0.246999994       401.944580      -1.49634016    
  -5.38451099      -1.07104599     -0.157000005       401.944580      -1.49634016    
  -5.38451099       1.07104599     -0.157000005       425.865387       1.64157522    
  -4.67581606      0.930077016     -0.246999994       425.865387       1.64157522    
  -4.76741982       0.00000000     -0.246999994       425.865387       1.64157522    
  -5.48999977       0.00000000     -0.157000005       425.865387       1.64157522    
  -5.07209921       2.10093188     -0.157000005       1237.45862       1.64143336    
  -4.40452194       1.82441294     -0.246999994       1237.45862       1.64143336    
  -4.67581606      0.930077016     -0.246999994       1237.45862       1.64143336    
  -5.38451099       1.07104599     -0.157000005       1237.45862       1.64143336    
  -4.56476784       3.05008101     -0.157000005       1998.76050       1.64055347    
  -3.96396494       2.64863706     -0.246999994       1998.76050       1.64055347    
  -4.40452194       1.82441294     -0.246999994       1998.76050       1.64055347    
  -5.07209921       2.10093188     -0.157000005       1998.76050       1.64055347    
  -3.88201594       3.88201594     -0.157000005       2646.17578       1.64143312    
  -3.37107491       3.37107491     -0.246999994       2646.17578       1.64143312    
  -3.96396494       2.64863706     -0.246999994       2646.17578       1.64143312    
  -4.56476784       3.05008101     -0.157000005       2646.17578       1.64143312    
  -3.05008101       4.56476784     -0.157000005       3267.70435       1.63810933    
  -2.64863706       3.96396494     -0.246999994       3267.70435       1.63810933    
  -3.37107491       3.37107491     -0.246999994       3267.70435       1.63810933    
  -3.88201594       3.88201594     -0.157000005       3267.70435       1.63810933    
  -2.10093188       5.07209921     -0.157000005       3675.61182       1.63893509    
  -1.82441294       4.40452194     -0.246999994       3675.61182       1.63893509    
  -2.64863706       3.96396494     -0.246999994       3675.61182       1.63893509    
  -3.05008101       4.56476784     -0.157000005       3675.61182       1.63893509    
  -1.07104599       5.38451099     -0.157000005       4040.16992       1.63632882    
 -0.930077016       4.67581606     -0.246999994       4040.16992       1.63632882    
  -1.82441294       4.40452194     -0.246999994       4040.16992       1.63632882    
  -2.10093188       5.07209921     -0.157000005       4040.16992       1.63632882    
   0.00000000       5.48999977     -0.157000005       4141.96729       1.63803852    
   0.00000000       4.76741982     -0.246999994       4141.96729       1.63803852    
 -0.930077016       4.67581606     -0.246999994       4141.96729       1.63803852    
  -1.07104599       5.38451099     -0.157000005       4141.96729       1.63803852    
   1.07104599       5.38451099     -0.157000005       4193.61426       1.63676071    
  0.930077016       4.67581606     -0.246999994       4193.61426       1.63676071    
   0.00000000       4.76741982     -0.246999994       4193.61426       1.63676071    
   0.00000000       5.48999977     -0.157000005       4193.61426       1.63676071    
   2.10093188       5.07209921     -0.157000005       3973.01733       1.64007735    
   1.82441294       4.40452194     -0.246999994       3973.01733       1.64007735    
  0.930077016       4.67581606     -0.246999994       3973.01733       1.64007735    
   1.07104599       5.38451099     -0.157000005       3973.01733       1.64007735    
   3.05008101       4.56476784     -0.157000005       3660.05103       1.64207017    
   2.64863706       3.96396494     -0.246999994       3660.05103       1.64207017    
   1.82441294       4.40452194     -0.246999994       3660.05103       1.64207017    
   2.10093188       5.07209921     -0.157000005       3660.05103       1.64207017    
   3.88201594       3.88201594     -0.157000005       3266.98218       1.64160287    
   3.37107491       3.37107491     -0.246999994       3266.98218       1.64160287    
   2.64863706       3.96396494     -0.246999994       3266.98218       1.64160287    
   3.05008101       4.56476784     -0.157000005       3266.98218       1.64160287    
   4.56476784       3.05008101     -0.157000005       2679.36279       1.64377713    
   3.96396494       2.64863706     -0.246999994       2679.36279       1.64377713    
   3.37107491       3.37107491     -0.246999994       2679.36279       1.64377713    
   3.88201594       3.88201594     -0.157000005       2679.36279       1.64377713    
   5.07209921       2.10093188     -0.157000005       2001.59363       1.64431310    
   4.40452194       1.82441294     -0.246999994       2001.59363       1.64431310    
   3.96396494       2.64863706     -0.246999994       2001.59363       1.64431310    
   4.56476784       3.05008101     -0.157000005       2001.59363       1.64431310    
   5.38451099       1.07104599     -0.157000005       1206.48828       1.64794695    
   4.67581606      0.930077016     -0.246999994       1206.48828       1.64794695    
   4.40452194       1.82441294     -0.246999994       1206.48828       1.64794695    
   5.07209921       2.10093188     -0.157000005       1206.48828       1.64794695    
   5.48999977       0.00000000     -0.157000005       398.203796       1.64885664    
   4.76741982       0.00000000     -0.246999994       398.203796       1.64885664    
   4.67581606      0.930077016     -0.246999994       398.203796       1.64885664    
   5.38451099       1.07104599     -0.157000005       398.203796       1.64885664    
   5.38451099      -1.07104599     -0.157000005       416.000366      -1.49397409    
   4.67581606     -0.930077016     -0.246999994       416.000366      -1.49397409    
   4.76741982       0.00000000     -0.246999994       416.000366      -1.49397409    
   5.48999977       0.00000000     -0.157000005       416.000366      -1.49397409    
   5.07209921      -2.10093188     -0.157000005       1211.53149      -1.49532306    
   4.40452194      -1.82441294     -0.246999994       1211.53149      -1.49532306    
   4.67581606     -0.930077016     -0.246999994       1211.53149      -1.49532306    
   5.38451099      -1.07104599     -0.157000005       1211.53149      -1.49532306    
   4.56476784      -3.05008101     -0.157000005       1960.22412      -1.49706745    
   3.96396494      -2.64863706     -0.246999994       1960.22412      -1.49706745    
   4.40452194      -1.82441294     -0.246999994       1960.22412      -1.49706745    
   5.07209921      -2.10093188     -0.157000005       1960.22412      -1.49706745    
   3.88201594      -3.88201594     -0.157000005       2638.22339      -1.49897349    
   3.37107491      -3.37107491     -0.246999994       2638.22339      -1.49897349    
   3.96396494      -2.64863706     -0.246999994       2638.22339      -1.49897349    
   4.56476784      -3.05008101     -0.157000005       2638.22339      -1.49897349    
   3.05008101      -4.56476784     -0.157000005       3262.21191      -1.50260019    
   2.64863706      -3.96396494     -0.246999994       3262.21191      -1.50260019    
   3.37107491      -3.37107491     -0.246999994       3262.21191      -1.50260019    
   3.88201594      -3.88201594     -0.157000005       3262.21191      -1.50260019    
   2.10093188      -5.07209921     -0.157000005       3665.94507      -1.50151825    
   1.82441294      -4.40452194     -0.246999994       3665.94507      -1.50151825    
   2.64863706      -3.96396494     -0.246999994       3665.94507      -1.50151825    
   3.05008101      -4.56476784     -0.157000005       3665.94507      -1.50151825    
   1.07104599      -5.38451099     -0.157000005       3971.45703      -1.50198281    
  0.930077016      -4.67581606     -0.246999994       3971.45703      -1.50198281    
   1.82441294      -4.40452194     -0.246999994       3971.45703      -1.50198281    
   2.10093188      -5.07209921     -0.157000005       3971.45703      -1.50198281    
   0.00000000      -1.87709999     -0.606999993       4002.06274      -1.55905318    
   0.00000000      -1.36500001     -0.606999993       4002.06274      -1.55905318    
  0.266297996      -1.33877206     -0.606999993       4002.06274      -1.55905318    
  0.366203994      -1.84103203     -0.606999993       4002.06274      -1.55905318    
   0.00000000      -1.87709999     -0.606999993       4073.83154      -1.55753183    
   0.00000000      -2.59967995     -0.517000020       4073.83154      -1.55753183    
 -0.507171988      -2.54972792     -0.517000020       4073.83154      -1.55753183    
 -0.366203994      -1.84103203     -0.606999993       4073.83154      -1.55753183    
 -0.366203994      -1.84103203     -0.606999993       4003.42456      -1.55906200    
 -0.266297996      -1.33877206     -0.606999993       4003.42456      -1.55906200    
   0.00000000      -1.36500001     -0.606999993       4003.42456      -1.55906200    
   0.00000000      -1.87709999     -0.606999993       4003.42456      -1.55906200    
 -0.366203994      -1.84103203     -0.606999993       3907.06274      -1.55744815    
 -0.507171988      -2.54972792     -0.517000020       3907.06274      -1.55744815    
 -0.994853973      -2.40179110     -0.517000020       3907.06274      -1.55744815    
 -0.718334973      -1.73421395     -0.606999993       3907.06274      -1.55744815    
 -0.718334973      -1.73421395     -0.606999993       3846.00586      -1.55902445    
 -0.522363007      -1.26109600     -0.606999993       3846.00586      -1.55902445    
 -0.266297996      -1.33877206     -0.606999993       3846.00586      -1.55902445    
 -0.366203994      -1.84103203     -0.606999993       3846.00586      -1.55902445    
 -0.718334973      -1.73421395     -0.606999993       3592.72607      -1.55733395    
 -0.994853973      -2.40179110     -0.517000020       3592.72607      -1.55733395    
  -1.44430494      -2.16155505     -0.517000020       3592.72607      -1.55733395    
  -1.04286098      -1.56075203     -0.606999993       3592.72607      -1.55733395    
  -1.04286098      -1.56075203     -0.606999993       3541.43359      -1.55895865    
 -0.758352995      -1.13495600     -0.606999993       3541.43359      -1.55895865    
 -0.522363007      -1.26109600     -0.606999993       3541.43359      -1.55895865    
 -0.718334973      -1.73421395     -0.606999993       3541.43359      -1.55895865    
  -1.04286098      -1.56075203     -0.606999993       3150.65991      -1.55721247    
  -1.44430494      -2.16155505     -0.517000020       3150.65991      -1.55721247    
  -1.83825099      -1.83825099     -0.517000020       3150.65991      -1.55721247    
  -1.32730997      -1.32730997     -0.606999993       3150.65991      -1.55721247    
  -1.32730997      -1.32730997     -0.606999993       3104.89795      -1.55889642    
 -0.965201020     -0.965201020     -0.606999993       3104.89795      -1.55889642    
 -0.758352995      -1.13495600     -0.606999993       3104.89795      -1.55889642    
  -1.04286098      -1.56075203     -0.606999993       3104.89795      -1.55889642    
  -1.32730997      -1.32730997     -0.606999993       2592.71680      -1.55713320    
  -1.83825099      -1.83825099     -0.517000020       2592.71680      -1.55713320    
  -2.16155505      -1.44430494     -0.517000020       2592.71680      -1.55713320    
  -1.56075203      -1.04286098     -0.606999993       2592.71680      -1.55713320    
  -1.56075203      -1.04286098     -0.606999993       2551.47925      -1.55884850    
  -1.13495600     -0.758352995     -0.606999993       2551.47925      -1.55884850    
 -0.965201020     -0.965201020     -0.606999993       2551.47925      -1.55884850    
  -1.32730997      -1.32730997     -0.606999993       2551.47925      -1.55884850    
  -1.56075203      -1.04286098     -0.606999993       1930.92529      -1.55712438    
  -2.16155505      -1.44430494     -0.517000020       1930.92529      -1.55712438    
  -2.40179110     -0.994853973     -0.517000020       1930.92529      -1.55712438    
  -1.73421395     -0.718334973     -0.606999993       1930.92529      -1.55712438    
  -1.73421395     -0.718334973     -0.606999993       1898.36194      -1.55882871    
  -1.26109600     -0.522363007     -0.606999993       1898.36194      -1.55882871    
  -1.13495600     -0.758352995     -0.606999993       1898.36194      -1.55882871    
  -1.56075203      -1.04286098     -0.606999993       1898.36194      -1.55882871    
  -1.73421395     -0.718334973     -0.606999993       1188.15137      -1.55709720    
  -2.40179110     -0.994853973     -0.517000020       1188.15137      -1.55709720    
  -2.54972792     -0.507171988     -0.517000020       1188.15137      -1.55709720    
  -1.84103203     -0.366203994     -0.606999993       1188.15137      -1.55709720    
  -1.84103203     -0.366203994     -0.606999993       1168.68884      -1.55873132    
  -1.33877206     -0.266297996     -0.606999993       1168.68884      -1.55873132    
  -1.26109600     -0.522363007     -0.606999993       1168.68884      -1.55873132    
  -1.73421395     -0.718334973     -0.606999993       1168.68884      -1.55873132    
  -1.84103203     -0.366203994     -0.606999993       398.406738      -1.55649734    
  -2.54972792     -0.507171988     -0.517000020       398.406738      -1.55649734    
  -2.59967995       0.00000000     -0.517000020       398.406738      -1.55649734    
  -1.87709999       0.00000000     -0.606999993       398.406738      -1.55649734    
  -1.87709999       0.00000000     -0.606999993       391.958954      -1.55790699    
  -1.36500001       0.00000000     -0.606999993       391.958954      -1.55790699    
  -1.33877206     -0.266297996     -0.606999993       391.958954      -1.55790699    
  -1.84103203     -0.366203994     -0.606999993       391.958954      -1.55790699    
  -1.87709999       0.00000000     -0.606999993       405.242950       1.58290684    
  -2.59967995       0.00000000     -0.517000020       405.242950       1.58290684    
  -2.54972792      0.507171988     -0.517000020       405.242950       1.58290684    
  -1.84103203      0.366203994     -0.606999993       405.242950       1.58290684    
  -1.84103203      0.366203994     -0.606999993       400.271271       1.58098543    
  -1.33877206      0.266297996     -0.606999993       400.271271       1.58098543    
  -1.36500001       0.00000000     -0.606999993       400.271271       1.58098543    
  -1.87709999       0.00000000     -0.606999993       400.271271       1.58098543    
  -1.84103203      0.366203994     -0.606999993       1194.88184       1.58363152    
  -2.54972792      0.507171988     -0.517000020       1194.88184       1.58363152    
  -2.40179110      0.994853973     -0.517000020       1194.88184       1.58363152    
  -1.73421395      0.718334973     -0.606999993       1194.88184       1.58363152    
  -1.73421395      0.718334973     -0.606999993       1177.10742       1.58186400    
  -1.26109600      0.522363007     -0.606999993       1177.10742       1.58186400    
  -1.33877206      0.266297996     -0.606999993       1177.10742       1.58186400    
  -1.84103203      0.366203994     -0.606999993       1177.10742       1.58186400    
  -1.73421395      0.718334973     -0.606999993       1939.08240       1.58383667    
  -2.40179110      0.994853973     -0.517000020       1939.08240       1.58383667    
  -2.16155505       1.44430494     -0.517000020       1939.08240       1.58383667    
  -1.56075203       1.04286098     -0.606999993       1939.08240       1.58383667    
  -1.56075203       1.04286098     -0.606999993       1907.57654       1.58207250    
  -1.13495600      0.758352995     -0.606999993       1907.57654       1.58207250    
  -1.26109600      0.522363007     -0.606999993       1907.57654       1.58207250    
  -1.73421395      0.718334973     -0.606999993       1907.57654       1.58207250    
  -1.56075203       1.04286098     -0.606999993       2603.10962       1.58393669    
  -2.16155505       1.44430494     -0.517000020       2603.10962       1.58393669    
  -1.83825099       1.83825099     -0.517000020       2603.10962       1.58393669    
  -1.32730997       1.32730997     -0.606999993       2603.10962       1.58393669    
  -1.32730997       1.32730997     -0.606999993       2561.99878       1.58216357    
 -0.965201020      0.965201020     -0.606999993       2561.99878       1.58216357    
  -1.13495600      0.758352995     -0.606999993       2561.99878       1.58216357    
  -1.56075203       1.04286098     -0.606999993       2561.99878       1.58216357    
  -1.32730997       1.32730997     -0.606999993       3162.17358       1.58394969    
  -1.83825099       1.83825099     -0.517000020       3162.17358       1.58394969    
  -1.44430494       2.16155505     -0.517000020       3162.17358       1.58394969    
  -1.04286098       1.56075203     -0.606999993       3162.17358       1.58394969    
  -1.04286098       1.56075203     -0.606999993       3116.44922       1.58220613    
 -0.758352995       1.13495600     -0.606999993       3116.44922       1.58220613    
 -0.965201020      0.965201020     -0.606999993       3116.44922       1.58220613    
  -1.32730997       1.32730997     -0.606999993       3116.44922       1.58220613    
  -1.04286098       1.56075203     -0.606999993       3604.04663       1.58389759    
  -1.44430494       2.16155505     -0.517000020       3604.04663       1.58389759    
 -0.994853973       2.40179110     -0.517000020       3604.04663       1.58389759    
 -0.718334973       1.73421395     -0.606999993       3604.04663       1.58389759    
 -0.718334973       1.73421395     -0.606999993       3553.71704       1.58221948    
 -0.522363007       1.26109600     -0.606999993       3553.71704       1.58221948    
 -0.758352995       1.13495600     -0.606999993       3553.71704       1.58221948    
  -1.04286098       1.56075203     -0.606999993       3553.71704       1.58221948    
 -0.718334973       1.73421395     -0.606999993       3917.83154       1.58385122    
 -0.994853973       2.40179110     -0.517000020       3917.83154       1.58385122    
 -0.507171988       2.54972792     -0.517000020       3917.83154       1.58385122    
 -0.366203994       1.84103203     -0.606999993       3917.83154       1.58385122    
 -0.366203994       1.84103203     -0.606999993       3858.99512       1.58221591    
 -0.266297996       1.33877206     -0.606999993       3858.99512       1.58221591    
 -0.522363007       1.26109600     -0.606999993       3858.99512       1.58221591    
 -0.718334973       1.73421395     -0.606999993       3858.99512       1.58221591    
 -0.366203994       1.84103203     -0.606999993       4084.53809       1.58384418    
 -0.507171988       2.54972792     -0.517000020       4084.53809       1.58384418    
   0.00000000       2.59967995     -0.517000020       4084.53809       1.58384418    
   0.00000000       1.87709999     -0.606999993       4084.53809       1.58384418    
   0.00000000       1.87709999     -0.606999993       4017.33960       1.58224845    
   0.00000000       1.36500001     -0.606999993       4017.33960       1.58224845    
 -0.266297996       1.33877206     -0.606999993       4017.33960       1.58224845    
 -0.366203994       1.84103203     -0.606999993       4017.33960       1.58224845    
   0.00000000       1.87709999     -0.606999993       4084.52563       1.58392537    
   0.00000000       2.59967995     -0.517000020       4084.52563       1.58392537    
  0.507171988       2.54972792     -0.517000020       4084.52563       1.58392537    
  0.366203994       1.84103203     -0.606999993       4084.52563       1.58392537    
  0.366203994       1.84103203     -0.606999993       4017.31128       1.58232188    
  0.266297996       1.33877206     -0.606999993       4017.31128       1.58232188    
   0.00000000       1.36500001     -0.606999993       4017.31128       1.58232188    
   0.00000000       1.87709999     -0.606999993       4017.31128       1.58232188    
  0.366203994       1.84103203     -0.606999993       3917.92456       1.58407664    
  0.507171988       2.54972792     -0.517000020       3917.92456       1.58407664    
  0.994853973       2.40179110     -0.517000020       3917.92456       1.58407664    
  0.718334973       1.73421395     -0.606999993       3917.92456       1.58407664    
  0.718334973       1.73421395     -0.606999993       3859.06812       1.58245945    
  0.522363007       1.26109600     -0.606999993       3859.06812       1.58245945    
  0.266297996       1.33877206     -0.606999993       3859.06812       1.58245945    
  0.366203994       1.84103203     -0.606999993       3859.06812       1.58245945    
  0.718334973       1.73421395     -0.606999993       3604.43066       1.58425605    
  0.994853973       2.40179110     -0.517000020       3604.43066       1.58425605    
   1.44430494       2.16155505     -0.517000020       3604.43066       1.58425605    
   1.04286098       1.56075203     -0.606999993       3604.43066       1.58425605    
   1.04286098       1.56075203     -0.606999993       3554.22974       1.58260810    
  0.758352995       1.13495600     -0.606999993       3554.22974       1.58260810    
  0.522363007       1.26109600     -0.606999993       3554.22974       1.58260810    
  0.718334973       1.73421395     -0.606999993       3554.22974       1.58260810    
   1.04286098       1.56075203     -0.606999993       3163.14795       1.58441937    
   1.44430494       2.16155505     -0.517000020       3163.14795       1.58441937    
   1.83825099       1.83825099     -0.517000020       3163.14795       1.58441937    
   1.32730997       1.32730997     -0.606999993       3163.14795       1.58441937    
   1.32730997       1.32730997     -0.606999993       3117.72119       1.58273351    
  0.965201020      0.965201020     -0.606999993       3117.72119       1.58273351    
  0.758352995       1.13495600     -0.606999993       3117.72119       1.58273351    
   1.04286098       1.56075203     -0.606999993       3117.72119       1.58273351    
   1.32730997       1.32730997     -0.606999993       2604.69507       1.58451080    
   1.83825099       1.83825099     -0.517000020       2604.69507       1.58451080    
   2.16155505       1.44430494     -0.517000020       2604.69507       1.58451080    
   1.56075203       1.04286098     -0.606999993       2604.69507       1.58451080    
   1.56075203       1.04286098     -0.606999993       2564.19263       1.58281481    
   1.13495600      0.758352995     -0.606999993       2564.19263       1.58281481    
  0.965201020      0.965201020     -0.606999993       2564.19263       1.58281481    
   1.32730997       1.32730997     -0.606999993       2564.19263       1.58281481    
   1.56075203       1.04286098     -0.606999993       1941.12292       1.58452845    
   2.16155505       1.44430494     -0.517000020       1941.12292       1.58452845    
   2.40179110      0.994853973     -0.517000020       1941.12292       1.58452845    
   1.73421395      0.718334973     -0.606999993       1941.12292       1.58452845    
   1.73421395      0.718334973     -0.606999993       1910.53857       1.58286464    
   1.26109600      0.522363007     -0.606999993       1910.53857       1.58286464    
   1.13495600      0.758352995     -0.606999993       1910.53857       1.58286464    
   1.56075203       1.04286098     -0.606999993       1910.53857       1.58286464    
   1.73421395      0.718334973     -0.606999993       1197.18152       1.58451974    
   2.40179110      0.994853973     -0.517000020       1197.18152       1.58451974    
   2.54972792      0.507171988     -0.517000020       1197.18152       1.58451974    
   1.84103203      0.366203994     -0.606999993       1197.18152       1.58451974    
   1.84103203      0.366203994     -0.606999993       1180.74487       1.58289325    
   1.33877206      0.266297996     -0.606999993       1180.74487       1.58289325    
   1.26109600      0.522363007     -0.606999993       1180.74487       1.58289325    
   1.73421395      0.718334973     -0.606999993       1180.74487       1.58289325    
   1.84103203      0.366203994     -0.606999993       407.889313       1.58472455    
   2.54972792      0.507171988     -0.517000020       407.889313       1.58472455    
   2.59967995       0.00000000     -0.517000020       407.889313       1.58472455    
   1.87709999       0.00000000     -0.606999993       407.889313       1.58472455    
   1.87709999       0.00000000     -0.606999993       404.786194       1.58306360    
   1.36500001       0.00000000     -0.606999993       404.786194       1.58306360    
   1.33877206      0.266297996     -0.606999993       404.786194       1.58306360    
   1.84103203      0.366203994     -0.606999993       404.786194       1.58306360    
   1.87709999       0.00000000     -0.606999993       395.264709      -1.55759048    
   2.59967995       0.00000000     -0.517000020       395.264709      -1.55759048    
   2.54972792     -0.507171988     -0.517000020       395.264709      -1.55759048    
   1.84103203     -0.366203994     -0.606999993       395.264709      -1.55759048    
   1.84103203     -0.366203994     -0.606999993       386.433319      -1.55901563    
   1.33877206     -0.266297996     -0.606999993       386.433319      -1.55901563    
   1.36500001       0.00000000     -0.606999993       386.433319      -1.55901563    
   1.87709999       0.00000000     -0.606999993       386.433319      -1.55901563    
   1.84103203     -0.366203994     -0.606999993       1184.39111      -1.55727792    
   2.54972792     -0.507171988     -0.517000020       1184.39111      -1.55727792    
   2.40179110     -0.994853973     -0.517000020       1184.39111      -1.55727792    
   1.73421395     -0.718334973     -0.606999993       1184.39111      -1.55727792    
   1.73421395     -0.718334973     -0.606999993       1162.21472      -1.55881011    
   1.26109600     -0.522363007     -0.606999993       1162.21472      -1.55881011    
   1.33877206     -0.266297996     -0.606999993       1162.21472      -1.55881011    
   1.84103203     -0.366203994     -0.606999993       1162.21472      -1.55881011    
   1.73421395     -0.718334973     -0.606999993       1926.64697      -1.55717289    
   2.40179110     -0.994853973     -0.517000020       1926.64697      -1.55717289    
   2.16155505      -1.44430494     -0.517000020       1926.64697      -1.55717289    
   1.56075203      -1.04286098     -0.606999993       1926.64697      -1.55717289    
   1.56075203      -1.04286098     -0.606999993       1891.19385      -1.55874288    
   1.13495600     -0.758352995     -0.606999993       1891.19385      -1.55874288    
   1.26109600     -0.522363007     -0.606999993       1891.19385      -1.55874288    