 VARIABLES="X" "Y" "Z" "abs(p) (Pa)" "angle(p) (rad)"
ZONE N=   2709,E =    2358, F=FEPOINT, ET=QUADRILATERAL
   0.00000000      -5.48999977     -0.157000005       3.09571934       1.50243890    
   0.00000000      -4.76741982     -0.246999994       3.09571934       1.50243890    
  0.930077016      -4.67581606     -0.246999994       3.09571934       1.50243890    
   1.07104599      -5.38451099     -0.157000005       3.09571934       1.50243890    
  -1.07104599      -5.38451099     -0.157000005       3.22719312       1.56503558    
 -0.930077016      -4.67581606     -0.246999994       3.22719312       1.56503558    
   0.00000000      -4.76741982     -0.246999994       3.22719312       1.56503558    
   0.00000000      -5.48999977     -0.157000005       3.22719312       1.56503558    
  -2.10093188      -5.07209921     -0.157000005       5.62886047       1.54675436    
  -1.82441294      -4.40452194     -0.246999994       5.62886047       1.54675436    
 -0.930077016      -4.67581606     -0.246999994       5.62886047       1.54675436    
  -1.07104599      -5.38451099     -0.157000005       5.62886047       1.54675436    
  -3.05008101      -4.56476784     -0.157000005       3.26566672       1.47617304    
  -2.64863706      -3.96396494     -0.246999994       3.26566672       1.47617304    
  -1.82441294      -4.40452194     -0.246999994       3.26566672       1.47617304    
  -2.10093188      -5.07209921     -0.157000005       3.26566672       1.47617304    
  -3.88201594      -3.88201594     -0.157000005       2.75146842       1.64005828    
  -3.37107491      -3.37107491     -0.246999994       2.75146842       1.64005828    
  -2.64863706      -3.96396494     -0.246999994       2.75146842       1.64005828    
  -3.05008101      -4.56476784     -0.157000005       2.75146842       1.64005828    
  -4.56476784      -3.05008101     -0.157000005      0.746715069      -1.66079342    
  -3.96396494      -2.64863706     -0.246999994      0.746715069      -1.66079342    
  -3.37107491      -3.37107491     -0.246999994      0.746715069      -1.66079342    
  -3.88201594      -3.88201594     -0.157000005      0.746715069      -1.66079342    
  -5.07209921      -2.10093188     -0.157000005       3.19253111       1.45060694    
  -4.40452194      -1.82441294     -0.246999994       3.19253111       1.45060694    
  -3.96396494      -2.64863706     -0.246999994       3.19253111       1.45060694    
  -4.56476784      -3.05008101     -0.157000005       3.19253111       1.45060694    
  -5.38451099      -1.07104599     -0.157000005       3.51572657       1.50263131    
  -4.67581606     -0.930077016     -0.246999994       3.51572657       1.50263131    
  -4.40452194      -1.82441294     -0.246999994       3.51572657       1.50263131    
  -5.07209921      -2.10093188     -0.157000005       3.51572657       1.50263131    
  -5.48999977       0.00000000     -0.157000005       5.76613235       1.56251919    
  -4.76741982       0.00000000     -0.246999994       5.76613235       1.56251919    
  -4.67581606     -0.930077016     -0.246999994       5.76613235       1.56251919    
  -5.38451099      -1.07104599     -0.157000005       5.76613235       1.56251919    
  -5.38451099       1.07104599     -0.157000005       5.94336128       1.53728497    
  -4.67581606      0.930077016     -0.246999994       5.94336128       1.53728497    
  -4.76741982       0.00000000     -0.246999994       5.94336128       1.53728497    
  -5.48999977       0.00000000     -0.157000005       5.94336128       1.53728497    
  -5.07209921       2.10093188     -0.157000005       6.09416294       1.53270936    
  -4.40452194       1.82441294     -0.246999994       6.09416294       1.53270936    
  -4.67581606      0.930077016     -0.246999994       6.09416294       1.53270936    
  -5.38451099       1.07104599     -0.157000005       6.09416294       1.53270936    
  -4.56476784       3.05008101     -0.157000005       5.92808342       1.55383265    
  -3.96396494       2.64863706     -0.246999994       5.92808342       1.55383265    
  -4.40452194       1.82441294     -0.246999994       5.92808342       1.55383265    
  -5.07209921       2.10093188     -0.157000005       5.92808342       1.55383265    
  -3.88201594       3.88201594     -0.157000005       3.55362487       1.50931740    
  -3.37107491       3.37107491     -0.246999994       3.55362487       1.50931740    
  -3.96396494       2.64863706     -0.246999994       3.55362487       1.50931740    
  -4.56476784       3.05008101     -0.157000005       3.55362487       1.50931740    
  -3.05008101       4.56476784     -0.157000005       5.68557835       1.53859913    
  -2.64863706       3.96396494     -0.246999994       5.68557835       1.53859913    
  -3.37107491       3.37107491     -0.246999994       5.68557835       1.53859913    
  -3.88201594       3.88201594     -0.157000005       5.68557835       1.53859913    
  -2.10093188       5.07209921     -0.157000005       3.54003167       1.54194069    
  -1.82441294       4.40452194     -0.246999994       3.54003167       1.54194069    
  -2.64863706       3.96396494     -0.246999994       3.54003167       1.54194069    
  -3.05008101       4.56476784     -0.157000005       3.54003167       1.54194069    
  -1.07104599       5.38451099     -0.157000005       5.63888550       1.54662657    
 -0.930077016       4.67581606     -0.246999994       5.63888550       1.54662657    
  -1.82441294       4.40452194     -0.246999994       5.63888550       1.54662657    
  -2.10093188       5.07209921     -0.157000005       5.63888550       1.54662657    
   0.00000000       5.48999977     -0.157000005       3.58597350       1.50493944    
   0.00000000       4.76741982     -0.246999994       3.58597350       1.50493944    
 -0.930077016       4.67581606     -0.246999994       3.58597350       1.50493944    
  -1.07104599       5.38451099     -0.157000005       3.58597350       1.50493944    
   1.07104599       5.38451099     -0.157000005       5.63123131       1.55020404    
  0.930077016       4.67581606     -0.246999994       5.63123131       1.55020404    
   0.00000000       4.76741982     -0.246999994       5.63123131       1.55020404    
   0.00000000       5.48999977     -0.157000005       5.63123131       1.55020404    
   2.10093188       5.07209921     -0.157000005       3.49062395       1.52171326    
   1.82441294       4.40452194     -0.246999994       3.49062395       1.52171326    
  0.930077016       4.67581606     -0.246999994       3.49062395       1.52171326    
   1.07104599       5.38451099     -0.157000005       3.49062395       1.52171326    
   3.05008101       4.56476784     -0.157000005       3.28155446       1.50357366    
   2.64863706       3.96396494     -0.246999994       3.28155446       1.50357366    
   1.82441294       4.40452194     -0.246999994       3.28155446       1.50357366    
   2.10093188       5.07209921     -0.157000005       3.28155446       1.50357366    
   3.88201594       3.88201594     -0.157000005       5.56060696       1.55722475    
   3.37107491       3.37107491     -0.246999994       5.56060696       1.55722475    
   2.64863706       3.96396494     -0.246999994       5.56060696       1.55722475    
   3.05008101       4.56476784     -0.157000005       5.56060696       1.55722475    
   4.56476784       3.05008101     -0.157000005       3.99566364       1.53255093    
   3.96396494       2.64863706     -0.246999994       3.99566364       1.53255093    
   3.37107491       3.37107491     -0.246999994       3.99566364       1.53255093    
   3.88201594       3.88201594     -0.157000005       3.99566364       1.53255093    
   5.07209921       2.10093188     -0.157000005       6.09137678       1.52416706    
   4.40452194       1.82441294     -0.246999994       6.09137678       1.52416706    
   3.96396494       2.64863706     -0.246999994       6.09137678       1.52416706    
   4.56476784       3.05008101     -0.157000005       6.09137678       1.52416706    
   5.38451099       1.07104599     -0.157000005       3.57191825       1.51354766    
   4.67581606      0.930077016     -0.246999994       3.57191825       1.51354766    
   4.40452194       1.82441294     -0.246999994       3.57191825       1.51354766    
   5.07209921       2.10093188     -0.157000005       3.57191825       1.51354766    
   5.48999977       0.00000000     -0.157000005       3.14882922       1.56983876    
   4.76741982       0.00000000     -0.246999994       3.14882922       1.56983876    
   4.67581606      0.930077016     -0.246999994       3.14882922       1.56983876    
   5.38451099       1.07104599     -0.157000005       3.14882922       1.56983876    
   5.38451099      -1.07104599     -0.157000005       3.12711525       1.50720525    
   4.67581606     -0.930077016     -0.246999994       3.12711525       1.50720525    
   4.76741982       0.00000000     -0.246999994       3.12711525       1.50720525    
   5.48999977       0.00000000     -0.157000005       3.12711525       1.50720525    
   5.07209921      -2.10093188     -0.157000005       3.17399240       1.51042938    
   4.40452194      -1.82441294     -0.246999994       3.17399240       1.51042938    
   4.67581606     -0.930077016     -0.246999994       3.17399240       1.51042938    
   5.38451099      -1.07104599     -0.157000005       3.17399240       1.51042938    
   4.56476784      -3.05008101     -0.157000005       3.12735510       1.56491029    
   3.96396494      -2.64863706     -0.246999994       3.12735510       1.56491029    
   4.40452194      -1.82441294     -0.246999994       3.12735510       1.56491029    
   5.07209921      -2.10093188     -0.157000005       3.12735510       1.56491029    
   3.88201594      -3.88201594     -0.157000005       3.27761722       1.51457882    
   3.37107491      -3.37107491     -0.246999994       3.27761722       1.51457882    
   3.96396494      -2.64863706     -0.246999994       3.27761722       1.51457882    
   4.56476784      -3.05008101     -0.157000005       3.27761722       1.51457882    
   3.05008101      -4.56476784     -0.157000005       5.59304571       1.53667712    
   2.64863706      -3.96396494     -0.246999994       5.59304571       1.53667712    
   3.37107491      -3.37107491     -0.246999994       5.59304571       1.53667712    
   3.88201594      -3.88201594     -0.157000005       5.59304571       1.53667712    
   2.10093188      -5.07209921     -0.157000005       3.40989375       1.55266809    
   1.82441294      -4.40452194     -0.246999994       3.40989375       1.55266809    
   2.64863706      -3.96396494     -0.246999994       3.40989375       1.55266809    
   3.05008101      -4.56476784     -0.157000005       3.40989375       1.55266809    
   1.07104599      -5.38451099     -0.157000005       3.21336818       1.52356219    
  0.930077016      -4.67581606     -0.246999994       3.21336818       1.52356219    
   1.82441294      -4.40452194     -0.246999994       3.21336818       1.52356219    
   2.10093188      -5.07209921     -0.157000005       3.21336818       1.52356219    
   0.00000000      -1.87709999     -0.606999993       2.99339986      -1.56599593    
   0.00000000      -1.36500001     -0.606999993       2.99339986      -1.56599593    
  0.266297996      -1.33877206     -0.606999993       2.99339986      -1.56599593    
  0.366203994      -1.84103203     -0.606999993       2.99339986      -1.56599593    
   0.00000000      -1.87709999     -0.606999993      0.316058367      -1.55622733    
   0.00000000      -2.59967995     -0.517000020      0.316058367      -1.55622733    
 -0.507171988      -2.54972792     -0.517000020      0.316058367      -1.55622733    
 -0.366203994      -1.84103203     -0.606999993      0.316058367      -1.55622733    
 -0.366203994      -1.84103203     -0.606999993       2.96625352      -1.56592357    
 -0.266297996      -1.33877206     -0.606999993       2.96625352      -1.56592357    
   0.00000000      -1.36500001     -0.606999993       2.96625352      -1.56592357    
   0.00000000      -1.87709999     -0.606999993       2.96625352      -1.56592357    
 -0.366203994      -1.84103203     -0.606999993      0.300847292      -1.55616808    
 -0.507171988      -2.54972792     -0.517000020      0.300847292      -1.55616808    
 -0.994853973      -2.40179110     -0.517000020      0.300847292      -1.55616808    
 -0.718334973      -1.73421395     -0.606999993      0.300847292      -1.55616808    
 -0.718334973      -1.73421395     -0.606999993       2.93310785      -1.56600273    
 -0.522363007      -1.26109600     -0.606999993       2.93310785      -1.56600273    
 -0.266297996      -1.33877206     -0.606999993       2.93310785      -1.56600273    
 -0.366203994      -1.84103203     -0.606999993       2.93310785      -1.56600273    
 -0.718334973      -1.73421395     -0.606999993      0.289959520      -1.55553448    
 -0.994853973      -2.40179110     -0.517000020      0.289959520      -1.55553448    
  -1.44430494      -2.16155505     -0.517000020      0.289959520      -1.55553448    
  -1.04286098      -1.56075203     -0.606999993      0.289959520      -1.55553448    
  -1.04286098      -1.56075203     -0.606999993       2.90815735      -1.56607509    
 -0.758352995      -1.13495600     -0.606999993       2.90815735      -1.56607509    
 -0.522363007      -1.26109600     -0.606999993       2.90815735      -1.56607509    
 -0.718334973      -1.73421395     -0.606999993       2.90815735      -1.56607509    
  -1.04286098      -1.56075203     -0.606999993      0.284129649      -1.55630398    
  -1.44430494      -2.16155505     -0.517000020      0.284129649      -1.55630398    
  -1.83825099      -1.83825099     -0.517000020      0.284129649      -1.55630398    
  -1.32730997      -1.32730997     -0.606999993      0.284129649      -1.55630398    
  -1.32730997      -1.32730997     -0.606999993       2.89538169      -1.56608438    
 -0.965201020     -0.965201020     -0.606999993       2.89538169      -1.56608438    
 -0.758352995      -1.13495600     -0.606999993       2.89538169      -1.56608438    
  -1.04286098      -1.56075203     -0.606999993       2.89538169      -1.56608438    
  -1.32730997      -1.32730997     -0.606999993      0.281460553      -1.55615616    
  -1.83825099      -1.83825099     -0.517000020      0.281460553      -1.55615616    
  -2.16155505      -1.44430494     -0.517000020      0.281460553      -1.55615616    
  -1.56075203      -1.04286098     -0.606999993      0.281460553      -1.55615616    
  -1.56075203      -1.04286098     -0.606999993       2.88919044      -1.56600881    
  -1.13495600     -0.758352995     -0.606999993       2.88919044      -1.56600881    
 -0.965201020     -0.965201020     -0.606999993       2.88919044      -1.56600881    
  -1.32730997      -1.32730997     -0.606999993       2.88919044      -1.56600881    
  -1.56075203      -1.04286098     -0.606999993      0.273944497      -1.55436873    
  -2.16155505      -1.44430494     -0.517000020      0.273944497      -1.55436873    
  -2.40179110     -0.994853973     -0.517000020      0.273944497      -1.55436873    
  -1.73421395     -0.718334973     -0.606999993      0.273944497      -1.55436873    
  -1.73421395     -0.718334973     -0.606999993       2.87017536      -1.56592798    
  -1.26109600     -0.522363007     -0.606999993       2.87017536      -1.56592798    
  -1.13495600     -0.758352995     -0.606999993       2.87017536      -1.56592798    
  -1.56075203      -1.04286098     -0.606999993       2.87017536      -1.56592798    
  -1.73421395     -0.718334973     -0.606999993      0.266500026      -1.55301654    
  -2.40179110     -0.994853973     -0.517000020      0.266500026      -1.55301654    
  -2.54972792     -0.507171988     -0.517000020      0.266500026      -1.55301654    
  -1.84103203     -0.366203994     -0.606999993      0.266500026      -1.55301654    
  -1.84103203     -0.366203994     -0.606999993       2.85789061      -1.56577849    
  -1.33877206     -0.266297996     -0.606999993       2.85789061      -1.56577849    
  -1.26109600     -0.522363007     -0.606999993       2.85789061      -1.56577849    
  -1.73421395     -0.718334973     -0.606999993       2.85789061      -1.56577849    
  -1.84103203     -0.366203994     -0.606999993      0.265705496      -1.55142021    
  -2.54972792     -0.507171988     -0.517000020      0.265705496      -1.55142021    
  -2.59967995       0.00000000     -0.517000020      0.265705496      -1.55142021    
  -1.87709999       0.00000000     -0.606999993      0.265705496      -1.55142021    
  -1.87709999       0.00000000     -0.606999993       2.86512375      -1.56556571    
  -1.36500001       0.00000000     -0.606999993       2.86512375      -1.56556571    
  -1.33877206     -0.266297996     -0.606999993       2.86512375      -1.56556571    
  -1.84103203     -0.366203994     -0.606999993       2.86512375      -1.56556571    
  -1.87709999       0.00000000     -0.606999993      0.275825769      -1.55099690    
  -2.59967995       0.00000000     -0.517000020      0.275825769      -1.55099690    
  -2.54972792      0.507171988     -0.517000020      0.275825769      -1.55099690    
  -1.84103203      0.366203994     -0.606999993      0.275825769      -1.55099690    
  -1.84103203      0.366203994     -0.606999993       2.89224315      -1.56552267    
  -1.33877206      0.266297996     -0.606999993       2.89224315      -1.56552267    
  -1.36500001       0.00000000     -0.606999993       2.89224315      -1.56552267    
  -1.87709999       0.00000000     -0.606999993       2.89224315      -1.56552267    
  -1.84103203      0.366203994     -0.606999993      0.294184268      -1.55361676    
  -2.54972792      0.507171988     -0.517000020      0.294184268      -1.55361676    
  -2.40179110      0.994853973     -0.517000020      0.294184268      -1.55361676    
  -1.73421395      0.718334973     -0.606999993      0.294184268      -1.55361676    
  -1.73421395      0.718334973     -0.606999993       2.93049598      -1.56567729    
  -1.26109600      0.522363007     -0.606999993       2.93049598      -1.56567729    
  -1.33877206      0.266297996     -0.606999993       2.93049598      -1.56567729    
  -1.84103203      0.366203994     -0.606999993       2.93049598      -1.56567729    
  -1.73421395      0.718334973     -0.606999993      0.313724816      -1.55590725    
  -2.40179110      0.994853973     -0.517000020      0.313724816      -1.55590725    
  -2.16155505       1.44430494     -0.517000020      0.313724816      -1.55590725    
  -1.56075203       1.04286098     -0.606999993      0.313724816      -1.55590725    
  -1.56075203       1.04286098     -0.606999993       2.96811032      -1.56579936    
  -1.13495600      0.758352995     -0.606999993       2.96811032      -1.56579936    
  -1.26109600      0.522363007     -0.606999993       2.96811032      -1.56579936    
  -1.73421395      0.718334973     -0.606999993       2.96811032      -1.56579936    
  -1.56075203       1.04286098     -0.606999993      0.325753242      -1.55603623    
  -2.16155505       1.44430494     -0.517000020      0.325753242      -1.55603623    
  -1.83825099       1.83825099     -0.517000020      0.325753242      -1.55603623    
  -1.32730997       1.32730997     -0.606999993      0.325753242      -1.55603623    
  -1.32730997       1.32730997     -0.606999993       2.99397397      -1.56586790    
 -0.965201020      0.965201020     -0.606999993       2.99397397      -1.56586790    
  -1.13495600      0.758352995     -0.606999993       2.99397397      -1.56586790    
  -1.56075203       1.04286098     -0.606999993       2.99397397      -1.56586790    
  -1.32730997       1.32730997     -0.606999993      0.329089373      -1.55642998    
  -1.83825099       1.83825099     -0.517000020      0.329089373      -1.55642998    
  -1.44430494       2.16155505     -0.517000020      0.329089373      -1.55642998    
  -1.04286098       1.56075203     -0.606999993      0.329089373      -1.55642998    
  -1.04286098       1.56075203     -0.606999993       3.00126123      -1.56592894    
 -0.758352995       1.13495600     -0.606999993       3.00126123      -1.56592894    
 -0.965201020      0.965201020     -0.606999993       3.00126123      -1.56592894    
  -1.32730997       1.32730997     -0.606999993       3.00126123      -1.56592894    
  -1.04286098       1.56075203     -0.606999993      0.323090106      -1.55662346    
  -1.44430494       2.16155505     -0.517000020      0.323090106      -1.55662346    
 -0.994853973       2.40179110     -0.517000020      0.323090106      -1.55662346    
 -0.718334973       1.73421395     -0.606999993      0.323090106      -1.55662346    
 -0.718334973       1.73421395     -0.606999993       2.99011445      -1.56591427    
 -0.522363007       1.26109600     -0.606999993       2.99011445      -1.56591427    
 -0.758352995       1.13495600     -0.606999993       2.99011445      -1.56591427    
  -1.04286098       1.56075203     -0.606999993       2.99011445      -1.56591427    
 -0.718334973       1.73421395     -0.606999993      0.312267959      -1.55504990    
 -0.994853973       2.40179110     -0.517000020      0.312267959      -1.55504990    
 -0.507171988       2.54972792     -0.517000020      0.312267959      -1.55504990    
 -0.366203994       1.84103203     -0.606999993      0.312267959      -1.55504990    
 -0.366203994       1.84103203     -0.606999993       2.96130419      -1.56575942    
 -0.266297996       1.33877206     -0.606999993       2.96130419      -1.56575942    
 -0.522363007       1.26109600     -0.606999993       2.96130419      -1.56575942    
 -0.718334973       1.73421395     -0.606999993       2.96130419      -1.56575942    
 -0.366203994       1.84103203     -0.606999993      0.298146337      -1.55356193    
 -0.507171988       2.54972792     -0.517000020      0.298146337      -1.55356193    
   0.00000000       2.59967995     -0.517000020      0.298146337      -1.55356193    
   0.00000000       1.87709999     -0.606999993      0.298146337      -1.55356193    
   0.00000000       1.87709999     -0.606999993       2.92453074      -1.56558788    
   0.00000000       1.36500001     -0.606999993       2.92453074      -1.56558788    
 -0.266297996       1.33877206     -0.606999993       2.92453074      -1.56558788    
 -0.366203994       1.84103203     -0.606999993       2.92453074      -1.56558788    
   0.00000000       1.87709999     -0.606999993      0.279746503      -1.55267680    
   0.00000000       2.59967995     -0.517000020      0.279746503      -1.55267680    
  0.507171988       2.54972792     -0.517000020      0.279746503      -1.55267680    
  0.366203994       1.84103203     -0.606999993      0.279746503      -1.55267680    
  0.366203994       1.84103203     -0.606999993       2.88265514      -1.56537414    
  0.266297996       1.33877206     -0.606999993       2.88265514      -1.56537414    
   0.00000000       1.36500001     -0.606999993       2.88265514      -1.56537414    
   0.00000000       1.87709999     -0.606999993       2.88265514      -1.56537414    
  0.366203994       1.84103203     -0.606999993      0.263989836      -1.55066216    
  0.507171988       2.54972792     -0.517000020      0.263989836      -1.55066216    
  0.994853973       2.40179110     -0.517000020      0.263989836      -1.55066216    
  0.718334973       1.73421395     -0.606999993      0.263989836      -1.55066216    
  0.718334973       1.73421395     -0.606999993       2.84945703      -1.56517339    
  0.522363007       1.26109600     -0.606999993       2.84945703      -1.56517339    
  0.266297996       1.33877206     -0.606999993       2.84945703      -1.56517339    
  0.366203994       1.84103203     -0.606999993       2.84945703      -1.56517339    
  0.718334973       1.73421395     -0.606999993      0.257977992      -1.54902303    
  0.994853973       2.40179110     -0.517000020      0.257977992      -1.54902303    
   1.44430494       2.16155505     -0.517000020      0.257977992      -1.54902303    
   1.04286098       1.56075203     -0.606999993      0.257977992      -1.54902303    
   1.04286098       1.56075203     -0.606999993       2.83969617      -1.56510186    
  0.758352995       1.13495600     -0.606999993       2.83969617      -1.56510186    
  0.522363007       1.26109600     -0.606999993       2.83969617      -1.56510186    
  0.718334973       1.73421395     -0.606999993       2.83969617      -1.56510186    
   1.04286098       1.56075203     -0.606999993      0.263584614      -1.55010569    
   1.44430494       2.16155505     -0.517000020      0.263584614      -1.55010569    
   1.83825099       1.83825099     -0.517000020      0.263584614      -1.55010569    
   1.32730997       1.32730997     -0.606999993      0.263584614      -1.55010569    
   1.32730997       1.32730997     -0.606999993       2.85512352      -1.56511295    
  0.965201020      0.965201020     -0.606999993       2.85512352      -1.56511295    
  0.758352995       1.13495600     -0.606999993       2.85512352      -1.56511295    
   1.04286098       1.56075203     -0.606999993       2.85512352      -1.56511295    
   1.32730997       1.32730997     -0.606999993      0.279014558      -1.55189538    
   1.83825099       1.83825099     -0.517000020      0.279014558      -1.55189538    
   2.16155505       1.44430494     -0.517000020      0.279014558      -1.55189538    
   1.56075203       1.04286098     -0.606999993      0.279014558      -1.55189538    
   1.56075203       1.04286098     -0.606999993       2.88891792      -1.56524360    
   1.13495600      0.758352995     -0.606999993       2.88891792      -1.56524360    
  0.965201020      0.965201020     -0.606999993       2.88891792      -1.56524360    
   1.32730997       1.32730997     -0.606999993       2.88891792      -1.56524360    
   1.56075203       1.04286098     -0.606999993      0.287660539      -1.55285728    
   2.16155505       1.44430494     -0.517000020      0.287660539      -1.55285728    
   2.40179110      0.994853973     -0.517000020      0.287660539      -1.55285728    
   1.73421395      0.718334973     -0.606999993      0.287660539      -1.55285728    
   1.73421395      0.718334973     -0.606999993       2.91285849      -1.56551397    
   1.26109600      0.522363007     -0.606999993       2.91285849      -1.56551397    
   1.13495600      0.758352995     -0.606999993       2.91285849      -1.56551397    
   1.56075203       1.04286098     -0.606999993       2.91285849      -1.56551397    
   1.73421395      0.718334973     -0.606999993      0.286142945      -1.55420947    
   2.40179110      0.994853973     -0.517000020      0.286142945      -1.55420947    
   2.54972792      0.507171988     -0.517000020      0.286142945      -1.55420947    
   1.84103203      0.366203994     -0.606999993      0.286142945      -1.55420947    
   1.84103203      0.366203994     -0.606999993       2.90107298      -1.56577468    
   1.33877206      0.266297996     -0.606999993       2.90107298      -1.56577468    
   1.26109600      0.522363007     -0.606999993       2.90107298      -1.56577468    
   1.73421395      0.718334973     -0.606999993       2.90107298      -1.56577468    
   1.84103203      0.366203994     -0.606999993      0.280597001      -1.55541754    
   2.54972792      0.507171988     -0.517000020      0.280597001      -1.55541754    
   2.59967995       0.00000000     -0.517000020      0.280597001      -1.55541754    
   1.87709999       0.00000000     -0.606999993      0.280597001      -1.55541754    
   1.87709999       0.00000000     -0.606999993       2.88758111      -1.56597292    
   1.36500001       0.00000000     -0.606999993       2.88758111      -1.56597292    
   1.33877206      0.266297996     -0.606999993       2.88758111      -1.56597292    
   1.84103203      0.366203994     -0.606999993       2.88758111      -1.56597292    
   1.87709999       0.00000000     -0.606999993      0.281997949      -1.55599856    
   2.59967995       0.00000000     -0.517000020      0.281997949      -1.55599856    
   2.54972792     -0.507171988     -0.517000020      0.281997949      -1.55599856    
   1.84103203     -0.366203994     -0.606999993      0.281997949      -1.55599856    
   1.84103203     -0.366203994     -0.606999993       2.89136410      -1.56623816    
   1.33877206     -0.266297996     -0.606999993       2.89136410      -1.56623816    
   1.36500001       0.00000000     -0.606999993       2.89136410      -1.56623816    
   1.87709999       0.00000000     -0.606999993       2.89136410      -1.56623816    
   1.84103203     -0.366203994     -0.606999993      0.291850418      -1.55764914    
   2.54972792     -0.507171988     -0.517000020      0.291850418      -1.55764914    
   2.40179110     -0.994853973     -0.517000020      0.291850418      -1.55764914    
   1.73421395     -0.718334973     -0.606999993      0.291850418      -1.55764914    
   1.73421395     -0.718334973     -0.606999993       2.91219616      -1.56647956    
   1.26109600     -0.522363007     -0.606999993       2.91219616      -1.56647956    
   1.33877206     -0.266297996     -0.606999993       2.91219616      -1.56647956    
   1.84103203     -0.366203994     -0.606999993       2.91219616      -1.56647956    
   1.73421395     -0.718334973     -0.606999993      0.305020034      -1.55849743    
   2.40179110     -0.994853973     -0.517000020      0.305020034      -1.55849743    
   2.16155505      -1.44430494     -0.517000020      0.305020034      -1.55849743    
   1.56075203      -1.04286098     -0.606999993      0.305020034      -1.55849743    
   1.56075203      -1.04286098     -0.606999993       2.94222498      -1.56648910    
   1.13495600     -0.758352995     -0.606999993       2.94222498      -1.56648910    
   1.26109600     -0.522363007     -0.606999993       2.94222498      -1.56648910    