 VARIABLES="X" "Y" "Z" "abs(p) (Pa)" "angle(p) (rad)"
ZONE N=   2709,E =    2358, F=FEPOINT, ET=QUADRILATERAL
   0.00000000      -5.48999977     -0.157000005       1407.35046     -0.488526225    
   0.00000000      -4.76741982     -0.246999994       1407.35046     -0.488526225    
  0.930077016      -4.67581606     -0.246999994       1407.35046     -0.488526225    
   1.07104599      -5.38451099     -0.157000005       1407.35046     -0.488526225    
  -1.07104599      -5.38451099     -0.157000005       1406.93518     -0.488945395    
 -0.930077016      -4.67581606     -0.246999994       1406.93518     -0.488945395    
   0.00000000      -4.76741982     -0.246999994       1406.93518     -0.488945395    
   0.00000000      -5.48999977     -0.157000005       1406.93518     -0.488945395    
  -2.10093188      -5.07209921     -0.157000005       1346.40649     -0.494061977    
  -1.82441294      -4.40452194     -0.246999994       1346.40649     -0.494061977    
 -0.930077016      -4.67581606     -0.246999994       1346.40649     -0.494061977    
  -1.07104599      -5.38451099     -0.157000005       1346.40649     -0.494061977    
  -3.05008101      -4.56476784     -0.157000005       1249.96509     -0.491345316    
  -2.64863706      -3.96396494     -0.246999994       1249.96509     -0.491345316    
  -1.82441294      -4.40452194     -0.246999994       1249.96509     -0.491345316    
  -2.10093188      -5.07209921     -0.157000005       1249.96509     -0.491345316    
  -3.88201594      -3.88201594     -0.157000005       1101.65503     -0.497838676    
  -3.37107491      -3.37107491     -0.246999994       1101.65503     -0.497838676    
  -2.64863706      -3.96396494     -0.246999994       1101.65503     -0.497838676    
  -3.05008101      -4.56476784     -0.157000005       1101.65503     -0.497838676    
  -4.56476784      -3.05008101     -0.157000005       902.916077     -0.510069132    
  -3.96396494      -2.64863706     -0.246999994       902.916077     -0.510069132    
  -3.37107491      -3.37107491     -0.246999994       902.916077     -0.510069132    
  -3.88201594      -3.88201594     -0.157000005       902.916077     -0.510069132    
  -5.07209921      -2.10093188     -0.157000005       678.070740     -0.505732715    
  -4.40452194      -1.82441294     -0.246999994       678.070740     -0.505732715    
  -3.96396494      -2.64863706     -0.246999994       678.070740     -0.505732715    
  -4.56476784      -3.05008101     -0.157000005       678.070740     -0.505732715    
  -5.38451099      -1.07104599     -0.157000005       421.566284     -0.500755131    
  -4.67581606     -0.930077016     -0.246999994       421.566284     -0.500755131    
  -4.40452194      -1.82441294     -0.246999994       421.566284     -0.500755131    
  -5.07209921      -2.10093188     -0.157000005       421.566284     -0.500755131    
  -5.48999977       0.00000000     -0.157000005       148.685577     -0.516014934    
  -4.76741982       0.00000000     -0.246999994       148.685577     -0.516014934    
  -4.67581606     -0.930077016     -0.246999994       148.685577     -0.516014934    
  -5.38451099      -1.07104599     -0.157000005       148.685577     -0.516014934    
  -5.38451099       1.07104599     -0.157000005       126.829002       2.69023776    
  -4.67581606      0.930077016     -0.246999994       126.829002       2.69023776    
  -4.76741982       0.00000000     -0.246999994       126.829002       2.69023776    
  -5.48999977       0.00000000     -0.157000005       126.829002       2.69023776    
  -5.07209921       2.10093188     -0.157000005       399.479553       2.65827012    
  -4.40452194       1.82441294     -0.246999994       399.479553       2.65827012    
  -4.67581606      0.930077016     -0.246999994       399.479553       2.65827012    
  -5.38451099       1.07104599     -0.157000005       399.479553       2.65827012    
  -4.56476784       3.05008101     -0.157000005       661.351257       2.64381838    
  -3.96396494       2.64863706     -0.246999994       661.351257       2.64381838    
  -4.40452194       1.82441294     -0.246999994       661.351257       2.64381838    
  -5.07209921       2.10093188     -0.157000005       661.351257       2.64381838    
  -3.88201594       3.88201594     -0.157000005       903.147461       2.64133573    
  -3.37107491       3.37107491     -0.246999994       903.147461       2.64133573    
  -3.96396494       2.64863706     -0.246999994       903.147461       2.64133573    
  -4.56476784       3.05008101     -0.157000005       903.147461       2.64133573    
  -3.05008101       4.56476784     -0.157000005       1097.02710       2.63884997    
  -2.64863706       3.96396494     -0.246999994       1097.02710       2.63884997    
  -3.37107491       3.37107491     -0.246999994       1097.02710       2.63884997    
  -3.88201594       3.88201594     -0.157000005       1097.02710       2.63884997    
  -2.10093188       5.07209921     -0.157000005       1256.34009       2.64846706    
  -1.82441294       4.40452194     -0.246999994       1256.34009       2.64846706    
  -2.64863706       3.96396494     -0.246999994       1256.34009       2.64846706    
  -3.05008101       4.56476784     -0.157000005       1256.34009       2.64846706    
  -1.07104599       5.38451099     -0.157000005       1356.83240       2.64618611    
 -0.930077016       4.67581606     -0.246999994       1356.83240       2.64618611    
  -1.82441294       4.40452194     -0.246999994       1356.83240       2.64618611    
  -2.10093188       5.07209921     -0.157000005       1356.83240       2.64618611    
   0.00000000       5.48999977     -0.157000005       1419.40247       2.65016913    
   0.00000000       4.76741982     -0.246999994       1419.40247       2.65016913    
 -0.930077016       4.67581606     -0.246999994       1419.40247       2.65016913    
  -1.07104599       5.38451099     -0.157000005       1419.40247       2.65016913    
   1.07104599       5.38451099     -0.157000005       1412.79480       2.64641643    
  0.930077016       4.67581606     -0.246999994       1412.79480       2.64641643    
   0.00000000       4.76741982     -0.246999994       1412.79480       2.64641643    
   0.00000000       5.48999977     -0.157000005       1412.79480       2.64641643    
   2.10093188       5.07209921     -0.157000005       1366.24365       2.65007067    
   1.82441294       4.40452194     -0.246999994       1366.24365       2.65007067    
  0.930077016       4.67581606     -0.246999994       1366.24365       2.65007067    
   1.07104599       5.38451099     -0.157000005       1366.24365       2.65007067    
   3.05008101       4.56476784     -0.157000005       1259.82263       2.64851904    
   2.64863706       3.96396494     -0.246999994       1259.82263       2.64851904    
   1.82441294       4.40452194     -0.246999994       1259.82263       2.64851904    
   2.10093188       5.07209921     -0.157000005       1259.82263       2.64851904    
   3.88201594       3.88201594     -0.157000005       1099.26038       2.63764644    
   3.37107491       3.37107491     -0.246999994       1099.26038       2.63764644    
   2.64863706       3.96396494     -0.246999994       1099.26038       2.63764644    
   3.05008101       4.56476784     -0.157000005       1099.26038       2.63764644    
   4.56476784       3.05008101     -0.157000005       901.705750       2.63651013    
   3.96396494       2.64863706     -0.246999994       901.705750       2.63651013    
   3.37107491       3.37107491     -0.246999994       901.705750       2.63651013    
   3.88201594       3.88201594     -0.157000005       901.705750       2.63651013    
   5.07209921       2.10093188     -0.157000005       664.374878       2.64191413    
   4.40452194       1.82441294     -0.246999994       664.374878       2.64191413    
   3.96396494       2.64863706     -0.246999994       664.374878       2.64191413    
   4.56476784       3.05008101     -0.157000005       664.374878       2.64191413    
   5.38451099       1.07104599     -0.157000005       407.334259       2.66176319    
   4.67581606      0.930077016     -0.246999994       407.334259       2.66176319    
   4.40452194       1.82441294     -0.246999994       407.334259       2.66176319    
   5.07209921       2.10093188     -0.157000005       407.334259       2.66176319    
   5.48999977       0.00000000     -0.157000005       133.967163       2.69514585    
   4.76741982       0.00000000     -0.246999994       133.967163       2.69514585    
   4.67581606      0.930077016     -0.246999994       133.967163       2.69514585    
   5.38451099       1.07104599     -0.157000005       133.967163       2.69514585    
   5.38451099      -1.07104599     -0.157000005       143.565002     -0.515421987    
   4.67581606     -0.930077016     -0.246999994       143.565002     -0.515421987    
   4.76741982       0.00000000     -0.246999994       143.565002     -0.515421987    
   5.48999977       0.00000000     -0.157000005       143.565002     -0.515421987    
   5.07209921      -2.10093188     -0.157000005       416.788391     -0.500649631    
   4.40452194      -1.82441294     -0.246999994       416.788391     -0.500649631    
   4.67581606     -0.930077016     -0.246999994       416.788391     -0.500649631    
   5.38451099      -1.07104599     -0.157000005       416.788391     -0.500649631    
   4.56476784      -3.05008101     -0.157000005       675.956421     -0.503959239    
   3.96396494      -2.64863706     -0.246999994       675.956421     -0.503959239    
   4.40452194      -1.82441294     -0.246999994       675.956421     -0.503959239    
   5.07209921      -2.10093188     -0.157000005       675.956421     -0.503959239    
   3.88201594      -3.88201594     -0.157000005       907.078430     -0.504146338    
   3.37107491      -3.37107491     -0.246999994       907.078430     -0.504146338    
   3.96396494      -2.64863706     -0.246999994       907.078430     -0.504146338    
   4.56476784      -3.05008101     -0.157000005       907.078430     -0.504146338    
   3.05008101      -4.56476784     -0.157000005       1093.14685     -0.501974761    
   2.64863706      -3.96396494     -0.246999994       1093.14685     -0.501974761    
   3.37107491      -3.37107491     -0.246999994       1093.14685     -0.501974761    
   3.88201594      -3.88201594     -0.157000005       1093.14685     -0.501974761    
   2.10093188      -5.07209921     -0.157000005       1248.47205     -0.491046011    
   1.82441294      -4.40452194     -0.246999994       1248.47205     -0.491046011    
   2.64863706      -3.96396494     -0.246999994       1248.47205     -0.491046011    
   3.05008101      -4.56476784     -0.157000005       1248.47205     -0.491046011    
   1.07104599      -5.38451099     -0.157000005       1354.08911     -0.489279240    
  0.930077016      -4.67581606     -0.246999994       1354.08911     -0.489279240    
   1.82441294      -4.40452194     -0.246999994       1354.08911     -0.489279240    
   2.10093188      -5.07209921     -0.157000005       1354.08911     -0.489279240    
   0.00000000      -1.87709999     -0.606999993       9775.02539      -1.54355335    
   0.00000000      -1.36500001     -0.606999993       9775.02539      -1.54355335    
  0.266297996      -1.33877206     -0.606999993       9775.02539      -1.54355335    
  0.366203994      -1.84103203     -0.606999993       9775.02539      -1.54355335    
   0.00000000      -1.87709999     -0.606999993       5285.78662      -1.50467801    
   0.00000000      -2.59967995     -0.517000020       5285.78662      -1.50467801    
 -0.507171988      -2.54972792     -0.517000020       5285.78662      -1.50467801    
 -0.366203994      -1.84103203     -0.606999993       5285.78662      -1.50467801    
 -0.366203994      -1.84103203     -0.606999993       9782.65332      -1.54354787    
 -0.266297996      -1.33877206     -0.606999993       9782.65332      -1.54354787    
   0.00000000      -1.36500001     -0.606999993       9782.65332      -1.54354787    
   0.00000000      -1.87709999     -0.606999993       9782.65332      -1.54354787    
 -0.366203994      -1.84103203     -0.606999993       5134.83398      -1.50522292    
 -0.507171988      -2.54972792     -0.517000020       5134.83398      -1.50522292    
 -0.994853973      -2.40179110     -0.517000020       5134.83398      -1.50522292    
 -0.718334973      -1.73421395     -0.606999993       5134.83398      -1.50522292    
 -0.718334973      -1.73421395     -0.606999993       9450.96387      -1.54357171    
 -0.522363007      -1.26109600     -0.606999993       9450.96387      -1.54357171    
 -0.266297996      -1.33877206     -0.606999993       9450.96387      -1.54357171    
 -0.366203994      -1.84103203     -0.606999993       9450.96387      -1.54357171    
 -0.718334973      -1.73421395     -0.606999993       4809.04590      -1.50598013    
 -0.994853973      -2.40179110     -0.517000020       4809.04590      -1.50598013    
  -1.44430494      -2.16155505     -0.517000020       4809.04590      -1.50598013    
  -1.04286098      -1.56075203     -0.606999993       4809.04590      -1.50598013    
  -1.04286098      -1.56075203     -0.606999993       8770.50879      -1.54359293    
 -0.758352995      -1.13495600     -0.606999993       8770.50879      -1.54359293    
 -0.522363007      -1.26109600     -0.606999993       8770.50879      -1.54359293    
 -0.718334973      -1.73421395     -0.606999993       8770.50879      -1.54359293    
  -1.04286098      -1.56075203     -0.606999993       4278.86670      -1.50654173    
  -1.44430494      -2.16155505     -0.517000020       4278.86670      -1.50654173    
  -1.83825099      -1.83825099     -0.517000020       4278.86670      -1.50654173    
  -1.32730997      -1.32730997     -0.606999993       4278.86670      -1.50654173    
  -1.32730997      -1.32730997     -0.606999993       7735.60742      -1.54356873    
 -0.965201020     -0.965201020     -0.606999993       7735.60742      -1.54356873    
 -0.758352995      -1.13495600     -0.606999993       7735.60742      -1.54356873    
  -1.04286098      -1.56075203     -0.606999993       7735.60742      -1.54356873    
  -1.32730997      -1.32730997     -0.606999993       3529.34082      -1.50654745    
  -1.83825099      -1.83825099     -0.517000020       3529.34082      -1.50654745    
  -2.16155505      -1.44430494     -0.517000020       3529.34082      -1.50654745    
  -1.56075203      -1.04286098     -0.606999993       3529.34082      -1.50654745    
  -1.56075203      -1.04286098     -0.606999993       6368.74561      -1.54348278    
  -1.13495600     -0.758352995     -0.606999993       6368.74561      -1.54348278    
 -0.965201020     -0.965201020     -0.606999993       6368.74561      -1.54348278    
  -1.32730997      -1.32730997     -0.606999993       6368.74561      -1.54348278    
  -1.56075203      -1.04286098     -0.606999993       2594.40454      -1.50581157    
  -2.16155505      -1.44430494     -0.517000020       2594.40454      -1.50581157    
  -2.40179110     -0.994853973     -0.517000020       2594.40454      -1.50581157    
  -1.73421395     -0.718334973     -0.606999993       2594.40454      -1.50581157    
  -1.73421395     -0.718334973     -0.606999993       4733.34326      -1.54334676    
  -1.26109600     -0.522363007     -0.606999993       4733.34326      -1.54334676    
  -1.13495600     -0.758352995     -0.606999993       4733.34326      -1.54334676    
  -1.56075203      -1.04286098     -0.606999993       4733.34326      -1.54334676    
  -1.73421395     -0.718334973     -0.606999993       1570.78101      -1.50471032    
  -2.40179110     -0.994853973     -0.517000020       1570.78101      -1.50471032    
  -2.54972792     -0.507171988     -0.517000020       1570.78101      -1.50471032    
  -1.84103203     -0.366203994     -0.606999993       1570.78101      -1.50471032    
  -1.84103203     -0.366203994     -0.606999993       2923.34448      -1.54314554    
  -1.33877206     -0.266297996     -0.606999993       2923.34448      -1.54314554    
  -1.26109600     -0.522363007     -0.606999993       2923.34448      -1.54314554    
  -1.73421395     -0.718334973     -0.606999993       2923.34448      -1.54314554    
  -1.84103203     -0.366203994     -0.606999993       547.458374      -1.50469434    
  -2.54972792     -0.507171988     -0.517000020       547.458374      -1.50469434    
  -2.59967995       0.00000000     -0.517000020       547.458374      -1.50469434    
  -1.87709999       0.00000000     -0.606999993       547.458374      -1.50469434    
  -1.87709999       0.00000000     -0.606999993       1030.87756      -1.54252839    
  -1.36500001       0.00000000     -0.606999993       1030.87756      -1.54252839    
  -1.33877206     -0.266297996     -0.606999993       1030.87756      -1.54252839    
  -1.84103203     -0.366203994     -0.606999993       1030.87756      -1.54252839    
  -1.87709999       0.00000000     -0.606999993       449.539551       1.64170170    
  -2.59967995       0.00000000     -0.517000020       449.539551       1.64170170    
  -2.54972792      0.507171988     -0.517000020       449.539551       1.64170170    
  -1.84103203      0.366203994     -0.606999993       449.539551       1.64170170    
  -1.84103203      0.366203994     -0.606999993       877.341370       1.59734607    
  -1.33877206      0.266297996     -0.606999993       877.341370       1.59734607    
  -1.36500001       0.00000000     -0.606999993       877.341370       1.59734607    
  -1.87709999       0.00000000     -0.606999993       877.341370       1.59734607    
  -1.84103203      0.366203994     -0.606999993       1451.29956       1.63930058    
  -2.54972792      0.507171988     -0.517000020       1451.29956       1.63930058    
  -2.40179110      0.994853973     -0.517000020       1451.29956       1.63930058    
  -1.73421395      0.718334973     -0.606999993       1451.29956       1.63930058    
  -1.73421395      0.718334973     -0.606999993       2758.99707       1.59802425    
  -1.26109600      0.522363007     -0.606999993       2758.99707       1.59802425    
  -1.33877206      0.266297996     -0.606999993       2758.99707       1.59802425    
  -1.84103203      0.366203994     -0.606999993       2758.99707       1.59802425    
  -1.73421395      0.718334973     -0.606999993       2457.15771       1.63778377    
  -2.40179110      0.994853973     -0.517000020       2457.15771       1.63778377    
  -2.16155505       1.44430494     -0.517000020       2457.15771       1.63778377    
  -1.56075203       1.04286098     -0.606999993       2457.15771       1.63778377    
  -1.56075203       1.04286098     -0.606999993       4560.16797       1.59814131    
  -1.13495600      0.758352995     -0.606999993       4560.16797       1.59814131    
  -1.26109600      0.522363007     -0.606999993       4560.16797       1.59814131    
  -1.73421395      0.718334973     -0.606999993       4560.16797       1.59814131    
  -1.56075203       1.04286098     -0.606999993       3398.89404       1.63666189    
  -2.16155505       1.44430494     -0.517000020       3398.89404       1.63666189    
  -1.83825099       1.83825099     -0.517000020       3398.89404       1.63666189    
  -1.32730997       1.32730997     -0.606999993       3398.89404       1.63666189    
  -1.32730997       1.32730997     -0.606999993       6200.21484       1.59816992    
 -0.965201020      0.965201020     -0.606999993       6200.21484       1.59816992    
  -1.13495600      0.758352995     -0.606999993       6200.21484       1.59816992    
  -1.56075203       1.04286098     -0.606999993       6200.21484       1.59816992    
  -1.32730997       1.32730997     -0.606999993       4175.93652       1.63629723    
  -1.83825099       1.83825099     -0.517000020       4175.93652       1.63629723    
  -1.44430494       2.16155505     -0.517000020       4175.93652       1.63629723    
  -1.04286098       1.56075203     -0.606999993       4175.93652       1.63629723    
  -1.04286098       1.56075203     -0.606999993       7585.27393       1.59819078    
 -0.758352995       1.13495600     -0.606999993       7585.27393       1.59819078    
 -0.965201020      0.965201020     -0.606999993       7585.27393       1.59819078    
  -1.32730997       1.32730997     -0.606999993       7585.27393       1.59819078    
  -1.04286098       1.56075203     -0.606999993       4736.46094       1.63659251    
  -1.44430494       2.16155505     -0.517000020       4736.46094       1.63659251    
 -0.994853973       2.40179110     -0.517000020       4736.46094       1.63659251    
 -0.718334973       1.73421395     -0.606999993       4736.46094       1.63659251    
 -0.718334973       1.73421395     -0.606999993       8647.09570       1.59823167    
 -0.522363007       1.26109600     -0.606999993       8647.09570       1.59823167    
 -0.758352995       1.13495600     -0.606999993       8647.09570       1.59823167    
  -1.04286098       1.56075203     -0.606999993       8647.09570       1.59823167    
 -0.718334973       1.73421395     -0.606999993       5085.53906       1.63718891    
 -0.994853973       2.40179110     -0.517000020       5085.53906       1.63718891    
 -0.507171988       2.54972792     -0.517000020       5085.53906       1.63718891    
 -0.366203994       1.84103203     -0.606999993       5085.53906       1.63718891    
 -0.366203994       1.84103203     -0.606999993       9355.40332       1.59828782    
 -0.266297996       1.33877206     -0.606999993       9355.40332       1.59828782    
 -0.522363007       1.26109600     -0.606999993       9355.40332       1.59828782    
 -0.718334973       1.73421395     -0.606999993       9355.40332       1.59828782    
 -0.366203994       1.84103203     -0.606999993       5252.46191       1.63762581    
 -0.507171988       2.54972792     -0.517000020       5252.46191       1.63762581    
   0.00000000       2.59967995     -0.517000020       5252.46191       1.63762581    
   0.00000000       1.87709999     -0.606999993       5252.46191       1.63762581    
   0.00000000       1.87709999     -0.606999993       9710.64551       1.59832561    
   0.00000000       1.36500001     -0.606999993       9710.64551       1.59832561    
 -0.266297996       1.33877206     -0.606999993       9710.64551       1.59832561    
 -0.366203994       1.84103203     -0.606999993       9710.64551       1.59832561    
   0.00000000       1.87709999     -0.606999993       5258.04980       1.63757384    
   0.00000000       2.59967995     -0.517000020       5258.04980       1.63757384    
  0.507171988       2.54972792     -0.517000020       5258.04980       1.63757384    
  0.366203994       1.84103203     -0.606999993       5258.04980       1.63757384    
  0.366203994       1.84103203     -0.606999993       9719.76758       1.59831262    
  0.266297996       1.33877206     -0.606999993       9719.76758       1.59831262    
   0.00000000       1.36500001     -0.606999993       9719.76758       1.59831262    
   0.00000000       1.87709999     -0.606999993       9719.76758       1.59831262    
  0.366203994       1.84103203     -0.606999993       5102.12451       1.63702857    
  0.507171988       2.54972792     -0.517000020       5102.12451       1.63702857    
  0.994853973       2.40179110     -0.517000020       5102.12451       1.63702857    
  0.718334973       1.73421395     -0.606999993       5102.12451       1.63702857    
  0.718334973       1.73421395     -0.606999993       9382.33887       1.59824824    
  0.522363007       1.26109600     -0.606999993       9382.33887       1.59824824    
  0.266297996       1.33877206     -0.606999993       9382.33887       1.59824824    
  0.366203994       1.84103203     -0.606999993       9382.33887       1.59824824    
  0.718334973       1.73421395     -0.606999993       4763.65186       1.63631141    
  0.994853973       2.40179110     -0.517000020       4763.65186       1.63631141    
   1.44430494       2.16155505     -0.517000020       4763.65186       1.63631141    
   1.04286098       1.56075203     -0.606999993       4763.65186       1.63631141    
   1.04286098       1.56075203     -0.606999993       8690.57422       1.59816110    
  0.758352995       1.13495600     -0.606999993       8690.57422       1.59816110    
  0.522363007       1.26109600     -0.606999993       8690.57422       1.59816110    
  0.718334973       1.73421395     -0.606999993       8690.57422       1.59816110    
   1.04286098       1.56075203     -0.606999993       4212.88818       1.63586724    
   1.44430494       2.16155505     -0.517000020       4212.88818       1.63586724    
   1.83825099       1.83825099     -0.517000020       4212.88818       1.63586724    
   1.32730997       1.32730997     -0.606999993       4212.88818       1.63586724    
   1.32730997       1.32730997     -0.606999993       7643.57715       1.59809065    
  0.965201020      0.965201020     -0.606999993       7643.57715       1.59809065    
  0.758352995       1.13495600     -0.606999993       7643.57715       1.59809065    
   1.04286098       1.56075203     -0.606999993       7643.57715       1.59809065    
   1.32730997       1.32730997     -0.606999993       3443.83252       1.63603044    
   1.83825099       1.83825099     -0.517000020       3443.83252       1.63603044    
   2.16155505       1.44430494     -0.517000020       3443.83252       1.63603044    
   1.56075203       1.04286098     -0.606999993       3443.83252       1.63603044    
   1.56075203       1.04286098     -0.606999993       6270.16357       1.59803951    
   1.13495600      0.758352995     -0.606999993       6270.16357       1.59803951    
  0.965201020      0.965201020     -0.606999993       6270.16357       1.59803951    
   1.32730997       1.32730997     -0.606999993       6270.16357       1.59803951    
   1.56075203       1.04286098     -0.606999993       2507.24121       1.63683534    
   2.16155505       1.44430494     -0.517000020       2507.24121       1.63683534    
   2.40179110      0.994853973     -0.517000020       2507.24121       1.63683534    
   1.73421395      0.718334973     -0.606999993       2507.24121       1.63683534    
   1.73421395      0.718334973     -0.606999993       4636.60791       1.59798408    
   1.26109600      0.522363007     -0.606999993       4636.60791       1.59798408    
   1.13495600      0.758352995     -0.606999993       4636.60791       1.59798408    
   1.56075203       1.04286098     -0.606999993       4636.60791       1.59798408    
   1.73421395      0.718334973     -0.606999993       1503.74438       1.63767469    
   2.40179110      0.994853973     -0.517000020       1503.74438       1.63767469    
   2.54972792      0.507171988     -0.517000020       1503.74438       1.63767469    
   1.84103203      0.366203994     -0.606999993       1503.74438       1.63767469    
   1.84103203      0.366203994     -0.606999993       2838.26074       1.59782600    
   1.33877206      0.266297996     -0.606999993       2838.26074       1.59782600    
   1.26109600      0.522363007     -0.606999993       2838.26074       1.59782600    
   1.73421395      0.718334973     -0.606999993       2838.26074       1.59782600    
   1.84103203      0.366203994     -0.606999993       502.278442       1.63676989    
   2.54972792      0.507171988     -0.517000020       502.278442       1.63676989    
   2.59967995       0.00000000     -0.517000020       502.278442       1.63676989    
   1.87709999       0.00000000     -0.606999993       502.278442       1.63676989    
   1.87709999       0.00000000     -0.606999993       956.910034       1.59699786    
   1.36500001       0.00000000     -0.606999993       956.910034       1.59699786    
   1.33877206      0.266297996     -0.606999993       956.910034       1.59699786    
   1.84103203      0.366203994     -0.606999993       956.910034       1.59699786    
   1.87709999       0.00000000     -0.606999993       496.034912      -1.50047863    
   2.59967995       0.00000000     -0.517000020       496.034912      -1.50047863    
   2.54972792     -0.507171988     -0.517000020       496.034912      -1.50047863    
   1.84103203     -0.366203994     -0.606999993       496.034912      -1.50047863    
   1.84103203     -0.366203994     -0.606999993       953.936646      -1.54224396    
   1.33877206     -0.266297996     -0.606999993       953.936646      -1.54224396    
   1.36500001       0.00000000     -0.606999993       953.936646      -1.54224396    
   1.87709999       0.00000000     -0.606999993       953.936646      -1.54224396    
   1.84103203     -0.366203994     -0.606999993       1522.12805      -1.50343597    
   2.54972792     -0.507171988     -0.517000020       1522.12805      -1.50343597    
   2.40179110     -0.994853973     -0.517000020       1522.12805      -1.50343597    
   1.73421395     -0.718334973     -0.606999993       1522.12805      -1.50343597    
   1.73421395     -0.718334973     -0.606999993       2851.78369      -1.54313374    
   1.26109600     -0.522363007     -0.606999993       2851.78369      -1.54313374    
   1.33877206     -0.266297996     -0.606999993       2851.78369      -1.54313374    
   1.84103203     -0.366203994     -0.606999993       2851.78369      -1.54313374    
   1.73421395     -0.718334973     -0.606999993       2550.04053      -1.50514340    
   2.40179110     -0.994853973     -0.517000020       2550.04053      -1.50514340    
   2.16155505      -1.44430494     -0.517000020       2550.04053      -1.50514340    
   1.56075203      -1.04286098     -0.606999993       2550.04053      -1.50514340    
   1.56075203      -1.04286098     -0.606999993       4669.98828      -1.54338467    
   1.13495600     -0.758352995     -0.606999993       4669.98828      -1.54338467    
   1.26109600     -0.522363007     -0.606999993       4669.98828      -1.54338467    