 VARIABLES="X" "Y" "Z" "abs(p) (Pa)" "angle(p) (rad)"
ZONE N=   2709,E =    2358, F=FEPOINT, ET=QUADRILATERAL
   0.00000000      -5.48999977     -0.157000005       455.692474      -1.60035634    
   0.00000000      -4.76741982     -0.246999994       455.692474      -1.60035634    
  0.930077016      -4.67581606     -0.246999994       455.692474      -1.60035634    
   1.07104599      -5.38451099     -0.157000005       455.692474      -1.60035634    
  -1.07104599      -5.38451099     -0.157000005       461.841034       1.54402459    
 -0.930077016      -4.67581606     -0.246999994       461.841034       1.54402459    
   0.00000000      -4.76741982     -0.246999994       461.841034       1.54402459    
   0.00000000      -5.48999977     -0.157000005       461.841034       1.54402459    
  -2.10093188      -5.07209921     -0.157000005       1382.07727       1.54744434    
  -1.82441294      -4.40452194     -0.246999994       1382.07727       1.54744434    
 -0.930077016      -4.67581606     -0.246999994       1382.07727       1.54744434    
  -1.07104599      -5.38451099     -0.157000005       1382.07727       1.54744434    
  -3.05008101      -4.56476784     -0.157000005       2214.34839       1.54294705    
  -2.64863706      -3.96396494     -0.246999994       2214.34839       1.54294705    
  -1.82441294      -4.40452194     -0.246999994       2214.34839       1.54294705    
  -2.10093188      -5.07209921     -0.157000005       2214.34839       1.54294705    
  -3.88201594      -3.88201594     -0.157000005       2974.31299       1.54278123    
  -3.37107491      -3.37107491     -0.246999994       2974.31299       1.54278123    
  -2.64863706      -3.96396494     -0.246999994       2974.31299       1.54278123    
  -3.05008101      -4.56476784     -0.157000005       2974.31299       1.54278123    
  -4.56476784      -3.05008101     -0.157000005       3659.37744       1.54656267    
  -3.96396494      -2.64863706     -0.246999994       3659.37744       1.54656267    
  -3.37107491      -3.37107491     -0.246999994       3659.37744       1.54656267    
  -3.88201594      -3.88201594     -0.157000005       3659.37744       1.54656267    
  -5.07209921      -2.10093188     -0.157000005       4133.09863       1.54332852    
  -4.40452194      -1.82441294     -0.246999994       4133.09863       1.54332852    
  -3.96396494      -2.64863706     -0.246999994       4133.09863       1.54332852    
  -4.56476784      -3.05008101     -0.157000005       4133.09863       1.54332852    
  -5.38451099      -1.07104599     -0.157000005       4487.33838       1.54286766    
  -4.67581606     -0.930077016     -0.246999994       4487.33838       1.54286766    
  -4.40452194      -1.82441294     -0.246999994       4487.33838       1.54286766    
  -5.07209921      -2.10093188     -0.157000005       4487.33838       1.54286766    
  -5.48999977       0.00000000     -0.157000005       4729.78125       1.54732370    
  -4.76741982       0.00000000     -0.246999994       4729.78125       1.54732370    
  -4.67581606     -0.930077016     -0.246999994       4729.78125       1.54732370    
  -5.38451099      -1.07104599     -0.157000005       4729.78125       1.54732370    
  -5.38451099       1.07104599     -0.157000005       4736.37012       1.54776263    
  -4.67581606      0.930077016     -0.246999994       4736.37012       1.54776263    
  -4.76741982       0.00000000     -0.246999994       4736.37012       1.54776263    
  -5.48999977       0.00000000     -0.157000005       4736.37012       1.54776263    
  -5.07209921       2.10093188     -0.157000005       4554.38037       1.54775524    
  -4.40452194       1.82441294     -0.246999994       4554.38037       1.54775524    
  -4.67581606      0.930077016     -0.246999994       4554.38037       1.54775524    
  -5.38451099       1.07104599     -0.157000005       4554.38037       1.54775524    
  -4.56476784       3.05008101     -0.157000005       4193.89404       1.54752910    
  -3.96396494       2.64863706     -0.246999994       4193.89404       1.54752910    
  -4.40452194       1.82441294     -0.246999994       4193.89404       1.54752910    
  -5.07209921       2.10093188     -0.157000005       4193.89404       1.54752910    
  -3.88201594       3.88201594     -0.157000005       3629.59717       1.54330420    
  -3.37107491       3.37107491     -0.246999994       3629.59717       1.54330420    
  -3.96396494       2.64863706     -0.246999994       3629.59717       1.54330420    
  -4.56476784       3.05008101     -0.157000005       3629.59717       1.54330420    
  -3.05008101       4.56476784     -0.157000005       3008.79688       1.54730690    
  -2.64863706       3.96396494     -0.246999994       3008.79688       1.54730690    
  -3.37107491       3.37107491     -0.246999994       3008.79688       1.54730690    
  -3.88201594       3.88201594     -0.157000005       3008.79688       1.54730690    
  -2.10093188       5.07209921     -0.157000005       2213.29956       1.54299259    
  -1.82441294       4.40452194     -0.246999994       2213.29956       1.54299259    
  -2.64863706       3.96396494     -0.246999994       2213.29956       1.54299259    
  -3.05008101       4.56476784     -0.157000005       2213.29956       1.54299259    
  -1.07104599       5.38451099     -0.157000005       1374.57520       1.54643190    
 -0.930077016       4.67581606     -0.246999994       1374.57520       1.54643190    
  -1.82441294       4.40452194     -0.246999994       1374.57520       1.54643190    
  -2.10093188       5.07209921     -0.157000005       1374.57520       1.54643190    
   0.00000000       5.48999977     -0.157000005       457.608948       1.54590237    
   0.00000000       4.76741982     -0.246999994       457.608948       1.54590237    
 -0.930077016       4.67581606     -0.246999994       457.608948       1.54590237    
  -1.07104599       5.38451099     -0.157000005       457.608948       1.54590237    
   1.07104599       5.38451099     -0.157000005       468.562164      -1.59379506    
  0.930077016       4.67581606     -0.246999994       468.562164      -1.59379506    
   0.00000000       4.76741982     -0.246999994       468.562164      -1.59379506    
   0.00000000       5.48999977     -0.157000005       468.562164      -1.59379506    
   2.10093188       5.07209921     -0.157000005       1363.65002      -1.59735417    
   1.82441294       4.40452194     -0.246999994       1363.65002      -1.59735417    
  0.930077016       4.67581606     -0.246999994       1363.65002      -1.59735417    
   1.07104599       5.38451099     -0.157000005       1363.65002      -1.59735417    
   3.05008101       4.56476784     -0.157000005       2214.30981      -1.59914899    
   2.64863706       3.96396494     -0.246999994       2214.30981      -1.59914899    
   1.82441294       4.40452194     -0.246999994       2214.30981      -1.59914899    
   2.10093188       5.07209921     -0.157000005       2214.30981      -1.59914899    
   3.88201594       3.88201594     -0.157000005       3015.48535      -1.59442353    
   3.37107491       3.37107491     -0.246999994       3015.48535      -1.59442353    
   2.64863706       3.96396494     -0.246999994       3015.48535      -1.59442353    
   3.05008101       4.56476784     -0.157000005       3015.48535      -1.59442353    
   4.56476784       3.05008101     -0.157000005       3646.63867      -1.59630299    
   3.96396494       2.64863706     -0.246999994       3646.63867      -1.59630299    
   3.37107491       3.37107491     -0.246999994       3646.63867      -1.59630299    
   3.88201594       3.88201594     -0.157000005       3646.63867      -1.59630299    
   5.07209921       2.10093188     -0.157000005       4186.52832      -1.59412420    
   4.40452194       1.82441294     -0.246999994       4186.52832      -1.59412420    
   3.96396494       2.64863706     -0.246999994       4186.52832      -1.59412420    
   4.56476784       3.05008101     -0.157000005       4186.52832      -1.59412420    
   5.38451099       1.07104599     -0.157000005       4489.20020      -1.59908199    
   4.67581606      0.930077016     -0.246999994       4489.20020      -1.59908199    
   4.40452194       1.82441294     -0.246999994       4489.20020      -1.59908199    
   5.07209921       2.10093188     -0.157000005       4489.20020      -1.59908199    
   5.48999977       0.00000000     -0.157000005       4663.52783      -1.59863853    
   4.76741982       0.00000000     -0.246999994       4663.52783      -1.59863853    
   4.67581606      0.930077016     -0.246999994       4663.52783      -1.59863853    
   5.38451099       1.07104599     -0.157000005       4663.52783      -1.59863853    
   5.38451099      -1.07104599     -0.157000005       4660.00098      -1.59876621    
   4.67581606     -0.930077016     -0.246999994       4660.00098      -1.59876621    
   4.76741982       0.00000000     -0.246999994       4660.00098      -1.59876621    
   5.48999977       0.00000000     -0.157000005       4660.00098      -1.59876621    
   5.07209921      -2.10093188     -0.157000005       4480.44629      -1.59930038    
   4.40452194      -1.82441294     -0.246999994       4480.44629      -1.59930038    
   4.67581606     -0.930077016     -0.246999994       4480.44629      -1.59930038    
   5.38451099      -1.07104599     -0.157000005       4480.44629      -1.59930038    
   4.56476784      -3.05008101     -0.157000005       4130.43018      -1.59878075    
   3.96396494      -2.64863706     -0.246999994       4130.43018      -1.59878075    
   4.40452194      -1.82441294     -0.246999994       4130.43018      -1.59878075    
   5.07209921      -2.10093188     -0.157000005       4130.43018      -1.59878075    
   3.88201594      -3.88201594     -0.157000005       3621.23340      -1.59858012    
   3.37107491      -3.37107491     -0.246999994       3621.23340      -1.59858012    
   3.96396494      -2.64863706     -0.246999994       3621.23340      -1.59858012    
   4.56476784      -3.05008101     -0.157000005       3621.23340      -1.59858012    
   3.05008101      -4.56476784     -0.157000005       3007.28052      -1.59488022    
   2.64863706      -3.96396494     -0.246999994       3007.28052      -1.59488022    
   3.37107491      -3.37107491     -0.246999994       3007.28052      -1.59488022    
   3.88201594      -3.88201594     -0.157000005       3007.28052      -1.59488022    
   2.10093188      -5.07209921     -0.157000005       2211.78906      -1.59852946    
   1.82441294      -4.40452194     -0.246999994       2211.78906      -1.59852946    
   2.64863706      -3.96396494     -0.246999994       2211.78906      -1.59852946    
   3.05008101      -4.56476784     -0.157000005       2211.78906      -1.59852946    
   1.07104599      -5.38451099     -0.157000005       1358.15613      -1.59825873    
  0.930077016      -4.67581606     -0.246999994       1358.15613      -1.59825873    
   1.82441294      -4.40452194     -0.246999994       1358.15613      -1.59825873    
   2.10093188      -5.07209921     -0.157000005       1358.15613      -1.59825873    
   0.00000000      -1.87709999     -0.606999993       271.354370      -1.57282341    
   0.00000000      -1.36500001     -0.606999993       271.354370      -1.57282341    
  0.266297996      -1.33877206     -0.606999993       271.354370      -1.57282341    
  0.366203994      -1.84103203     -0.606999993       271.354370      -1.57282341    
   0.00000000      -1.87709999     -0.606999993       164.195496       1.56874490    
   0.00000000      -2.59967995     -0.517000020       164.195496       1.56874490    
 -0.507171988      -2.54972792     -0.517000020       164.195496       1.56874490    
 -0.366203994      -1.84103203     -0.606999993       164.195496       1.56874490    
 -0.366203994      -1.84103203     -0.606999993       277.589233       1.56925881    
 -0.266297996      -1.33877206     -0.606999993       277.589233       1.56925881    
   0.00000000      -1.36500001     -0.606999993       277.589233       1.56925881    
   0.00000000      -1.87709999     -0.606999993       277.589233       1.56925881    
 -0.366203994      -1.84103203     -0.606999993       484.645905       1.56882167    
 -0.507171988      -2.54972792     -0.517000020       484.645905       1.56882167    
 -0.994853973      -2.40179110     -0.517000020       484.645905       1.56882167    
 -0.718334973      -1.73421395     -0.606999993       484.645905       1.56882167    
 -0.718334973      -1.73421395     -0.606999993       815.557434       1.56907964    
 -0.522363007      -1.26109600     -0.606999993       815.557434       1.56907964    
 -0.266297996      -1.33877206     -0.606999993       815.557434       1.56907964    
 -0.366203994      -1.84103203     -0.606999993       815.557434       1.56907964    
 -0.718334973      -1.73421395     -0.606999993       784.306641       1.56891537    
 -0.994853973      -2.40179110     -0.517000020       784.306641       1.56891537    
  -1.44430494      -2.16155505     -0.517000020       784.306641       1.56891537    
  -1.04286098      -1.56075203     -0.606999993       784.306641       1.56891537    
  -1.04286098      -1.56075203     -0.606999993       1322.04639       1.56911302    
 -0.758352995      -1.13495600     -0.606999993       1322.04639       1.56911302    
 -0.522363007      -1.26109600     -0.606999993       1322.04639       1.56911302    
 -0.718334973      -1.73421395     -0.606999993       1322.04639       1.56911302    
  -1.04286098      -1.56075203     -0.606999993       1055.03003       1.56897891    
  -1.44430494      -2.16155505     -0.517000020       1055.03003       1.56897891    
  -1.83825099      -1.83825099     -0.517000020       1055.03003       1.56897891    
  -1.32730997      -1.32730997     -0.606999993       1055.03003       1.56897891    
  -1.32730997      -1.32730997     -0.606999993       1778.49658       1.56912482    
 -0.965201020     -0.965201020     -0.606999993       1778.49658       1.56912482    
 -0.758352995      -1.13495600     -0.606999993       1778.49658       1.56912482    
  -1.04286098      -1.56075203     -0.606999993       1778.49658       1.56912482    
  -1.32730997      -1.32730997     -0.606999993       1288.88525       1.56901264    
  -1.83825099      -1.83825099     -0.517000020       1288.88525       1.56901264    
  -2.16155505      -1.44430494     -0.517000020       1288.88525       1.56901264    
  -1.56075203      -1.04286098     -0.606999993       1288.88525       1.56901264    
  -1.56075203      -1.04286098     -0.606999993       2168.09717       1.56913030    
  -1.13495600     -0.758352995     -0.606999993       2168.09717       1.56913030    
 -0.965201020     -0.965201020     -0.606999993       2168.09717       1.56913030    
  -1.32730997      -1.32730997     -0.606999993       2168.09717       1.56913030    
  -1.56075203      -1.04286098     -0.606999993       1474.01306       1.56901991    
  -2.16155505      -1.44430494     -0.517000020       1474.01306       1.56901991    
  -2.40179110     -0.994853973     -0.517000020       1474.01306       1.56901991    
  -1.73421395     -0.718334973     -0.606999993       1474.01306       1.56901991    
  -1.73421395     -0.718334973     -0.606999993       2474.72949       1.56913221    
  -1.26109600     -0.522363007     -0.606999993       2474.72949       1.56913221    
  -1.13495600     -0.758352995     -0.606999993       2474.72949       1.56913221    
  -1.56075203      -1.04286098     -0.606999993       2474.72949       1.56913221    
  -1.73421395     -0.718334973     -0.606999993       1598.87805       1.56901455    
  -2.40179110     -0.994853973     -0.517000020       1598.87805       1.56901455    
  -2.54972792     -0.507171988     -0.517000020       1598.87805       1.56901455    
  -1.84103203     -0.366203994     -0.606999993       1598.87805       1.56901455    
  -1.84103203     -0.366203994     -0.606999993       2684.50415       1.56912374    
  -1.33877206     -0.266297996     -0.606999993       2684.50415       1.56912374    
  -1.26109600     -0.522363007     -0.606999993       2684.50415       1.56912374    
  -1.73421395     -0.718334973     -0.606999993       2684.50415       1.56912374    
  -1.84103203     -0.366203994     -0.606999993       1659.83508       1.56901574    
  -2.54972792     -0.507171988     -0.517000020       1659.83508       1.56901574    
  -2.59967995       0.00000000     -0.517000020       1659.83508       1.56901574    
  -1.87709999       0.00000000     -0.606999993       1659.83508       1.56901574    
  -1.87709999       0.00000000     -0.606999993       2789.50317       1.56911743    
  -1.36500001       0.00000000     -0.606999993       2789.50317       1.56911743    
  -1.33877206     -0.266297996     -0.606999993       2789.50317       1.56911743    
  -1.84103203     -0.366203994     -0.606999993       2789.50317       1.56911743    
  -1.87709999       0.00000000     -0.606999993       1659.03101       1.56902790    
  -2.59967995       0.00000000     -0.517000020       1659.03101       1.56902790    
  -2.54972792      0.507171988     -0.517000020       1659.03101       1.56902790    
  -1.84103203      0.366203994     -0.606999993       1659.03101       1.56902790    
  -1.84103203      0.366203994     -0.606999993       2787.52148       1.56911683    
  -1.33877206      0.266297996     -0.606999993       2787.52148       1.56911683    
  -1.36500001       0.00000000     -0.606999993       2787.52148       1.56911683    
  -1.87709999       0.00000000     -0.606999993       2787.52148       1.56911683    
  -1.84103203      0.366203994     -0.606999993       1597.38879       1.56904006    
  -2.54972792      0.507171988     -0.517000020       1597.38879       1.56904006    
  -2.40179110      0.994853973     -0.517000020       1597.38879       1.56904006    
  -1.73421395      0.718334973     -0.606999993       1597.38879       1.56904006    
  -1.73421395      0.718334973     -0.606999993       2679.30249       1.56912434    
  -1.26109600      0.522363007     -0.606999993       2679.30249       1.56912434    
  -1.33877206      0.266297996     -0.606999993       2679.30249       1.56912434    
  -1.84103203      0.366203994     -0.606999993       2679.30249       1.56912434    
  -1.73421395      0.718334973     -0.606999993       1473.30017       1.56906319    
  -2.40179110      0.994853973     -0.517000020       1473.30017       1.56906319    
  -2.16155505       1.44430494     -0.517000020       1473.30017       1.56906319    
  -1.56075203       1.04286098     -0.606999993       1473.30017       1.56906319    
  -1.56075203       1.04286098     -0.606999993       2467.84106       1.56913984    
  -1.13495600      0.758352995     -0.606999993       2467.84106       1.56913984    
  -1.26109600      0.522363007     -0.606999993       2467.84106       1.56913984    
  -1.73421395      0.718334973     -0.606999993       2467.84106       1.56913984    
  -1.56075203       1.04286098     -0.606999993       1288.95813       1.56908548    
  -2.16155505       1.44430494     -0.517000020       1288.95813       1.56908548    
  -1.83825099       1.83825099     -0.517000020       1288.95813       1.56908548    
  -1.32730997       1.32730997     -0.606999993       1288.95813       1.56908548    
  -1.32730997       1.32730997     -0.606999993       2160.57983       1.56915438    
 -0.965201020      0.965201020     -0.606999993       2160.57983       1.56915438    
  -1.13495600      0.758352995     -0.606999993       2160.57983       1.56915438    
  -1.56075203       1.04286098     -0.606999993       2160.57983       1.56915438    
  -1.32730997       1.32730997     -0.606999993       1054.80872       1.56909740    
  -1.83825099       1.83825099     -0.517000020       1054.80872       1.56909740    
  -1.44430494       2.16155505     -0.517000020       1054.80872       1.56909740    
  -1.04286098       1.56075203     -0.606999993       1054.80872       1.56909740    
  -1.04286098       1.56075203     -0.606999993       1770.67712       1.56916928    
 -0.758352995       1.13495600     -0.606999993       1770.67712       1.56916928    
 -0.965201020      0.965201020     -0.606999993       1770.67712       1.56916928    
  -1.32730997       1.32730997     -0.606999993       1770.67712       1.56916928    
  -1.04286098       1.56075203     -0.606999993       783.569824       1.56907547    
  -1.44430494       2.16155505     -0.517000020       783.569824       1.56907547    
 -0.994853973       2.40179110     -0.517000020       783.569824       1.56907547    
 -0.718334973       1.73421395     -0.606999993       783.569824       1.56907547    
 -0.718334973       1.73421395     -0.606999993       1314.36267       1.56918740    
 -0.522363007       1.26109600     -0.606999993       1314.36267       1.56918740    
 -0.758352995       1.13495600     -0.606999993       1314.36267       1.56918740    
  -1.04286098       1.56075203     -0.606999993       1314.36267       1.56918740    
 -0.718334973       1.73421395     -0.606999993       484.004852       1.56907904    
 -0.994853973       2.40179110     -0.517000020       484.004852       1.56907904    
 -0.507171988       2.54972792     -0.517000020       484.004852       1.56907904    
 -0.366203994       1.84103203     -0.606999993       484.004852       1.56907904    
 -0.366203994       1.84103203     -0.606999993       808.740417       1.56926465    
 -0.266297996       1.33877206     -0.606999993       808.740417       1.56926465    
 -0.522363007       1.26109600     -0.606999993       808.740417       1.56926465    
 -0.718334973       1.73421395     -0.606999993       808.740417       1.56926465    
 -0.366203994       1.84103203     -0.606999993       164.163544       1.56945968    
 -0.507171988       2.54972792     -0.517000020       164.163544       1.56945968    
   0.00000000       2.59967995     -0.517000020       164.163544       1.56945968    
   0.00000000       1.87709999     -0.606999993       164.163544       1.56945968    
   0.00000000       1.87709999     -0.606999993       271.759033       1.56969774    
   0.00000000       1.36500001     -0.606999993       271.759033       1.56969774    
 -0.266297996       1.33877206     -0.606999993       271.759033       1.56969774    
 -0.366203994       1.84103203     -0.606999993       271.759033       1.56969774    
   0.00000000       1.87709999     -0.606999993       163.519623      -1.57343161    
   0.00000000       2.59967995     -0.517000020       163.519623      -1.57343161    
  0.507171988       2.54972792     -0.517000020       163.519623      -1.57343161    
  0.366203994       1.84103203     -0.606999993       163.519623      -1.57343161    
  0.366203994       1.84103203     -0.606999993       276.153656      -1.57335532    
  0.266297996       1.33877206     -0.606999993       276.153656      -1.57335532    
   0.00000000       1.36500001     -0.606999993       276.153656      -1.57335532    
   0.00000000       1.87709999     -0.606999993       276.153656      -1.57335532    
  0.366203994       1.84103203     -0.606999993       483.698456      -1.57294166    
  0.507171988       2.54972792     -0.517000020       483.698456      -1.57294166    
  0.994853973       2.40179110     -0.517000020       483.698456      -1.57294166    
  0.718334973       1.73421395     -0.606999993       483.698456      -1.57294166    
  0.718334973       1.73421395     -0.606999993       813.469116      -1.57286263    
  0.522363007       1.26109600     -0.606999993       813.469116      -1.57286263    
  0.266297996       1.33877206     -0.606999993       813.469116      -1.57286263    
  0.366203994       1.84103203     -0.606999993       813.469116      -1.57286263    
  0.718334973       1.73421395     -0.606999993       783.820740      -1.57276070    
  0.994853973       2.40179110     -0.517000020       783.820740      -1.57276070    
   1.44430494       2.16155505     -0.517000020       783.820740      -1.57276070    
   1.04286098       1.56075203     -0.606999993       783.820740      -1.57276070    
   1.04286098       1.56075203     -0.606999993       1319.98438      -1.57269943    
  0.758352995       1.13495600     -0.606999993       1319.98438      -1.57269943    
  0.522363007       1.26109600     -0.606999993       1319.98438      -1.57269943    
  0.718334973       1.73421395     -0.606999993       1319.98438      -1.57269943    
   1.04286098       1.56075203     -0.606999993       1055.68652      -1.57267284    
   1.44430494       2.16155505     -0.517000020       1055.68652      -1.57267284    
   1.83825099       1.83825099     -0.517000020       1055.68652      -1.57267284    
   1.32730997       1.32730997     -0.606999993       1055.68652      -1.57267284    
   1.32730997       1.32730997     -0.606999993       1777.10254      -1.57262707    
  0.965201020      0.965201020     -0.606999993       1777.10254      -1.57262707    
  0.758352995       1.13495600     -0.606999993       1777.10254      -1.57262707    
   1.04286098       1.56075203     -0.606999993       1777.10254      -1.57262707    
   1.32730997       1.32730997     -0.606999993       1290.24597      -1.57263315    
   1.83825099       1.83825099     -0.517000020       1290.24597      -1.57263315    
   2.16155505       1.44430494     -0.517000020       1290.24597      -1.57263315    
   1.56075203       1.04286098     -0.606999993       1290.24597      -1.57263315    
   1.56075203       1.04286098     -0.606999993       2167.34229      -1.57259047    
   1.13495600      0.758352995     -0.606999993       2167.34229      -1.57259047    
  0.965201020      0.965201020     -0.606999993       2167.34229      -1.57259047    
   1.32730997       1.32730997     -0.606999993       2167.34229      -1.57259047    
   1.56075203       1.04286098     -0.606999993       1474.44434      -1.57264578    
   2.16155505       1.44430494     -0.517000020       1474.44434      -1.57264578    
   2.40179110      0.994853973     -0.517000020       1474.44434      -1.57264578    
   1.73421395      0.718334973     -0.606999993       1474.44434      -1.57264578    
   1.73421395      0.718334973     -0.606999993       2473.28394      -1.57257330    
   1.26109600      0.522363007     -0.606999993       2473.28394      -1.57257330    
   1.13495600      0.758352995     -0.606999993       2473.28394      -1.57257330    
   1.56075203       1.04286098     -0.606999993       2473.28394      -1.57257330    
   1.73421395      0.718334973     -0.606999993       1597.85547      -1.57266462    
   2.40179110      0.994853973     -0.517000020       1597.85547      -1.57266462    
   2.54972792      0.507171988     -0.517000020       1597.85547      -1.57266462    
   1.84103203      0.366203994     -0.606999993       1597.85547      -1.57266462    
   1.84103203      0.366203994     -0.606999993       2682.21826      -1.57256007    
   1.33877206      0.266297996     -0.606999993       2682.21826      -1.57256007    
   1.26109600      0.522363007     -0.606999993       2682.21826      -1.57256007    
   1.73421395      0.718334973     -0.606999993       2682.21826      -1.57256007    
   1.84103203      0.366203994     -0.606999993       1658.70862      -1.57266438    
   2.54972792      0.507171988     -0.517000020       1658.70862      -1.57266438    
   2.59967995       0.00000000     -0.517000020       1658.70862      -1.57266438    
   1.87709999       0.00000000     -0.606999993       1658.70862      -1.57266438    
   1.87709999       0.00000000     -0.606999993       2787.71997      -1.57255113    
   1.36500001       0.00000000     -0.606999993       2787.71997      -1.57255113    
   1.33877206      0.266297996     -0.606999993       2787.71997      -1.57255113    
   1.84103203      0.366203994     -0.606999993       2787.71997      -1.57255113    
   1.87709999       0.00000000     -0.606999993       1658.85388      -1.57265854    
   2.59967995       0.00000000     -0.517000020       1658.85388      -1.57265854    
   2.54972792     -0.507171988     -0.517000020       1658.85388      -1.57265854    
   1.84103203     -0.366203994     -0.606999993       1658.85388      -1.57265854    
   1.84103203     -0.366203994     -0.606999993       2787.13452      -1.57254255    
   1.33877206     -0.266297996     -0.606999993       2787.13452      -1.57254255    
   1.36500001       0.00000000     -0.606999993       2787.13452      -1.57254255    
   1.87709999       0.00000000     -0.606999993       2787.13452      -1.57254255    
   1.84103203     -0.366203994     -0.606999993       1597.50464      -1.57263529    
   2.54972792     -0.507171988     -0.517000020       1597.50464      -1.57263529    
   2.40179110     -0.994853973     -0.517000020       1597.50464      -1.57263529    
   1.73421395     -0.718334973     -0.606999993       1597.50464      -1.57263529    
   1.73421395     -0.718334973     -0.606999993       2680.03003      -1.57251894    
   1.26109600     -0.522363007     -0.606999993       2680.03003      -1.57251894    
   1.33877206     -0.266297996     -0.606999993       2680.03003      -1.57251894    
   1.84103203     -0.366203994     -0.606999993       2680.03003      -1.57251894    
   1.73421395     -0.718334973     -0.606999993       1472.48462      -1.57259703    
   2.40179110     -0.994853973     -0.517000020       1472.48462      -1.57259703    
   2.16155505      -1.44430494     -0.517000020       1472.48462      -1.57259703    
   1.56075203      -1.04286098     -0.606999993       1472.48462      -1.57259703    
   1.56075203      -1.04286098     -0.606999993       2468.89380      -1.57250738    
   1.13495600     -0.758352995     -0.606999993       2468.89380      -1.57250738    
   1.26109600     -0.522363007     -0.606999993       2468.89380      -1.57250738    