 VARIABLES="X" "Y" "Z" "abs(p) (Pa)" "angle(p) (rad)"
ZONE N=   2709,E =    2358, F=FEPOINT, ET=QUADRILATERAL
   0.00000000      -5.48999977     -0.157000005       208.336472     -0.281467706    
   0.00000000      -4.76741982     -0.246999994       208.336472     -0.281467706    
  0.930077016      -4.67581606     -0.246999994       208.336472     -0.281467706    
   1.07104599      -5.38451099     -0.157000005       208.336472     -0.281467706    
  -1.07104599      -5.38451099     -0.157000005       208.227432     -0.282018751    
 -0.930077016      -4.67581606     -0.246999994       208.227432     -0.282018751    
   0.00000000      -4.76741982     -0.246999994       208.227432     -0.282018751    
   0.00000000      -5.48999977     -0.157000005       208.227432     -0.282018751    
  -2.10093188      -5.07209921     -0.157000005       207.428650     -0.286134779    
  -1.82441294      -4.40452194     -0.246999994       207.428650     -0.286134779    
 -0.930077016      -4.67581606     -0.246999994       207.428650     -0.286134779    
  -1.07104599      -5.38451099     -0.157000005       207.428650     -0.286134779    
  -3.05008101      -4.56476784     -0.157000005       207.971390     -0.283334494    
  -2.64863706      -3.96396494     -0.246999994       207.971390     -0.283334494    
  -1.82441294      -4.40452194     -0.246999994       207.971390     -0.283334494    
  -2.10093188      -5.07209921     -0.157000005       207.971390     -0.283334494    
  -3.88201594      -3.88201594     -0.157000005       207.730804     -0.283301860    
  -3.37107491      -3.37107491     -0.246999994       207.730804     -0.283301860    
  -2.64863706      -3.96396494     -0.246999994       207.730804     -0.283301860    
  -3.05008101      -4.56476784     -0.157000005       207.730804     -0.283301860    
  -4.56476784      -3.05008101     -0.157000005       206.532654     -0.286104798    
  -3.96396494      -2.64863706     -0.246999994       206.532654     -0.286104798    
  -3.37107491      -3.37107491     -0.246999994       206.532654     -0.286104798    
  -3.88201594      -3.88201594     -0.157000005       206.532654     -0.286104798    
  -5.07209921      -2.10093188     -0.157000005       207.135941     -0.281367719    
  -4.40452194      -1.82441294     -0.246999994       207.135941     -0.281367719    
  -3.96396494      -2.64863706     -0.246999994       207.135941     -0.281367719    
  -4.56476784      -3.05008101     -0.157000005       207.135941     -0.281367719    
  -5.38451099      -1.07104599     -0.157000005       207.144470     -0.280903608    
  -4.67581606     -0.930077016     -0.246999994       207.144470     -0.280903608    
  -4.40452194      -1.82441294     -0.246999994       207.144470     -0.280903608    
  -5.07209921      -2.10093188     -0.157000005       207.144470     -0.280903608    
  -5.48999977       0.00000000     -0.157000005       206.249603     -0.284756690    
  -4.76741982       0.00000000     -0.246999994       206.249603     -0.284756690    
  -4.67581606     -0.930077016     -0.246999994       206.249603     -0.284756690    
  -5.38451099      -1.07104599     -0.157000005       206.249603     -0.284756690    
  -5.38451099       1.07104599     -0.157000005       206.037567     -0.285495281    
  -4.67581606      0.930077016     -0.246999994       206.037567     -0.285495281    
  -4.76741982       0.00000000     -0.246999994       206.037567     -0.285495281    
  -5.48999977       0.00000000     -0.157000005       206.037567     -0.285495281    
  -5.07209921       2.10093188     -0.157000005       205.939438     -0.285278589    
  -4.40452194       1.82441294     -0.246999994       205.939438     -0.285278589    
  -4.67581606      0.930077016     -0.246999994       205.939438     -0.285278589    
  -5.38451099       1.07104599     -0.157000005       205.939438     -0.285278589    
  -4.56476784       3.05008101     -0.157000005       205.954468     -0.284853488    
  -3.96396494       2.64863706     -0.246999994       205.954468     -0.284853488    
  -4.40452194       1.82441294     -0.246999994       205.954468     -0.284853488    
  -5.07209921       2.10093188     -0.157000005       205.954468     -0.284853488    
  -3.88201594       3.88201594     -0.157000005       206.725037     -0.282834858    
  -3.37107491       3.37107491     -0.246999994       206.725037     -0.282834858    
  -3.96396494       2.64863706     -0.246999994       206.725037     -0.282834858    
  -4.56476784       3.05008101     -0.157000005       206.725037     -0.282834858    
  -3.05008101       4.56476784     -0.157000005       206.129257     -0.286831826    
  -2.64863706       3.96396494     -0.246999994       206.129257     -0.286831826    
  -3.37107491       3.37107491     -0.246999994       206.129257     -0.286831826    
  -3.88201594       3.88201594     -0.157000005       206.129257     -0.286831826    
  -2.10093188       5.07209921     -0.157000005       206.745911     -0.284502506    
  -1.82441294       4.40452194     -0.246999994       206.745911     -0.284502506    
  -2.64863706       3.96396494     -0.246999994       206.745911     -0.284502506    
  -3.05008101       4.56476784     -0.157000005       206.745911     -0.284502506    
  -1.07104599       5.38451099     -0.157000005       206.099319     -0.287543952    
 -0.930077016       4.67581606     -0.246999994       206.099319     -0.287543952    
  -1.82441294       4.40452194     -0.246999994       206.099319     -0.287543952    
  -2.10093188       5.07209921     -0.157000005       206.099319     -0.287543952    
   0.00000000       5.48999977     -0.157000005       206.677750     -0.284480482    
   0.00000000       4.76741982     -0.246999994       206.677750     -0.284480482    
 -0.930077016       4.67581606     -0.246999994       206.677750     -0.284480482    
  -1.07104599       5.38451099     -0.157000005       206.677750     -0.284480482    
   1.07104599       5.38451099     -0.157000005       206.013977     -0.287268162    
  0.930077016       4.67581606     -0.246999994       206.013977     -0.287268162    
   0.00000000       4.76741982     -0.246999994       206.013977     -0.287268162    
   0.00000000       5.48999977     -0.157000005       206.013977     -0.287268162    
   2.10093188       5.07209921     -0.157000005       206.697983     -0.284968019    
   1.82441294       4.40452194     -0.246999994       206.697983     -0.284968019    
  0.930077016       4.67581606     -0.246999994       206.697983     -0.284968019    
   1.07104599       5.38451099     -0.157000005       206.697983     -0.284968019    
   3.05008101       4.56476784     -0.157000005       206.631836     -0.284800172    
   2.64863706       3.96396494     -0.246999994       206.631836     -0.284800172    
   1.82441294       4.40452194     -0.246999994       206.631836     -0.284800172    
   2.10093188       5.07209921     -0.157000005       206.631836     -0.284800172    
   3.88201594       3.88201594     -0.157000005       205.690140     -0.288211524    
   3.37107491       3.37107491     -0.246999994       205.690140     -0.288211524    
   2.64863706       3.96396494     -0.246999994       205.690140     -0.288211524    
   3.05008101       4.56476784     -0.157000005       205.690140     -0.288211524    
   4.56476784       3.05008101     -0.157000005       205.677948     -0.286327213    
   3.96396494       2.64863706     -0.246999994       205.677948     -0.286327213    
   3.37107491       3.37107491     -0.246999994       205.677948     -0.286327213    
   3.88201594       3.88201594     -0.157000005       205.677948     -0.286327213    
   5.07209921       2.10093188     -0.157000005       205.497803     -0.285756260    
   4.40452194       1.82441294     -0.246999994       205.497803     -0.285756260    
   3.96396494       2.64863706     -0.246999994       205.497803     -0.285756260    
   4.56476784       3.05008101     -0.157000005       205.497803     -0.285756260    
   5.38451099       1.07104599     -0.157000005       206.619476     -0.281677097    
   4.67581606      0.930077016     -0.246999994       206.619476     -0.281677097    
   4.40452194       1.82441294     -0.246999994       206.619476     -0.281677097    
   5.07209921       2.10093188     -0.157000005       206.619476     -0.281677097    
   5.48999977       0.00000000     -0.157000005       207.001709     -0.280738652    
   4.76741982       0.00000000     -0.246999994       207.001709     -0.280738652    
   4.67581606      0.930077016     -0.246999994       207.001709     -0.280738652    
   5.38451099       1.07104599     -0.157000005       207.001709     -0.280738652    
   5.38451099      -1.07104599     -0.157000005       207.214874     -0.280004889    
   4.67581606     -0.930077016     -0.246999994       207.214874     -0.280004889    
   4.76741982       0.00000000     -0.246999994       207.214874     -0.280004889    
   5.48999977       0.00000000     -0.157000005       207.214874     -0.280004889    
   5.07209921      -2.10093188     -0.157000005       207.394058     -0.279197663    
   4.40452194      -1.82441294     -0.246999994       207.394058     -0.279197663    
   4.67581606     -0.930077016     -0.246999994       207.394058     -0.279197663    
   5.38451099      -1.07104599     -0.157000005       207.394058     -0.279197663    
   4.56476784      -3.05008101     -0.157000005       207.584793     -0.279071122    
   3.96396494      -2.64863706     -0.246999994       207.584793     -0.279071122    
   4.40452194      -1.82441294     -0.246999994       207.584793     -0.279071122    
   5.07209921      -2.10093188     -0.157000005       207.584793     -0.279071122    
   3.88201594      -3.88201594     -0.157000005       207.761856     -0.280667692    
   3.37107491      -3.37107491     -0.246999994       207.761856     -0.280667692    
   3.96396494      -2.64863706     -0.246999994       207.761856     -0.280667692    
   4.56476784      -3.05008101     -0.157000005       207.761856     -0.280667692    
   3.05008101      -4.56476784     -0.157000005       207.242462     -0.284927458    
   2.64863706      -3.96396494     -0.246999994       207.242462     -0.284927458    
   3.37107491      -3.37107491     -0.246999994       207.242462     -0.284927458    
   3.88201594      -3.88201594     -0.157000005       207.242462     -0.284927458    
   2.10093188      -5.07209921     -0.157000005       208.115158     -0.282307357    
   1.82441294      -4.40452194     -0.246999994       208.115158     -0.282307357    
   2.64863706      -3.96396494     -0.246999994       208.115158     -0.282307357    
   3.05008101      -4.56476784     -0.157000005       208.115158     -0.282307357    
   1.07104599      -5.38451099     -0.157000005       208.339035     -0.282062471    
  0.930077016      -4.67581606     -0.246999994       208.339035     -0.282062471    
   1.82441294      -4.40452194     -0.246999994       208.339035     -0.282062471    
   2.10093188      -5.07209921     -0.157000005       208.339035     -0.282062471    
   0.00000000      -1.87709999     -0.606999993       711.499939      -1.37722921    
   0.00000000      -1.36500001     -0.606999993       711.499939      -1.37722921    
  0.266297996      -1.33877206     -0.606999993       711.499939      -1.37722921    
  0.366203994      -1.84103203     -0.606999993       711.499939      -1.37722921    
   0.00000000      -1.87709999     -0.606999993       529.621521      -1.32368124    
   0.00000000      -2.59967995     -0.517000020       529.621521      -1.32368124    
 -0.507171988      -2.54972792     -0.517000020       529.621521      -1.32368124    
 -0.366203994      -1.84103203     -0.606999993       529.621521      -1.32368124    
 -0.366203994      -1.84103203     -0.606999993       711.619324      -1.37727726    
 -0.266297996      -1.33877206     -0.606999993       711.619324      -1.37727726    
   0.00000000      -1.36500001     -0.606999993       711.619324      -1.37727726    
   0.00000000      -1.87709999     -0.606999993       711.619324      -1.37727726    
 -0.366203994      -1.84103203     -0.606999993       523.255188      -1.32072961    
 -0.507171988      -2.54972792     -0.517000020       523.255188      -1.32072961    
 -0.994853973      -2.40179110     -0.517000020       523.255188      -1.32072961    
 -0.718334973      -1.73421395     -0.606999993       523.255188      -1.32072961    
 -0.718334973      -1.73421395     -0.606999993       708.925110      -1.37658262    
 -0.522363007      -1.26109600     -0.606999993       708.925110      -1.37658262    
 -0.266297996      -1.33877206     -0.606999993       708.925110      -1.37658262    
 -0.366203994      -1.84103203     -0.606999993       708.925110      -1.37658262    
 -0.718334973      -1.73421395     -0.606999993       517.951294      -1.31825447    
 -0.994853973      -2.40179110     -0.517000020       517.951294      -1.31825447    
  -1.44430494      -2.16155505     -0.517000020       517.951294      -1.31825447    
  -1.04286098      -1.56075203     -0.606999993       517.951294      -1.31825447    
  -1.04286098      -1.56075203     -0.606999993       707.082764      -1.37614429    
 -0.758352995      -1.13495600     -0.606999993       707.082764      -1.37614429    
 -0.522363007      -1.26109600     -0.606999993       707.082764      -1.37614429    
 -0.718334973      -1.73421395     -0.606999993       707.082764      -1.37614429    
  -1.04286098      -1.56075203     -0.606999993       519.400574      -1.31908560    
  -1.44430494      -2.16155505     -0.517000020       519.400574      -1.31908560    
  -1.83825099      -1.83825099     -0.517000020       519.400574      -1.31908560    
  -1.32730997      -1.32730997     -0.606999993       519.400574      -1.31908560    
  -1.32730997      -1.32730997     -0.606999993       709.197571      -1.37680900    
 -0.965201020     -0.965201020     -0.606999993       709.197571      -1.37680900    
 -0.758352995      -1.13495600     -0.606999993       709.197571      -1.37680900    
  -1.04286098      -1.56075203     -0.606999993       709.197571      -1.37680900    
  -1.32730997      -1.32730997     -0.606999993       526.443054      -1.32260501    
  -1.83825099      -1.83825099     -0.517000020       526.443054      -1.32260501    
  -2.16155505      -1.44430494     -0.517000020       526.443054      -1.32260501    
  -1.56075203      -1.04286098     -0.606999993       526.443054      -1.32260501    
  -1.56075203      -1.04286098     -0.606999993       714.552979      -1.37835217    
  -1.13495600     -0.758352995     -0.606999993       714.552979      -1.37835217    
 -0.965201020     -0.965201020     -0.606999993       714.552979      -1.37835217    
  -1.32730997      -1.32730997     -0.606999993       714.552979      -1.37835217    
  -1.56075203      -1.04286098     -0.606999993       532.343262      -1.32551277    
  -2.16155505      -1.44430494     -0.517000020       532.343262      -1.32551277    
  -2.40179110     -0.994853973     -0.517000020       532.343262      -1.32551277    
  -1.73421395     -0.718334973     -0.606999993       532.343262      -1.32551277    
  -1.73421395     -0.718334973     -0.606999993       719.403748      -1.37972975    
  -1.26109600     -0.522363007     -0.606999993       719.403748      -1.37972975    
  -1.13495600     -0.758352995     -0.606999993       719.403748      -1.37972975    
  -1.56075203      -1.04286098     -0.606999993       719.403748      -1.37972975    
  -1.73421395     -0.718334973     -0.606999993       532.035217      -1.32550180    
  -2.40179110     -0.994853973     -0.517000020       532.035217      -1.32550180    
  -2.54972792     -0.507171988     -0.517000020       532.035217      -1.32550180    
  -1.84103203     -0.366203994     -0.606999993       532.035217      -1.32550180    
  -1.84103203     -0.366203994     -0.606999993       720.960205      -1.38021541    
  -1.33877206     -0.266297996     -0.606999993       720.960205      -1.38021541    
  -1.26109600     -0.522363007     -0.606999993       720.960205      -1.38021541    
  -1.73421395     -0.718334973     -0.606999993       720.960205      -1.38021541    
  -1.84103203     -0.366203994     -0.606999993       528.795654      -1.32411063    
  -2.54972792     -0.507171988     -0.517000020       528.795654      -1.32411063    
  -2.59967995       0.00000000     -0.517000020       528.795654      -1.32411063    
  -1.87709999       0.00000000     -0.606999993       528.795654      -1.32411063    
  -1.87709999       0.00000000     -0.606999993       720.395447      -1.38012683    
  -1.36500001       0.00000000     -0.606999993       720.395447      -1.38012683    
  -1.33877206     -0.266297996     -0.606999993       720.395447      -1.38012683    
  -1.84103203     -0.366203994     -0.606999993       720.395447      -1.38012683    
  -1.87709999       0.00000000     -0.606999993       529.182617      -1.32438529    
  -2.59967995       0.00000000     -0.517000020       529.182617      -1.32438529    
  -2.54972792      0.507171988     -0.517000020       529.182617      -1.32438529    
  -1.84103203      0.366203994     -0.606999993       529.182617      -1.32438529    
  -1.84103203      0.366203994     -0.606999993       720.734436      -1.38026702    
  -1.33877206      0.266297996     -0.606999993       720.734436      -1.38026702    
  -1.36500001       0.00000000     -0.606999993       720.734436      -1.38026702    
  -1.87709999       0.00000000     -0.606999993       720.734436      -1.38026702    
  -1.84103203      0.366203994     -0.606999993       534.203735      -1.32677889    
  -2.54972792      0.507171988     -0.517000020       534.203735      -1.32677889    
  -2.40179110      0.994853973     -0.517000020       534.203735      -1.32677889    
  -1.73421395      0.718334973     -0.606999993       534.203735      -1.32677889    
  -1.73421395      0.718334973     -0.606999993       722.547852      -1.38077950    
  -1.26109600      0.522363007     -0.606999993       722.547852      -1.38077950    
  -1.33877206      0.266297996     -0.606999993       722.547852      -1.38077950    
  -1.84103203      0.366203994     -0.606999993       722.547852      -1.38077950    
  -1.73421395      0.718334973     -0.606999993       537.801025      -1.32847798    
  -2.40179110      0.994853973     -0.517000020       537.801025      -1.32847798    
  -2.16155505       1.44430494     -0.517000020       537.801025      -1.32847798    
  -1.56075203       1.04286098     -0.606999993       537.801025      -1.32847798    
  -1.56075203       1.04286098     -0.606999993       723.142334      -1.38096559    
  -1.13495600      0.758352995     -0.606999993       723.142334      -1.38096559    
  -1.26109600      0.522363007     -0.606999993       723.142334      -1.38096559    
  -1.73421395      0.718334973     -0.606999993       723.142334      -1.38096559    
  -1.56075203       1.04286098     -0.606999993       534.485840      -1.32701671    
  -2.16155505       1.44430494     -0.517000020       534.485840      -1.32701671    
  -1.83825099       1.83825099     -0.517000020       534.485840      -1.32701671    
  -1.32730997       1.32730997     -0.606999993       534.485840      -1.32701671    
  -1.32730997       1.32730997     -0.606999993       720.359924      -1.38026071    
 -0.965201020      0.965201020     -0.606999993       720.359924      -1.38026071    
  -1.13495600      0.758352995     -0.606999993       720.359924      -1.38026071    
  -1.56075203       1.04286098     -0.606999993       720.359924      -1.38026071    
  -1.32730997       1.32730997     -0.606999993       527.539795      -1.32383609    
  -1.83825099       1.83825099     -0.517000020       527.539795      -1.32383609    
  -1.44430494       2.16155505     -0.517000020       527.539795      -1.32383609    
  -1.04286098       1.56075203     -0.606999993       527.539795      -1.32383609    
  -1.04286098       1.56075203     -0.606999993       715.862732      -1.37909019    
 -0.758352995       1.13495600     -0.606999993       715.862732      -1.37909019    
 -0.965201020      0.965201020     -0.606999993       715.862732      -1.37909019    
  -1.32730997       1.32730997     -0.606999993       715.862732      -1.37909019    
  -1.04286098       1.56075203     -0.606999993       524.630920      -1.32249856    
  -1.44430494       2.16155505     -0.517000020       524.630920      -1.32249856    
 -0.994853973       2.40179110     -0.517000020       524.630920      -1.32249856    
 -0.718334973       1.73421395     -0.606999993       524.630920      -1.32249856    
 -0.718334973       1.73421395     -0.606999993       713.442322      -1.37846506    
 -0.522363007       1.26109600     -0.606999993       713.442322      -1.37846506    
 -0.758352995       1.13495600     -0.606999993       713.442322      -1.37846506    
  -1.04286098       1.56075203     -0.606999993       713.442322      -1.37846506    
 -0.718334973       1.73421395     -0.606999993       528.444580      -1.32432652    
 -0.994853973       2.40179110     -0.517000020       528.444580      -1.32432652    
 -0.507171988       2.54972792     -0.517000020       528.444580      -1.32432652    
 -0.366203994       1.84103203     -0.606999993       528.444580      -1.32432652    
 -0.366203994       1.84103203     -0.606999993       714.555542      -1.37878644    
 -0.266297996       1.33877206     -0.606999993       714.555542      -1.37878644    
 -0.522363007       1.26109600     -0.606999993       714.555542      -1.37878644    
 -0.718334973       1.73421395     -0.606999993       714.555542      -1.37878644    
 -0.366203994       1.84103203     -0.606999993       533.984070      -1.32692587    
 -0.507171988       2.54972792     -0.517000020       533.984070      -1.32692587    
   0.00000000       2.59967995     -0.517000020       533.984070      -1.32692587    
   0.00000000       1.87709999     -0.606999993       533.984070      -1.32692587    
   0.00000000       1.87709999     -0.606999993       716.760437      -1.37940395    
   0.00000000       1.36500001     -0.606999993       716.760437      -1.37940395    
 -0.266297996       1.33877206     -0.606999993       716.760437      -1.37940395    
 -0.366203994       1.84103203     -0.606999993       716.760437      -1.37940395    
   0.00000000       1.87709999     -0.606999993       533.966431      -1.32694471    
   0.00000000       2.59967995     -0.517000020       533.966431      -1.32694471    
  0.507171988       2.54972792     -0.517000020       533.966431      -1.32694471    
  0.366203994       1.84103203     -0.606999993       533.966431      -1.32694471    
  0.366203994       1.84103203     -0.606999993       716.728088      -1.37941623    
  0.266297996       1.33877206     -0.606999993       716.728088      -1.37941623    
   0.00000000       1.36500001     -0.606999993       716.728088      -1.37941623    
   0.00000000       1.87709999     -0.606999993       716.728088      -1.37941623    
  0.366203994       1.84103203     -0.606999993       528.384949      -1.32438576    
  0.507171988       2.54972792     -0.517000020       528.384949      -1.32438576    
  0.994853973       2.40179110     -0.517000020       528.384949      -1.32438576    
  0.718334973       1.73421395     -0.606999993       528.384949      -1.32438576    
  0.718334973       1.73421395     -0.606999993       714.469971      -1.37883306    
  0.522363007       1.26109600     -0.606999993       714.469971      -1.37883306    
  0.266297996       1.33877206     -0.606999993       714.469971      -1.37883306    
  0.366203994       1.84103203     -0.606999993       714.469971      -1.37883306    
  0.718334973       1.73421395     -0.606999993       524.557312      -1.32259464    
  0.994853973       2.40179110     -0.517000020       524.557312      -1.32259464    
   1.44430494       2.16155505     -0.517000020       524.557312      -1.32259464    
   1.04286098       1.56075203     -0.606999993       524.557312      -1.32259464    
   1.04286098       1.56075203     -0.606999993       713.315918      -1.37853551    
  0.758352995       1.13495600     -0.606999993       713.315918      -1.37853551    
  0.522363007       1.26109600     -0.606999993       713.315918      -1.37853551    
  0.718334973       1.73421395     -0.606999993       713.315918      -1.37853551    
   1.04286098       1.56075203     -0.606999993       527.469482      -1.32395756    
   1.44430494       2.16155505     -0.517000020       527.469482      -1.32395756    
   1.83825099       1.83825099     -0.517000020       527.469482      -1.32395756    
   1.32730997       1.32730997     -0.606999993       527.469482      -1.32395756    
   1.32730997       1.32730997     -0.606999993       715.693420      -1.37916601    
  0.965201020      0.965201020     -0.606999993       715.693420      -1.37916601    
  0.758352995       1.13495600     -0.606999993       715.693420      -1.37916601    
   1.04286098       1.56075203     -0.606999993       715.693420      -1.37916601    
   1.32730997       1.32730997     -0.606999993       534.429810      -1.32713223    
   1.83825099       1.83825099     -0.517000020       534.429810      -1.32713223    
   2.16155505       1.44430494     -0.517000020       534.429810      -1.32713223    
   1.56075203       1.04286098     -0.606999993       534.429810      -1.32713223    
   1.56075203       1.04286098     -0.606999993       720.128296      -1.38031733    
   1.13495600      0.758352995     -0.606999993       720.128296      -1.38031733    
  0.965201020      0.965201020     -0.606999993       720.128296      -1.38031733    
   1.32730997       1.32730997     -0.606999993       720.128296      -1.38031733    
   1.56075203       1.04286098     -0.606999993       537.745850      -1.32855451    
   2.16155505       1.44430494     -0.517000020       537.745850      -1.32855451    
   2.40179110      0.994853973     -0.517000020       537.745850      -1.32855451    
   1.73421395      0.718334973     -0.606999993       537.745850      -1.32855451    
   1.73421395      0.718334973     -0.606999993       722.781860      -1.38097954    
   1.26109600      0.522363007     -0.606999993       722.781860      -1.38097954    
   1.13495600      0.758352995     -0.606999993       722.781860      -1.38097954    
   1.56075203       1.04286098     -0.606999993       722.781860      -1.38097954    
   1.73421395      0.718334973     -0.606999993       534.096558      -1.32678199    
   2.40179110      0.994853973     -0.517000020       534.096558      -1.32678199    
   2.54972792      0.507171988     -0.517000020       534.096558      -1.32678199    
   1.84103203      0.366203994     -0.606999993       534.096558      -1.32678199    
   1.84103203      0.366203994     -0.606999993       722.040100      -1.38073409    
   1.33877206      0.266297996     -0.606999993       722.040100      -1.38073409    
   1.26109600      0.522363007     -0.606999993       722.040100      -1.38073409    
   1.73421395      0.718334973     -0.606999993       722.040100      -1.38073409    
   1.84103203      0.366203994     -0.606999993       529.001831      -1.32428813    
   2.54972792      0.507171988     -0.517000020       529.001831      -1.32428813    
   2.59967995       0.00000000     -0.517000020       529.001831      -1.32428813    
   1.87709999       0.00000000     -0.606999993       529.001831      -1.32428813    
   1.87709999       0.00000000     -0.606999993       720.109741      -1.38015211    
   1.36500001       0.00000000     -0.606999993       720.109741      -1.38015211    
   1.33877206      0.266297996     -0.606999993       720.109741      -1.38015211    
   1.84103203      0.366203994     -0.606999993       720.109741      -1.38015211    
   1.87709999       0.00000000     -0.606999993       528.554260      -1.32392895    
   2.59967995       0.00000000     -0.517000020       528.554260      -1.32392895    
   2.54972792     -0.507171988     -0.517000020       528.554260      -1.32392895    
   1.84103203     -0.366203994     -0.606999993       528.554260      -1.32392895    
   1.84103203     -0.366203994     -0.606999993       719.667053      -1.37994552    
   1.33877206     -0.266297996     -0.606999993       719.667053      -1.37994552    
   1.36500001       0.00000000     -0.606999993       719.667053      -1.37994552    
   1.87709999       0.00000000     -0.606999993       719.667053      -1.37994552    
   1.84103203     -0.366203994     -0.606999993       531.748657      -1.32525742    
   2.54972792     -0.507171988     -0.517000020       531.748657      -1.32525742    
   2.40179110     -0.994853973     -0.517000020       531.748657      -1.32525742    
   1.73421395     -0.718334973     -0.606999993       531.748657      -1.32525742    
   1.73421395     -0.718334973     -0.606999993       720.151733      -1.37997162    
   1.26109600     -0.522363007     -0.606999993       720.151733      -1.37997162    
   1.33877206     -0.266297996     -0.606999993       720.151733      -1.37997162    
   1.84103203     -0.366203994     -0.606999993       720.151733      -1.37997162    
   1.73421395     -0.718334973     -0.606999993       532.013855      -1.32521796    
   2.40179110     -0.994853973     -0.517000020       532.013855      -1.32521796    
   2.16155505      -1.44430494     -0.517000020       532.013855      -1.32521796    
   1.56075203      -1.04286098     -0.606999993       532.013855      -1.32521796    
   1.56075203      -1.04286098     -0.606999993       718.585754      -1.37945175    
   1.13495600     -0.758352995     -0.606999993       718.585754      -1.37945175    
   1.26109600     -0.522363007     -0.606999993       718.585754      -1.37945175    