 VARIABLES="X" "Y" "Z" "abs(p) (Pa)" "angle(p) (rad)"
ZONE N=   2709,E =    2358, F=FEPOINT, ET=QUADRILATERAL
   0.00000000      -5.48999977     -0.157000005       29.8971329      -1.28199875    
   0.00000000      -4.76741982     -0.246999994       29.8971329      -1.28199875    
  0.930077016      -4.67581606     -0.246999994       29.8971329      -1.28199875    
   1.07104599      -5.38451099     -0.157000005       29.8971329      -1.28199875    
  -1.07104599      -5.38451099     -0.157000005       29.8952827      -1.28911400    
 -0.930077016      -4.67581606     -0.246999994       29.8952827      -1.28911400    
   0.00000000      -4.76741982     -0.246999994       29.8952827      -1.28911400    
   0.00000000      -5.48999977     -0.157000005       29.8952827      -1.28911400    
  -2.10093188      -5.07209921     -0.157000005       31.2297115      -1.31086576    
  -1.82441294      -4.40452194     -0.246999994       31.2297115      -1.31086576    
 -0.930077016      -4.67581606     -0.246999994       31.2297115      -1.31086576    
  -1.07104599      -5.38451099     -0.157000005       31.2297115      -1.31086576    
  -3.05008101      -4.56476784     -0.157000005       29.8560104      -1.27941561    
  -2.64863706      -3.96396494     -0.246999994       29.8560104      -1.27941561    
  -1.82441294      -4.40452194     -0.246999994       29.8560104      -1.27941561    
  -2.10093188      -5.07209921     -0.157000005       29.8560104      -1.27941561    
  -3.88201594      -3.88201594     -0.157000005       29.9141102      -1.27134275    
  -3.37107491      -3.37107491     -0.246999994       29.9141102      -1.27134275    
  -2.64863706      -3.96396494     -0.246999994       29.9141102      -1.27134275    
  -3.05008101      -4.56476784     -0.157000005       29.9141102      -1.27134275    
  -4.56476784      -3.05008101     -0.157000005       31.2429581      -1.29558301    
  -3.96396494      -2.64863706     -0.246999994       31.2429581      -1.29558301    
  -3.37107491      -3.37107491     -0.246999994       31.2429581      -1.29558301    
  -3.88201594      -3.88201594     -0.157000005       31.2429581      -1.29558301    
  -5.07209921      -2.10093188     -0.157000005       29.7538719      -1.27572632    
  -4.40452194      -1.82441294     -0.246999994       29.7538719      -1.27572632    
  -3.96396494      -2.64863706     -0.246999994       29.7538719      -1.27572632    
  -4.56476784      -3.05008101     -0.157000005       29.7538719      -1.27572632    
  -5.38451099      -1.07104599     -0.157000005       29.6252041      -1.28045309    
  -4.67581606     -0.930077016     -0.246999994       29.6252041      -1.28045309    
  -4.40452194      -1.82441294     -0.246999994       29.6252041      -1.28045309    
  -5.07209921      -2.10093188     -0.157000005       29.6252041      -1.28045309    
  -5.48999977       0.00000000     -0.157000005       31.1755886      -1.31258082    
  -4.76741982       0.00000000     -0.246999994       31.1755886      -1.31258082    
  -4.67581606     -0.930077016     -0.246999994       31.1755886      -1.31258082    
  -5.38451099      -1.07104599     -0.157000005       31.1755886      -1.31258082    
  -5.38451099       1.07104599     -0.157000005       31.5103836      -1.32099497    
  -4.67581606      0.930077016     -0.246999994       31.5103836      -1.32099497    
  -4.76741982       0.00000000     -0.246999994       31.5103836      -1.32099497    
  -5.48999977       0.00000000     -0.157000005       31.5103836      -1.32099497    
  -5.07209921       2.10093188     -0.157000005       31.4685287      -1.32330382    
  -4.40452194       1.82441294     -0.246999994       31.4685287      -1.32330382    
  -4.67581606      0.930077016     -0.246999994       31.4685287      -1.32330382    
  -5.38451099       1.07104599     -0.157000005       31.4685287      -1.32330382    
  -4.56476784       3.05008101     -0.157000005       31.2196407      -1.31995630    
  -3.96396494       2.64863706     -0.246999994       31.2196407      -1.31995630    
  -4.40452194       1.82441294     -0.246999994       31.2196407      -1.31995630    
  -5.07209921       2.10093188     -0.157000005       31.2196407      -1.31995630    
  -3.88201594       3.88201594     -0.157000005       30.0424805      -1.29347610    
  -3.37107491       3.37107491     -0.246999994       30.0424805      -1.29347610    
  -3.96396494       2.64863706     -0.246999994       30.0424805      -1.29347610    
  -4.56476784       3.05008101     -0.157000005       30.0424805      -1.29347610    
  -3.05008101       4.56476784     -0.157000005       31.3185673      -1.30693209    
  -2.64863706       3.96396494     -0.246999994       31.3185673      -1.30693209    
  -3.37107491       3.37107491     -0.246999994       31.3185673      -1.30693209    
  -3.88201594       3.88201594     -0.157000005       31.3185673      -1.30693209    
  -2.10093188       5.07209921     -0.157000005       30.0925465      -1.28248477    
  -1.82441294       4.40452194     -0.246999994       30.0925465      -1.28248477    
  -2.64863706       3.96396494     -0.246999994       30.0925465      -1.28248477    
  -3.05008101       4.56476784     -0.157000005       30.0925465      -1.28248477    
  -1.07104599       5.38451099     -0.157000005       31.3053970      -1.30766582    
 -0.930077016       4.67581606     -0.246999994       31.3053970      -1.30766582    
  -1.82441294       4.40452194     -0.246999994       31.3053970      -1.30766582    
  -2.10093188       5.07209921     -0.157000005       31.3053970      -1.30766582    
   0.00000000       5.48999977     -0.157000005       30.0511093      -1.29404056    
   0.00000000       4.76741982     -0.246999994       30.0511093      -1.29404056    
 -0.930077016       4.67581606     -0.246999994       30.0511093      -1.29404056    
  -1.07104599       5.38451099     -0.157000005       30.0511093      -1.29404056    
   1.07104599       5.38451099     -0.157000005       31.1765327      -1.31525254    
  0.930077016       4.67581606     -0.246999994       31.1765327      -1.31525254    
   0.00000000       4.76741982     -0.246999994       31.1765327      -1.31525254    
   0.00000000       5.48999977     -0.157000005       31.1765327      -1.31525254    
   2.10093188       5.07209921     -0.157000005       30.0484486      -1.28842843    
   1.82441294       4.40452194     -0.246999994       30.0484486      -1.28842843    
  0.930077016       4.67581606     -0.246999994       30.0484486      -1.28842843    
   1.07104599       5.38451099     -0.157000005       30.0484486      -1.28842843    
   3.05008101       4.56476784     -0.157000005       29.8526306      -1.27539480    
   2.64863706       3.96396494     -0.246999994       29.8526306      -1.27539480    
   1.82441294       4.40452194     -0.246999994       29.8526306      -1.27539480    
   2.10093188       5.07209921     -0.157000005       29.8526306      -1.27539480    
   3.88201594       3.88201594     -0.157000005       31.3575516      -1.29767740    
   3.37107491       3.37107491     -0.246999994       31.3575516      -1.29767740    
   2.64863706       3.96396494     -0.246999994       31.3575516      -1.29767740    
   3.05008101       4.56476784     -0.157000005       31.3575516      -1.29767740    
   4.56476784       3.05008101     -0.157000005       30.8932743      -1.29332101    
   3.96396494       2.64863706     -0.246999994       30.8932743      -1.29332101    
   3.37107491       3.37107491     -0.246999994       30.8932743      -1.29332101    
   3.88201594       3.88201594     -0.157000005       30.8932743      -1.29332101    
   5.07209921       2.10093188     -0.157000005       31.1757565      -1.30552971    
   4.40452194       1.82441294     -0.246999994       31.1757565      -1.30552971    
   3.96396494       2.64863706     -0.246999994       31.1757565      -1.30552971    
   4.56476784       3.05008101     -0.157000005       31.1757565      -1.30552971    
   5.38451099       1.07104599     -0.157000005       29.7828293      -1.28183460    
   4.67581606      0.930077016     -0.246999994       29.7828293      -1.28183460    
   4.40452194       1.82441294     -0.246999994       29.7828293      -1.28183460    
   5.07209921       2.10093188     -0.157000005       29.7828293      -1.28183460    
   5.48999977       0.00000000     -0.157000005       29.6892166      -1.27845371    
   4.76741982       0.00000000     -0.246999994       29.6892166      -1.27845371    
   4.67581606      0.930077016     -0.246999994       29.6892166      -1.27845371    
   5.38451099       1.07104599     -0.157000005       29.6892166      -1.27845371    
   5.38451099      -1.07104599     -0.157000005       29.7089233      -1.27775645    
   4.67581606     -0.930077016     -0.246999994       29.7089233      -1.27775645    
   4.76741982       0.00000000     -0.246999994       29.7089233      -1.27775645    
   5.48999977       0.00000000     -0.157000005       29.7089233      -1.27775645    
   5.07209921      -2.10093188     -0.157000005       29.6171284      -1.27894890    
   4.40452194      -1.82441294     -0.246999994       29.6171284      -1.27894890    
   4.67581606     -0.930077016     -0.246999994       29.6171284      -1.27894890    
   5.38451099      -1.07104599     -0.157000005       29.6171284      -1.27894890    
   4.56476784      -3.05008101     -0.157000005       29.5074177      -1.28198123    
   3.96396494      -2.64863706     -0.246999994       29.5074177      -1.28198123    
   4.40452194      -1.82441294     -0.246999994       29.5074177      -1.28198123    
   5.07209921      -2.10093188     -0.157000005       29.5074177      -1.28198123    
   3.88201594      -3.88201594     -0.157000005       29.7113552      -1.28572905    
   3.37107491      -3.37107491     -0.246999994       29.7113552      -1.28572905    
   3.96396494      -2.64863706     -0.246999994       29.7113552      -1.28572905    
   4.56476784      -3.05008101     -0.157000005       29.7113552      -1.28572905    
   3.05008101      -4.56476784     -0.157000005       31.0732040      -1.30491400    
   2.64863706      -3.96396494     -0.246999994       31.0732040      -1.30491400    
   3.37107491      -3.37107491     -0.246999994       31.0732040      -1.30491400    
   3.88201594      -3.88201594     -0.157000005       31.0732040      -1.30491400    
   2.10093188      -5.07209921     -0.157000005       29.9001961      -1.27766764    
   1.82441294      -4.40452194     -0.246999994       29.9001961      -1.27766764    
   2.64863706      -3.96396494     -0.246999994       29.9001961      -1.27766764    
   3.05008101      -4.56476784     -0.157000005       29.9001961      -1.27766764    
   1.07104599      -5.38451099     -0.157000005       30.0078754      -1.27693224    
  0.930077016      -4.67581606     -0.246999994       30.0078754      -1.27693224    
   1.82441294      -4.40452194     -0.246999994       30.0078754      -1.27693224    
   2.10093188      -5.07209921     -0.157000005       30.0078754      -1.27693224    
   0.00000000      -1.87709999     -0.606999993       1011.65570      -1.56971610    
   0.00000000      -1.36500001     -0.606999993       1011.65570      -1.56971610    
  0.266297996      -1.33877206     -0.606999993       1011.65570      -1.56971610    
  0.366203994      -1.84103203     -0.606999993       1011.65570      -1.56971610    
   0.00000000      -1.87709999     -0.606999993       550.603882      -1.56936932    
   0.00000000      -2.59967995     -0.517000020       550.603882      -1.56936932    
 -0.507171988      -2.54972792     -0.517000020       550.603882      -1.56936932    
 -0.366203994      -1.84103203     -0.606999993       550.603882      -1.56936932    
 -0.366203994      -1.84103203     -0.606999993       1012.41583      -1.56973588    
 -0.266297996      -1.33877206     -0.606999993       1012.41583      -1.56973588    
   0.00000000      -1.36500001     -0.606999993       1012.41583      -1.56973588    
   0.00000000      -1.87709999     -0.606999993       1012.41583      -1.56973588    
 -0.366203994      -1.84103203     -0.606999993       538.322021      -1.56933618    
 -0.507171988      -2.54972792     -0.517000020       538.322021      -1.56933618    
 -0.994853973      -2.40179110     -0.517000020       538.322021      -1.56933618    
 -0.718334973      -1.73421395     -0.606999993       538.322021      -1.56933618    
 -0.718334973      -1.73421395     -0.606999993       1005.81970      -1.56974316    
 -0.522363007      -1.26109600     -0.606999993       1005.81970      -1.56974316    
 -0.266297996      -1.33877206     -0.606999993       1005.81970      -1.56974316    
 -0.366203994      -1.84103203     -0.606999993       1005.81970      -1.56974316    
 -0.718334973      -1.73421395     -0.606999993       527.129333      -1.56929839    
 -0.994853973      -2.40179110     -0.517000020       527.129333      -1.56929839    
  -1.44430494      -2.16155505     -0.517000020       527.129333      -1.56929839    
  -1.04286098      -1.56075203     -0.606999993       527.129333      -1.56929839    
  -1.04286098      -1.56075203     -0.606999993       998.871765      -1.56974661    
 -0.758352995      -1.13495600     -0.606999993       998.871765      -1.56974661    
 -0.522363007      -1.26109600     -0.606999993       998.871765      -1.56974661    
 -0.718334973      -1.73421395     -0.606999993       998.871765      -1.56974661    
  -1.04286098      -1.56075203     -0.606999993       527.466614      -1.56930065    
  -1.44430494      -2.16155505     -0.517000020       527.466614      -1.56930065    
  -1.83825099      -1.83825099     -0.517000020       527.466614      -1.56930065    
  -1.32730997      -1.32730997     -0.606999993       527.466614      -1.56930065    
  -1.32730997      -1.32730997     -0.606999993       997.789490      -1.56975222    
 -0.965201020     -0.965201020     -0.606999993       997.789490      -1.56975222    
 -0.758352995      -1.13495600     -0.606999993       997.789490      -1.56975222    
  -1.04286098      -1.56075203     -0.606999993       997.789490      -1.56975222    
  -1.32730997      -1.32730997     -0.606999993       537.463257      -1.56933701    
  -1.83825099      -1.83825099     -0.517000020       537.463257      -1.56933701    
  -2.16155505      -1.44430494     -0.517000020       537.463257      -1.56933701    
  -1.56075203      -1.04286098     -0.606999993       537.463257      -1.56933701    
  -1.56075203      -1.04286098     -0.606999993       1002.01544      -1.56975961    
  -1.13495600     -0.758352995     -0.606999993       1002.01544      -1.56975961    
 -0.965201020     -0.965201020     -0.606999993       1002.01544      -1.56975961    
  -1.32730997      -1.32730997     -0.606999993       1002.01544      -1.56975961    
  -1.56075203      -1.04286098     -0.606999993       545.231262      -1.56936765    
  -2.16155505      -1.44430494     -0.517000020       545.231262      -1.56936765    
  -2.40179110     -0.994853973     -0.517000020       545.231262      -1.56936765    
  -1.73421395     -0.718334973     -0.606999993       545.231262      -1.56936765    
  -1.73421395     -0.718334973     -0.606999993       1005.56165      -1.56976211    
  -1.26109600     -0.522363007     -0.606999993       1005.56165      -1.56976211    
  -1.13495600     -0.758352995     -0.606999993       1005.56165      -1.56976211    
  -1.56075203      -1.04286098     -0.606999993       1005.56165      -1.56976211    
  -1.73421395     -0.718334973     -0.606999993       541.935669      -1.56936371    
  -2.40179110     -0.994853973     -0.517000020       541.935669      -1.56936371    
  -2.54972792     -0.507171988     -0.517000020       541.935669      -1.56936371    
  -1.84103203     -0.366203994     -0.606999993       541.935669      -1.56936371    
  -1.84103203     -0.366203994     -0.606999993       1004.04791      -1.56975532    
  -1.33877206     -0.266297996     -0.606999993       1004.04791      -1.56975532    
  -1.26109600     -0.522363007     -0.606999993       1004.04791      -1.56975532    
  -1.73421395     -0.718334973     -0.606999993       1004.04791      -1.56975532    
  -1.84103203     -0.366203994     -0.606999993       534.053406      -1.56934285    
  -2.54972792     -0.507171988     -0.517000020       534.053406      -1.56934285    
  -2.59967995       0.00000000     -0.517000020       534.053406      -1.56934285    
  -1.87709999       0.00000000     -0.606999993       534.053406      -1.56934285    
  -1.87709999       0.00000000     -0.606999993       1000.29059      -1.56974351    
  -1.36500001       0.00000000     -0.606999993       1000.29059      -1.56974351    
  -1.33877206     -0.266297996     -0.606999993       1000.29059      -1.56974351    
  -1.84103203     -0.366203994     -0.606999993       1000.29059      -1.56974351    
  -1.87709999       0.00000000     -0.606999993       533.918518      -1.56934452    
  -2.59967995       0.00000000     -0.517000020       533.918518      -1.56934452    
  -2.54972792      0.507171988     -0.517000020       533.918518      -1.56934452    
  -1.84103203      0.366203994     -0.606999993       533.918518      -1.56934452    
  -1.84103203      0.366203994     -0.606999993       1000.28180      -1.56973135    
  -1.33877206      0.266297996     -0.606999993       1000.28180      -1.56973135    
  -1.36500001       0.00000000     -0.606999993       1000.28180      -1.56973135    
  -1.87709999       0.00000000     -0.606999993       1000.28180      -1.56973135    
  -1.84103203      0.366203994     -0.606999993       543.496033      -1.56937289    
  -2.54972792      0.507171988     -0.517000020       543.496033      -1.56937289    
  -2.40179110      0.994853973     -0.517000020       543.496033      -1.56937289    
  -1.73421395      0.718334973     -0.606999993       543.496033      -1.56937289    
  -1.73421395      0.718334973     -0.606999993       1005.14703      -1.56972396    
  -1.26109600      0.522363007     -0.606999993       1005.14703      -1.56972396    
  -1.33877206      0.266297996     -0.606999993       1005.14703      -1.56972396    
  -1.84103203      0.366203994     -0.606999993       1005.14703      -1.56972396    
  -1.73421395      0.718334973     -0.606999993       551.559143      -1.56938744    
  -2.40179110      0.994853973     -0.517000020       551.559143      -1.56938744    
  -2.16155505       1.44430494     -0.517000020       551.559143      -1.56938744    
  -1.56075203       1.04286098     -0.606999993       551.559143      -1.56938744    
  -1.56075203       1.04286098     -0.606999993       1009.70636      -1.56971574    
  -1.13495600      0.758352995     -0.606999993       1009.70636      -1.56971574    
  -1.26109600      0.522363007     -0.606999993       1009.70636      -1.56971574    
  -1.73421395      0.718334973     -0.606999993       1009.70636      -1.56971574    
  -1.56075203       1.04286098     -0.606999993       547.699463      -1.56935811    
  -2.16155505       1.44430494     -0.517000020       547.699463      -1.56935811    
  -1.83825099       1.83825099     -0.517000020       547.699463      -1.56935811    
  -1.32730997       1.32730997     -0.606999993       547.699463      -1.56935811    
  -1.32730997       1.32730997     -0.606999993       1009.41541      -1.56970334    
 -0.965201020      0.965201020     -0.606999993       1009.41541      -1.56970334    
  -1.13495600      0.758352995     -0.606999993       1009.41541      -1.56970334    
  -1.56075203       1.04286098     -0.606999993       1009.41541      -1.56970334    
  -1.32730997       1.32730997     -0.606999993       537.537598      -1.56931043    
  -1.83825099       1.83825099     -0.517000020       537.537598      -1.56931043    
  -1.44430494       2.16155505     -0.517000020       537.537598      -1.56931043    
  -1.04286098       1.56075203     -0.606999993       537.537598      -1.56931043    
  -1.04286098       1.56075203     -0.606999993       1006.62750      -1.56969368    
 -0.758352995       1.13495600     -0.606999993       1006.62750      -1.56969368    
 -0.965201020      0.965201020     -0.606999993       1006.62750      -1.56969368    
  -1.32730997       1.32730997     -0.606999993       1006.62750      -1.56969368    
  -1.04286098       1.56075203     -0.606999993       534.673950      -1.56929541    
  -1.44430494       2.16155505     -0.517000020       534.673950      -1.56929541    
 -0.994853973       2.40179110     -0.517000020       534.673950      -1.56929541    
 -0.718334973       1.73421395     -0.606999993       534.673950      -1.56929541    
 -0.718334973       1.73421395     -0.606999993       1007.46478      -1.56969571    
 -0.522363007       1.26109600     -0.606999993       1007.46478      -1.56969571    
 -0.758352995       1.13495600     -0.606999993       1007.46478      -1.56969571    
  -1.04286098       1.56075203     -0.606999993       1007.46478      -1.56969571    
 -0.718334973       1.73421395     -0.606999993       543.625366      -1.56933355    
 -0.994853973       2.40179110     -0.517000020       543.625366      -1.56933355    
 -0.507171988       2.54972792     -0.517000020       543.625366      -1.56933355    
 -0.366203994       1.84103203     -0.606999993       543.625366      -1.56933355    
 -0.366203994       1.84103203     -0.606999993       1013.83868      -1.56971252    
 -0.266297996       1.33877206     -0.606999993       1013.83868      -1.56971252    
 -0.522363007       1.26109600     -0.606999993       1013.83868      -1.56971252    
 -0.718334973       1.73421395     -0.606999993       1013.83868      -1.56971252    
 -0.366203994       1.84103203     -0.606999993       554.991028      -1.56938207    
 -0.507171988       2.54972792     -0.517000020       554.991028      -1.56938207    
   0.00000000       2.59967995     -0.517000020       554.991028      -1.56938207    
   0.00000000       1.87709999     -0.606999993       554.991028      -1.56938207    
   0.00000000       1.87709999     -0.606999993       1020.56018      -1.56973529    
   0.00000000       1.36500001     -0.606999993       1020.56018      -1.56973529    
 -0.266297996       1.33877206     -0.606999993       1020.56018      -1.56973529    
 -0.366203994       1.84103203     -0.606999993       1020.56018      -1.56973529    
   0.00000000       1.87709999     -0.606999993       555.250610      -1.56939197    
   0.00000000       2.59967995     -0.517000020       555.250610      -1.56939197    
  0.507171988       2.54972792     -0.517000020       555.250610      -1.56939197    
  0.366203994       1.84103203     -0.606999993       555.250610      -1.56939197    
  0.366203994       1.84103203     -0.606999993       1021.13452      -1.56975102    
  0.266297996       1.33877206     -0.606999993       1021.13452      -1.56975102    
   0.00000000       1.36500001     -0.606999993       1021.13452      -1.56975102    
   0.00000000       1.87709999     -0.606999993       1021.13452      -1.56975102    
  0.366203994       1.84103203     -0.606999993       544.346802      -1.56936181    
  0.507171988       2.54972792     -0.517000020       544.346802      -1.56936181    
  0.994853973       2.40179110     -0.517000020       544.346802      -1.56936181    
  0.718334973       1.73421395     -0.606999993       544.346802      -1.56936181    
  0.718334973       1.73421395     -0.606999993       1015.48035      -1.56975877    
  0.522363007       1.26109600     -0.606999993       1015.48035      -1.56975877    
  0.266297996       1.33877206     -0.606999993       1015.48035      -1.56975877    
  0.366203994       1.84103203     -0.606999993       1015.48035      -1.56975877    
  0.718334973       1.73421395     -0.606999993       535.799866      -1.56933582    
  0.994853973       2.40179110     -0.517000020       535.799866      -1.56933582    
   1.44430494       2.16155505     -0.517000020       535.799866      -1.56933582    
   1.04286098       1.56075203     -0.606999993       535.799866      -1.56933582    
   1.04286098       1.56075203     -0.606999993       1009.97528      -1.56976557    
  0.758352995       1.13495600     -0.606999993       1009.97528      -1.56976557    
  0.522363007       1.26109600     -0.606999993       1009.97528      -1.56976557    
  0.718334973       1.73421395     -0.606999993       1009.97528      -1.56976557    
   1.04286098       1.56075203     -0.606999993       538.919495      -1.56935167    
   1.44430494       2.16155505     -0.517000020       538.919495      -1.56935167    
   1.83825099       1.83825099     -0.517000020       538.919495      -1.56935167    
   1.32730997       1.32730997     -0.606999993       538.919495      -1.56935167    
   1.32730997       1.32730997     -0.606999993       1009.59326      -1.56977272    
  0.965201020      0.965201020     -0.606999993       1009.59326      -1.56977272    
  0.758352995       1.13495600     -0.606999993       1009.59326      -1.56977272    
   1.04286098       1.56075203     -0.606999993       1009.59326      -1.56977272    
   1.32730997       1.32730997     -0.606999993       549.133850      -1.56938946    
   1.83825099       1.83825099     -0.517000020       549.133850      -1.56938946    
   2.16155505       1.44430494     -0.517000020       549.133850      -1.56938946    
   1.56075203       1.04286098     -0.606999993       549.133850      -1.56938946    
   1.56075203       1.04286098     -0.606999993       1012.30621      -1.56977785    
   1.13495600      0.758352995     -0.606999993       1012.30621      -1.56977785    
  0.965201020      0.965201020     -0.606999993       1012.30621      -1.56977785    
   1.32730997       1.32730997     -0.606999993       1012.30621      -1.56977785    
   1.56075203       1.04286098     -0.606999993       552.768494      -1.56939912    
   2.16155505       1.44430494     -0.517000020       552.768494      -1.56939912    
   2.40179110      0.994853973     -0.517000020       552.768494      -1.56939912    
   1.73421395      0.718334973     -0.606999993       552.768494      -1.56939912    
   1.73421395      0.718334973     -0.606999993       1011.81708      -1.56977105    
   1.26109600      0.522363007     -0.606999993       1011.81708      -1.56977105    
   1.13495600      0.758352995     -0.606999993       1011.81708      -1.56977105    
   1.56075203       1.04286098     -0.606999993       1011.81708      -1.56977105    
   1.73421395      0.718334973     -0.606999993       544.187988      -1.56936014    
   2.40179110      0.994853973     -0.517000020       544.187988      -1.56936014    
   2.54972792      0.507171988     -0.517000020       544.187988      -1.56936014    
   1.84103203      0.366203994     -0.606999993       544.187988      -1.56936014    
   1.84103203      0.366203994     -0.606999993       1006.04846      -1.56975245    
   1.33877206      0.266297996     -0.606999993       1006.04846      -1.56975245    
   1.26109600      0.522363007     -0.606999993       1006.04846      -1.56975245    
   1.73421395      0.718334973     -0.606999993       1006.04846      -1.56975245    
   1.84103203      0.366203994     -0.606999993       533.939392      -1.56930637    
   2.54972792      0.507171988     -0.517000020       533.939392      -1.56930637    
   2.59967995       0.00000000     -0.517000020       533.939392      -1.56930637    
   1.87709999       0.00000000     -0.606999993       533.939392      -1.56930637    
   1.87709999       0.00000000     -0.606999993       999.803772      -1.56972575    
   1.36500001       0.00000000     -0.606999993       999.803772      -1.56972575    
   1.33877206      0.266297996     -0.606999993       999.803772      -1.56972575    
   1.84103203      0.366203994     -0.606999993       999.803772      -1.56972575    
   1.87709999       0.00000000     -0.606999993       533.418274      -1.56928432    
   2.59967995       0.00000000     -0.517000020       533.418274      -1.56928432    
   2.54972792     -0.507171988     -0.517000020       533.418274      -1.56928432    
   1.84103203     -0.366203994     -0.606999993       533.418274      -1.56928432    
   1.84103203     -0.366203994     -0.606999993       998.437927      -1.56970191    
   1.33877206     -0.266297996     -0.606999993       998.437927      -1.56970191    
   1.36500001       0.00000000     -0.606999993       998.437927      -1.56970191    
   1.87709999       0.00000000     -0.606999993       998.437927      -1.56970191    
   1.84103203     -0.366203994     -0.606999993       540.744751      -1.56929255    
   2.54972792     -0.507171988     -0.517000020       540.744751      -1.56929255    
   2.40179110     -0.994853973     -0.517000020       540.744751      -1.56929255    
   1.73421395     -0.718334973     -0.606999993       540.744751      -1.56929255    
   1.73421395     -0.718334973     -0.606999993       1001.00946      -1.56968415    
   1.26109600     -0.522363007     -0.606999993       1001.00946      -1.56968415    
   1.33877206     -0.266297996     -0.606999993       1001.00946      -1.56968415    
   1.84103203     -0.366203994     -0.606999993       1001.00946      -1.56968415    
   1.73421395     -0.718334973     -0.606999993       543.608948      -1.56929052    
   2.40179110     -0.994853973     -0.517000020       543.608948      -1.56929052    
   2.16155505      -1.44430494     -0.517000020       543.608948      -1.56929052    
   1.56075203      -1.04286098     -0.606999993       543.608948      -1.56929052    
   1.56075203      -1.04286098     -0.606999993       1001.76288      -1.56966925    
   1.13495600     -0.758352995     -0.606999993       1001.76288      -1.56966925    
   1.26109600     -0.522363007     -0.606999993       1001.76288      -1.56966925    