 VARIABLES="X" "Y" "Z" "abs(p) (Pa)" "angle(p) (rad)"
ZONE N=   2709,E =    2358, F=FEPOINT, ET=QUADRILATERAL
   0.00000000      -5.48999977     -0.157000005       2521.18726      -1.51382840    
   0.00000000      -4.76741982     -0.246999994       2521.18726      -1.51382840    
  0.930077016      -4.67581606     -0.246999994       2521.18726      -1.51382840    
   1.07104599      -5.38451099     -0.157000005       2521.18726      -1.51382840    
  -1.07104599      -5.38451099     -0.157000005       2520.51172      -1.51537216    
 -0.930077016      -4.67581606     -0.246999994       2520.51172      -1.51537216    
   0.00000000      -4.76741982     -0.246999994       2520.51172      -1.51537216    
   0.00000000      -5.48999977     -0.157000005       2520.51172      -1.51537216    
  -2.10093188      -5.07209921     -0.157000005       2436.01465      -1.51061964    
  -1.82441294      -4.40452194     -0.246999994       2436.01465      -1.51061964    
 -0.930077016      -4.67581606     -0.246999994       2436.01465      -1.51061964    
  -1.07104599      -5.38451099     -0.157000005       2436.01465      -1.51061964    
  -3.05008101      -4.56476784     -0.157000005       2232.88013      -1.51460087    
  -2.64863706      -3.96396494     -0.246999994       2232.88013      -1.51460087    
  -1.82441294      -4.40452194     -0.246999994       2232.88013      -1.51460087    
  -2.10093188      -5.07209921     -0.157000005       2232.88013      -1.51460087    
  -3.88201594      -3.88201594     -0.157000005       1955.81982      -1.51588929    
  -3.37107491      -3.37107491     -0.246999994       1955.81982      -1.51588929    
  -2.64863706      -3.96396494     -0.246999994       1955.81982      -1.51588929    
  -3.05008101      -4.56476784     -0.157000005       1955.81982      -1.51588929    
  -4.56476784      -3.05008101     -0.157000005       1618.91199      -1.50929391    
  -3.96396494      -2.64863706     -0.246999994       1618.91199      -1.50929391    
  -3.37107491      -3.37107491     -0.246999994       1618.91199      -1.50929391    
  -3.88201594      -3.88201594     -0.157000005       1618.91199      -1.50929391    
  -5.07209921      -2.10093188     -0.157000005       1192.98975      -1.51723576    
  -4.40452194      -1.82441294     -0.246999994       1192.98975      -1.51723576    
  -3.96396494      -2.64863706     -0.246999994       1192.98975      -1.51723576    
  -4.56476784      -3.05008101     -0.157000005       1192.98975      -1.51723576    
  -5.38451099      -1.07104599     -0.157000005       732.887634      -1.51510048    
  -4.67581606     -0.930077016     -0.246999994       732.887634      -1.51510048    
  -4.40452194      -1.82441294     -0.246999994       732.887634      -1.51510048    
  -5.07209921      -2.10093188     -0.157000005       732.887634      -1.51510048    
  -5.48999977       0.00000000     -0.157000005       247.676376      -1.51391351    
  -4.76741982       0.00000000     -0.246999994       247.676376      -1.51391351    
  -4.67581606     -0.930077016     -0.246999994       247.676376      -1.51391351    
  -5.38451099      -1.07104599     -0.157000005       247.676376      -1.51391351    
  -5.38451099       1.07104599     -0.157000005       251.986099       1.63416290    
  -4.67581606      0.930077016     -0.246999994       251.986099       1.63416290    
  -4.76741982       0.00000000     -0.246999994       251.986099       1.63416290    
  -5.48999977       0.00000000     -0.157000005       251.986099       1.63416290    
  -5.07209921       2.10093188     -0.157000005       742.153320       1.63101053    
  -4.40452194       1.82441294     -0.246999994       742.153320       1.63101053    
  -4.67581606      0.930077016     -0.246999994       742.153320       1.63101053    
  -5.38451099       1.07104599     -0.157000005       742.153320       1.63101053    
  -4.56476784       3.05008101     -0.157000005       1201.39746       1.63168180    
  -3.96396494       2.64863706     -0.246999994       1201.39746       1.63168180    
  -4.40452194       1.82441294     -0.246999994       1201.39746       1.63168180    
  -5.07209921       2.10093188     -0.157000005       1201.39746       1.63168180    
  -3.88201594       3.88201594     -0.157000005       1608.92615       1.62648785    
  -3.37107491       3.37107491     -0.246999994       1608.92615       1.62648785    
  -3.96396494       2.64863706     -0.246999994       1608.92615       1.62648785    
  -4.56476784       3.05008101     -0.157000005       1608.92615       1.62648785    
  -3.05008101       4.56476784     -0.157000005       1968.59009       1.63159668    
  -2.64863706       3.96396494     -0.246999994       1968.59009       1.63159668    
  -3.37107491       3.37107491     -0.246999994       1968.59009       1.63159668    
  -3.88201594       3.88201594     -0.157000005       1968.59009       1.63159668    
  -2.10093188       5.07209921     -0.157000005       2235.10229       1.62620473    
  -1.82441294       4.40452194     -0.246999994       2235.10229       1.62620473    
  -2.64863706       3.96396494     -0.246999994       2235.10229       1.62620473    
  -3.05008101       4.56476784     -0.157000005       2235.10229       1.62620473    
  -1.07104599       5.38451099     -0.157000005       2436.72192       1.63142514    
 -0.930077016       4.67581606     -0.246999994       2436.72192       1.63142514    
  -1.82441294       4.40452194     -0.246999994       2436.72192       1.63142514    
  -2.10093188       5.07209921     -0.157000005       2436.72192       1.63142514    
   0.00000000       5.48999977     -0.157000005       2520.52393       1.62624943    
   0.00000000       4.76741982     -0.246999994       2520.52393       1.62624943    
 -0.930077016       4.67581606     -0.246999994       2520.52393       1.62624943    
  -1.07104599       5.38451099     -0.157000005       2520.52393       1.62624943    
   1.07104599       5.38451099     -0.157000005       2533.80981       1.63084412    
  0.930077016       4.67581606     -0.246999994       2533.80981       1.63084412    
   0.00000000       4.76741982     -0.246999994       2533.80981       1.63084412    
   0.00000000       5.48999977     -0.157000005       2533.80981       1.63084412    
   2.10093188       5.07209921     -0.157000005       2423.04712       1.62718308    
   1.82441294       4.40452194     -0.246999994       2423.04712       1.62718308    
  0.930077016       4.67581606     -0.246999994       2423.04712       1.62718308    
   1.07104599       5.38451099     -0.157000005       2423.04712       1.62718308    
   3.05008101       4.56476784     -0.157000005       2233.20117       1.62619603    
   2.64863706       3.96396494     -0.246999994       2233.20117       1.62619603    
   1.82441294       4.40452194     -0.246999994       2233.20117       1.62619603    
   2.10093188       5.07209921     -0.157000005       2233.20117       1.62619603    
   3.88201594       3.88201594     -0.157000005       1965.73901       1.63012433    
   3.37107491       3.37107491     -0.246999994       1965.73901       1.63012433    
   2.64863706       3.96396494     -0.246999994       1965.73901       1.63012433    
   3.05008101       4.56476784     -0.157000005       1965.73901       1.63012433    
   4.56476784       3.05008101     -0.157000005       1614.62415       1.62998438    
   3.96396494       2.64863706     -0.246999994       1614.62415       1.62998438    
   3.37107491       3.37107491     -0.246999994       1614.62415       1.62998438    
   3.88201594       3.88201594     -0.157000005       1614.62415       1.62998438    
   5.07209921       2.10093188     -0.157000005       1198.01160       1.62812364    
   4.40452194       1.82441294     -0.246999994       1198.01160       1.62812364    
   3.96396494       2.64863706     -0.246999994       1198.01160       1.62812364    
   4.56476784       3.05008101     -0.157000005       1198.01160       1.62812364    
   5.38451099       1.07104599     -0.157000005       733.431396       1.62750959    
   4.67581606      0.930077016     -0.246999994       733.431396       1.62750959    
   4.40452194       1.82441294     -0.246999994       733.431396       1.62750959    
   5.07209921       2.10093188     -0.157000005       733.431396       1.62750959    
   5.48999977       0.00000000     -0.157000005       246.822174       1.61948204    
   4.76741982       0.00000000     -0.246999994       246.822174       1.61948204    
   4.67581606      0.930077016     -0.246999994       246.822174       1.61948204    
   5.38451099       1.07104599     -0.157000005       246.822174       1.61948204    
   5.38451099      -1.07104599     -0.157000005       250.513123      -1.51417649    
   4.67581606     -0.930077016     -0.246999994       250.513123      -1.51417649    
   4.76741982       0.00000000     -0.246999994       250.513123      -1.51417649    
   5.48999977       0.00000000     -0.157000005       250.513123      -1.51417649    
   5.07209921      -2.10093188     -0.157000005       737.201233      -1.51298392    
   4.40452194      -1.82441294     -0.246999994       737.201233      -1.51298392    
   4.67581606     -0.930077016     -0.246999994       737.201233      -1.51298392    
   5.38451099      -1.07104599     -0.157000005       737.201233      -1.51298392    
   4.56476784      -3.05008101     -0.157000005       1195.41821      -1.51312459    
   3.96396494      -2.64863706     -0.246999994       1195.41821      -1.51312459    
   4.40452194      -1.82441294     -0.246999994       1195.41821      -1.51312459    
   5.07209921      -2.10093188     -0.157000005       1195.41821      -1.51312459    
   3.88201594      -3.88201594     -0.157000005       1608.24890      -1.51530635    
   3.37107491      -3.37107491     -0.246999994       1608.24890      -1.51530635    
   3.96396494      -2.64863706     -0.246999994       1608.24890      -1.51530635    
   4.56476784      -3.05008101     -0.157000005       1608.24890      -1.51530635    
   3.05008101      -4.56476784     -0.157000005       1969.62671      -1.50982094    
   2.64863706      -3.96396494     -0.246999994       1969.62671      -1.50982094    
   3.37107491      -3.37107491     -0.246999994       1969.62671      -1.50982094    
   3.88201594      -3.88201594     -0.157000005       1969.62671      -1.50982094    
   2.10093188      -5.07209921     -0.157000005       2234.42944      -1.51471066    
   1.82441294      -4.40452194     -0.246999994       2234.42944      -1.51471066    
   2.64863706      -3.96396494     -0.246999994       2234.42944      -1.51471066    
   3.05008101      -4.56476784     -0.157000005       2234.42944      -1.51471066    
   1.07104599      -5.38451099     -0.157000005       2424.99341      -1.51437461    
  0.930077016      -4.67581606     -0.246999994       2424.99341      -1.51437461    
   1.82441294      -4.40452194     -0.246999994       2424.99341      -1.51437461    
   2.10093188      -5.07209921     -0.157000005       2424.99341      -1.51437461    
   0.00000000      -1.87709999     -0.606999993       4183.95264       1.57488453    
   0.00000000      -1.36500001     -0.606999993       4183.95264       1.57488453    
  0.266297996      -1.33877206     -0.606999993       4183.95264       1.57488453    
  0.366203994      -1.84103203     -0.606999993       4183.95264       1.57488453    
   0.00000000      -1.87709999     -0.606999993       5630.87061       1.57014501    
   0.00000000      -2.59967995     -0.517000020       5630.87061       1.57014501    
 -0.507171988      -2.54972792     -0.517000020       5630.87061       1.57014501    
 -0.366203994      -1.84103203     -0.606999993       5630.87061       1.57014501    
 -0.366203994      -1.84103203     -0.606999993       4183.13232       1.57488501    
 -0.266297996      -1.33877206     -0.606999993       4183.13232       1.57488501    
   0.00000000      -1.36500001     -0.606999993       4183.13232       1.57488501    
   0.00000000      -1.87709999     -0.606999993       4183.13232       1.57488501    
 -0.366203994      -1.84103203     -0.606999993       5415.64551       1.57015240    
 -0.507171988      -2.54972792     -0.517000020       5415.64551       1.57015240    
 -0.994853973      -2.40179110     -0.517000020       5415.64551       1.57015240    
 -0.718334973      -1.73421395     -0.606999993       5415.64551       1.57015240    
 -0.718334973      -1.73421395     -0.606999993       4020.00220       1.57493353    
 -0.522363007      -1.26109600     -0.606999993       4020.00220       1.57493353    
 -0.266297996      -1.33877206     -0.606999993       4020.00220       1.57493353    
 -0.366203994      -1.84103203     -0.606999993       4020.00220       1.57493353    
 -0.718334973      -1.73421395     -0.606999993       4994.45264       1.57015085    
 -0.994853973      -2.40179110     -0.517000020       4994.45264       1.57015085    
  -1.44430494      -2.16155505     -0.517000020       4994.45264       1.57015085    
  -1.04286098      -1.56075203     -0.606999993       4994.45264       1.57015085    
  -1.04286098      -1.56075203     -0.606999993       3702.82202       1.57498431    
 -0.758352995      -1.13495600     -0.606999993       3702.82202       1.57498431    
 -0.522363007      -1.26109600     -0.606999993       3702.82202       1.57498431    
 -0.718334973      -1.73421395     -0.606999993       3702.82202       1.57498431    
  -1.04286098      -1.56075203     -0.606999993       4381.91406       1.57015336    
  -1.44430494      -2.16155505     -0.517000020       4381.91406       1.57015336    
  -1.83825099      -1.83825099     -0.517000020       4381.91406       1.57015336    
  -1.32730997      -1.32730997     -0.606999993       4381.91406       1.57015336    
  -1.32730997      -1.32730997     -0.606999993       3245.73096       1.57500112    
 -0.965201020     -0.965201020     -0.606999993       3245.73096       1.57500112    
 -0.758352995      -1.13495600     -0.606999993       3245.73096       1.57500112    
  -1.04286098      -1.56075203     -0.606999993       3245.73096       1.57500112    
  -1.32730997      -1.32730997     -0.606999993       3598.39990       1.57018614    
  -1.83825099      -1.83825099     -0.517000020       3598.39990       1.57018614    
  -2.16155505      -1.44430494     -0.517000020       3598.39990       1.57018614    
  -1.56075203      -1.04286098     -0.606999993       3598.39990       1.57018614    
  -1.56075203      -1.04286098     -0.606999993       2665.86157       1.57495415    
  -1.13495600     -0.758352995     -0.606999993       2665.86157       1.57495415    
 -0.965201020     -0.965201020     -0.606999993       2665.86157       1.57495415    
  -1.32730997      -1.32730997     -0.606999993       2665.86157       1.57495415    
  -1.56075203      -1.04286098     -0.606999993       2673.59497       1.57024825    
  -2.16155505      -1.44430494     -0.517000020       2673.59497       1.57024825    
  -2.40179110     -0.994853973     -0.517000020       2673.59497       1.57024825    
  -1.73421395     -0.718334973     -0.606999993       2673.59497       1.57024825    
  -1.73421395     -0.718334973     -0.606999993       1983.30505       1.57484567    
  -1.26109600     -0.522363007     -0.606999993       1983.30505       1.57484567    
  -1.13495600     -0.758352995     -0.606999993       1983.30505       1.57484567    
  -1.56075203      -1.04286098     -0.606999993       1983.30505       1.57484567    
  -1.73421395     -0.718334973     -0.606999993       1644.73584       1.57030952    
  -2.40179110     -0.994853973     -0.517000020       1644.73584       1.57030952    
  -2.54972792     -0.507171988     -0.517000020       1644.73584       1.57030952    
  -1.84103203     -0.366203994     -0.606999993       1644.73584       1.57030952    
  -1.84103203     -0.366203994     -0.606999993       1220.99048       1.57468045    
  -1.33877206     -0.266297996     -0.606999993       1220.99048       1.57468045    
  -1.26109600     -0.522363007     -0.606999993       1220.99048       1.57468045    
  -1.73421395     -0.718334973     -0.606999993       1220.99048       1.57468045    
  -1.84103203     -0.366203994     -0.606999993       554.778076       1.57027602    
  -2.54972792     -0.507171988     -0.517000020       554.778076       1.57027602    
  -2.59967995       0.00000000     -0.517000020       554.778076       1.57027602    
  -1.87709999       0.00000000     -0.606999993       554.778076       1.57027602    
  -1.87709999       0.00000000     -0.606999993       408.124969       1.57422614    
  -1.36500001       0.00000000     -0.606999993       408.124969       1.57422614    
  -1.33877206     -0.266297996     -0.606999993       408.124969       1.57422614    
  -1.84103203     -0.366203994     -0.606999993       408.124969       1.57422614    
  -1.87709999       0.00000000     -0.606999993       554.174133      -1.57109761    
  -2.59967995       0.00000000     -0.517000020       554.174133      -1.57109761    
  -2.54972792      0.507171988     -0.517000020       554.174133      -1.57109761    
  -1.84103203      0.366203994     -0.606999993       554.174133      -1.57109761    
  -1.84103203      0.366203994     -0.606999993       422.068848      -1.56625092    
  -1.33877206      0.266297996     -0.606999993       422.068848      -1.56625092    
  -1.36500001       0.00000000     -0.606999993       422.068848      -1.56625092    
  -1.87709999       0.00000000     -0.606999993       422.068848      -1.56625092    
  -1.84103203      0.366203994     -0.606999993       1643.64319      -1.57121742    
  -2.54972792      0.507171988     -0.517000020       1643.64319      -1.57121742    
  -2.40179110      0.994853973     -0.517000020       1643.64319      -1.57121742    
  -1.73421395      0.718334973     -0.606999993       1643.64319      -1.57121742    
  -1.73421395      0.718334973     -0.606999993       1235.92432      -1.56658137    
  -1.26109600      0.522363007     -0.606999993       1235.92432      -1.56658137    
  -1.33877206      0.266297996     -0.606999993       1235.92432      -1.56658137    
  -1.84103203      0.366203994     -0.606999993       1235.92432      -1.56658137    
  -1.73421395      0.718334973     -0.606999993       2672.56323      -1.57130778    
  -2.40179110      0.994853973     -0.517000020       2672.56323      -1.57130778    
  -2.16155505       1.44430494     -0.517000020       2672.56323      -1.57130778    
  -1.56075203       1.04286098     -0.606999993       2672.56323      -1.57130778    
  -1.56075203       1.04286098     -0.606999993       1999.65027      -1.56656885    
  -1.13495600      0.758352995     -0.606999993       1999.65027      -1.56656885    
  -1.26109600      0.522363007     -0.606999993       1999.65027      -1.56656885    
  -1.73421395      0.718334973     -0.606999993       1999.65027      -1.56656885    
  -1.56075203       1.04286098     -0.606999993       3596.42188      -1.57137764    
  -2.16155505       1.44430494     -0.517000020       3596.42188      -1.57137764    
  -1.83825099       1.83825099     -0.517000020       3596.42188      -1.57137764    
  -1.32730997       1.32730997     -0.606999993       3596.42188      -1.57137764    
  -1.32730997       1.32730997     -0.606999993       2681.91333      -1.56651235    
 -0.965201020      0.965201020     -0.606999993       2681.91333      -1.56651235    
  -1.13495600      0.758352995     -0.606999993       2681.91333      -1.56651235    
  -1.56075203       1.04286098     -0.606999993       2681.91333      -1.56651235    
  -1.32730997       1.32730997     -0.606999993       4377.41357      -1.57140458    
  -1.83825099       1.83825099     -0.517000020       4377.41357      -1.57140458    
  -1.44430494       2.16155505     -0.517000020       4377.41357      -1.57140458    
  -1.04286098       1.56075203     -0.606999993       4377.41357      -1.57140458    
  -1.04286098       1.56075203     -0.606999993       3257.21313      -1.56648111    
 -0.758352995       1.13495600     -0.606999993       3257.21313      -1.56648111    
 -0.965201020      0.965201020     -0.606999993       3257.21313      -1.56648111    
  -1.32730997       1.32730997     -0.606999993       3257.21313      -1.56648111    
  -1.04286098       1.56075203     -0.606999993       4987.40088      -1.57140863    
  -1.44430494       2.16155505     -0.517000020       4987.40088      -1.57140863    
 -0.994853973       2.40179110     -0.517000020       4987.40088      -1.57140863    
 -0.718334973       1.73421395     -0.606999993       4987.40088      -1.57140863    
 -0.718334973       1.73421395     -0.606999993       3707.56860      -1.56651366    
 -0.522363007       1.26109600     -0.606999993       3707.56860      -1.56651366    
 -0.758352995       1.13495600     -0.606999993       3707.56860      -1.56651366    
  -1.04286098       1.56075203     -0.606999993       3707.56860      -1.56651366    
 -0.718334973       1.73421395     -0.606999993       5407.38818      -1.57140458    
 -0.994853973       2.40179110     -0.517000020       5407.38818      -1.57140458    
 -0.507171988       2.54972792     -0.517000020       5407.38818      -1.57140458    
 -0.366203994       1.84103203     -0.606999993       5407.38818      -1.57140458    
 -0.366203994       1.84103203     -0.606999993       4018.65820      -1.56658876    
 -0.266297996       1.33877206     -0.606999993       4018.65820      -1.56658876    
 -0.522363007       1.26109600     -0.606999993       4018.65820      -1.56658876    
 -0.718334973       1.73421395     -0.606999993       4018.65820      -1.56658876    
 -0.366203994       1.84103203     -0.606999993       5623.24121      -1.57140553    
 -0.507171988       2.54972792     -0.517000020       5623.24121      -1.57140553    
   0.00000000       2.59967995     -0.517000020       5623.24121      -1.57140553    
   0.00000000       1.87709999     -0.606999993       5623.24121      -1.57140553    
   0.00000000       1.87709999     -0.606999993       4178.08594      -1.56666028    
   0.00000000       1.36500001     -0.606999993       4178.08594      -1.56666028    
 -0.266297996       1.33877206     -0.606999993       4178.08594      -1.56666028    
 -0.366203994       1.84103203     -0.606999993       4178.08594      -1.56666028    
   0.00000000       1.87709999     -0.606999993       5623.63574      -1.57142067    
   0.00000000       2.59967995     -0.517000020       5623.63574      -1.57142067    
  0.507171988       2.54972792     -0.517000020       5623.63574      -1.57142067    
  0.366203994       1.84103203     -0.606999993       5623.63574      -1.57142067    
  0.366203994       1.84103203     -0.606999993       4177.01270      -1.56668770    
  0.266297996       1.33877206     -0.606999993       4177.01270      -1.56668770    
   0.00000000       1.36500001     -0.606999993       4177.01270      -1.56668770    
   0.00000000       1.87709999     -0.606999993       4177.01270      -1.56668770    
  0.366203994       1.84103203     -0.606999993       5408.30615      -1.57144427    
  0.507171988       2.54972792     -0.517000020       5408.30615      -1.57144427    
  0.994853973       2.40179110     -0.517000020       5408.30615      -1.57144427    
  0.718334973       1.73421395     -0.606999993       5408.30615      -1.57144427    
  0.718334973       1.73421395     -0.606999993       4014.85107      -1.56666327    
  0.522363007       1.26109600     -0.606999993       4014.85107      -1.56666327    
  0.266297996       1.33877206     -0.606999993       4014.85107      -1.56666327    
  0.366203994       1.84103203     -0.606999993       4014.85107      -1.56666327    
  0.718334973       1.73421395     -0.606999993       4987.31689      -1.57145774    
  0.994853973       2.40179110     -0.517000020       4987.31689      -1.57145774    
   1.44430494       2.16155505     -0.517000020       4987.31689      -1.57145774    
   1.04286098       1.56075203     -0.606999993       4987.31689      -1.57145774    
   1.04286098       1.56075203     -0.606999993       3699.23511      -1.56662083    
  0.758352995       1.13495600     -0.606999993       3699.23511      -1.56662083    
  0.522363007       1.26109600     -0.606999993       3699.23511      -1.56662083    
  0.718334973       1.73421395     -0.606999993       3699.23511      -1.56662083    
   1.04286098       1.56075203     -0.606999993       4374.72266      -1.57144415    
   1.44430494       2.16155505     -0.517000020       4374.72266      -1.57144415    
   1.83825099       1.83825099     -0.517000020       4374.72266      -1.57144415    
   1.32730997       1.32730997     -0.606999993       4374.72266      -1.57144415    
   1.32730997       1.32730997     -0.606999993       3242.61963      -1.56660151    
  0.965201020      0.965201020     -0.606999993       3242.61963      -1.56660151    
  0.758352995       1.13495600     -0.606999993       3242.61963      -1.56660151    
   1.04286098       1.56075203     -0.606999993       3242.61963      -1.56660151    
   1.32730997       1.32730997     -0.606999993       3590.68726      -1.57140470    
   1.83825099       1.83825099     -0.517000020       3590.68726      -1.57140470    
   2.16155505       1.44430494     -0.517000020       3590.68726      -1.57140470    
   1.56075203       1.04286098     -0.606999993       3590.68726      -1.57140470    
   1.56075203       1.04286098     -0.606999993       2660.39014      -1.56664181    
   1.13495600      0.758352995     -0.606999993       2660.39014      -1.56664181    
  0.965201020      0.965201020     -0.606999993       2660.39014      -1.56664181    
   1.32730997       1.32730997     -0.606999993       2660.39014      -1.56664181    
   1.56075203       1.04286098     -0.606999993       2665.09229      -1.57135510    
   2.16155505       1.44430494     -0.517000020       2665.09229      -1.57135510    
   2.40179110      0.994853973     -0.517000020       2665.09229      -1.57135510    
   1.73421395      0.718334973     -0.606999993       2665.09229      -1.57135510    
   1.73421395      0.718334973     -0.606999993       1974.00977      -1.56674480    
   1.26109600      0.522363007     -0.606999993       1974.00977      -1.56674480    
   1.13495600      0.758352995     -0.606999993       1974.00977      -1.56674480    
   1.56075203       1.04286098     -0.606999993       1974.00977      -1.56674480    
   1.73421395      0.718334973     -0.606999993       1636.49988      -1.57135260    
   2.40179110      0.994853973     -0.517000020       1636.49988      -1.57135260    
   2.54972792      0.507171988     -0.517000020       1636.49988      -1.57135260    
   1.84103203      0.366203994     -0.606999993       1636.49988      -1.57135260    
   1.84103203      0.366203994     -0.606999993       1210.35449      -1.56690860    
   1.33877206      0.266297996     -0.606999993       1210.35449      -1.56690860    
   1.26109600      0.522363007     -0.606999993       1210.35449      -1.56690860    
   1.73421395      0.718334973     -0.606999993       1210.35449      -1.56690860    
   1.84103203      0.366203994     -0.606999993       548.487488      -1.57156754    
   2.54972792      0.507171988     -0.517000020       548.487488      -1.57156754    
   2.59967995       0.00000000     -0.517000020       548.487488      -1.57156754    
   1.87709999       0.00000000     -0.606999993       548.487488      -1.57156754    
   1.87709999       0.00000000     -0.606999993       398.791412      -1.56736231    
   1.36500001       0.00000000     -0.606999993       398.791412      -1.56736231    
   1.33877206      0.266297996     -0.606999993       398.791412      -1.56736231    
   1.84103203      0.366203994     -0.606999993       398.791412      -1.56736231    
   1.87709999       0.00000000     -0.606999993       558.969360       1.57071066    
   2.59967995       0.00000000     -0.517000020       558.969360       1.57071066    
   2.54972792     -0.507171988     -0.517000020       558.969360       1.57071066    
   1.84103203     -0.366203994     -0.606999993       558.969360       1.57071066    
   1.84103203     -0.366203994     -0.606999993       429.051239       1.57539427    
   1.33877206     -0.266297996     -0.606999993       429.051239       1.57539427    
   1.36500001       0.00000000     -0.606999993       429.051239       1.57539427    
   1.87709999       0.00000000     -0.606999993       429.051239       1.57539427    
   1.84103203     -0.366203994     -0.606999993       1647.99487       1.57043421    
   2.54972792     -0.507171988     -0.517000020       1647.99487       1.57043421    
   2.40179110     -0.994853973     -0.517000020       1647.99487       1.57043421    
   1.73421395     -0.718334973     -0.606999993       1647.99487       1.57043421    
   1.73421395     -0.718334973     -0.606999993       1240.08215       1.57507658    
   1.26109600     -0.522363007     -0.606999993       1240.08215       1.57507658    
   1.33877206     -0.266297996     -0.606999993       1240.08215       1.57507658    
   1.84103203     -0.366203994     -0.606999993       1240.08215       1.57507658    
   1.73421395     -0.718334973     -0.606999993       2676.59521       1.57031035    
   2.40179110     -0.994853973     -0.517000020       2676.59521       1.57031035    
   2.16155505      -1.44430494     -0.517000020       2676.59521       1.57031035    
   1.56075203      -1.04286098     -0.606999993       2676.59521       1.57031035    
   1.56075203      -1.04286098     -0.606999993       2001.24792       1.57506740    
   1.13495600     -0.758352995     -0.606999993       2001.24792       1.57506740    
   1.26109600     -0.522363007     -0.606999993       2001.24792       1.57506740    