 VARIABLES="X" "Y" "Z" "abs(p) (Pa)" "angle(p) (rad)"
ZONE N=   2709,E =    2358, F=FEPOINT, ET=QUADRILATERAL
   0.00000000      -5.48999977     -0.157000005       217.319290       1.61224699    
   0.00000000      -4.76741982     -0.246999994       217.319290       1.61224699    
  0.930077016      -4.67581606     -0.246999994       217.319290       1.61224699    
   1.07104599      -5.38451099     -0.157000005       217.319290       1.61224699    
  -1.07104599      -5.38451099     -0.157000005       217.359970       1.61223340    
 -0.930077016      -4.67581606     -0.246999994       217.359970       1.61223340    
   0.00000000      -4.76741982     -0.246999994       217.359970       1.61223340    
   0.00000000      -5.48999977     -0.157000005       217.359970       1.61223340    
  -2.10093188      -5.07209921     -0.157000005       209.087051       1.61212480    
  -1.82441294      -4.40452194     -0.246999994       209.087051       1.61212480    
 -0.930077016      -4.67581606     -0.246999994       209.087051       1.61212480    
  -1.07104599      -5.38451099     -0.157000005       209.087051       1.61212480    
  -3.05008101      -4.56476784     -0.157000005       192.732254       1.61209416    
  -2.64863706      -3.96396494     -0.246999994       192.732254       1.61209416    
  -1.82441294      -4.40452194     -0.246999994       192.732254       1.61209416    
  -2.10093188      -5.07209921     -0.157000005       192.732254       1.61209416    
  -3.88201594      -3.88201594     -0.157000005       169.448303       1.61184585    
  -3.37107491      -3.37107491     -0.246999994       169.448303       1.61184585    
  -2.64863706      -3.96396494     -0.246999994       169.448303       1.61184585    
  -3.05008101      -4.56476784     -0.157000005       169.448303       1.61184585    
  -4.56476784      -3.05008101     -0.157000005       139.540207       1.61140025    
  -3.96396494      -2.64863706     -0.246999994       139.540207       1.61140025    
  -3.37107491      -3.37107491     -0.246999994       139.540207       1.61140025    
  -3.88201594      -3.88201594     -0.157000005       139.540207       1.61140025    
  -5.07209921      -2.10093188     -0.157000005       103.663864       1.61098671    
  -4.40452194      -1.82441294     -0.246999994       103.663864       1.61098671    
  -3.96396494      -2.64863706     -0.246999994       103.663864       1.61098671    
  -4.56476784      -3.05008101     -0.157000005       103.663864       1.61098671    
  -5.38451099      -1.07104599     -0.157000005       63.7441711       1.60987949    
  -4.67581606     -0.930077016     -0.246999994       63.7441711       1.60987949    
  -4.40452194      -1.82441294     -0.246999994       63.7441711       1.60987949    
  -5.07209921      -2.10093188     -0.157000005       63.7441711       1.60987949    
  -5.48999977       0.00000000     -0.157000005       21.6225224       1.60373056    
  -4.76741982       0.00000000     -0.246999994       21.6225224       1.60373056    
  -4.67581606     -0.930077016     -0.246999994       21.6225224       1.60373056    
  -5.38451099      -1.07104599     -0.157000005       21.6225224       1.60373056    
  -5.38451099       1.07104599     -0.157000005       21.1231842      -1.51885903    
  -4.67581606      0.930077016     -0.246999994       21.1231842      -1.51885903    
  -4.76741982       0.00000000     -0.246999994       21.1231842      -1.51885903    
  -5.48999977       0.00000000     -0.157000005       21.1231842      -1.51885903    
  -5.07209921       2.10093188     -0.157000005       63.3097000      -1.52542019    
  -4.40452194       1.82441294     -0.246999994       63.3097000      -1.52542019    
  -4.67581606      0.930077016     -0.246999994       63.3097000      -1.52542019    
  -5.38451099       1.07104599     -0.157000005       63.3097000      -1.52542019    
  -4.56476784       3.05008101     -0.157000005       103.481514      -1.52683210    
  -3.96396494       2.64863706     -0.246999994       103.481514      -1.52683210    
  -4.40452194       1.82441294     -0.246999994       103.481514      -1.52683210    
  -5.07209921       2.10093188     -0.157000005       103.481514      -1.52683210    
  -3.88201594       3.88201594     -0.157000005       139.739700      -1.52738166    
  -3.37107491       3.37107491     -0.246999994       139.739700      -1.52738166    
  -3.96396494       2.64863706     -0.246999994       139.739700      -1.52738166    
  -4.56476784       3.05008101     -0.157000005       139.739700      -1.52738166    
  -3.05008101       4.56476784     -0.157000005       170.237900      -1.52767313    
  -2.64863706       3.96396494     -0.246999994       170.237900      -1.52767313    
  -3.37107491       3.37107491     -0.246999994       170.237900      -1.52767313    
  -3.88201594       3.88201594     -0.157000005       170.237900      -1.52767313    
  -2.10093188       5.07209921     -0.157000005       193.742249      -1.52767086    
  -1.82441294       4.40452194     -0.246999994       193.742249      -1.52767086    
  -2.64863706       3.96396494     -0.246999994       193.742249      -1.52767086    
  -3.05008101       4.56476784     -0.157000005       193.742249      -1.52767086    
  -1.07104599       5.38451099     -0.157000005       210.240524      -1.52780318    
 -0.930077016       4.67581606     -0.246999994       210.240524      -1.52780318    
  -1.82441294       4.40452194     -0.246999994       210.240524      -1.52780318    
  -2.10093188       5.07209921     -0.157000005       210.240524      -1.52780318    
   0.00000000       5.48999977     -0.157000005       218.685333      -1.52779424    
   0.00000000       4.76741982     -0.246999994       218.685333      -1.52779424    
 -0.930077016       4.67581606     -0.246999994       218.685333      -1.52779424    
  -1.07104599       5.38451099     -0.157000005       218.685333      -1.52779424    
   1.07104599       5.38451099     -0.157000005       218.748138      -1.52785361    
  0.930077016       4.67581606     -0.246999994       218.748138      -1.52785361    
   0.00000000       4.76741982     -0.246999994       218.748138      -1.52785361    
   0.00000000       5.48999977     -0.157000005       218.748138      -1.52785361    
   2.10093188       5.07209921     -0.157000005       210.333511      -1.52775776    
   1.82441294       4.40452194     -0.246999994       210.333511      -1.52775776    
  0.930077016       4.67581606     -0.246999994       210.333511      -1.52775776    
   1.07104599       5.38451099     -0.157000005       210.333511      -1.52775776    
   3.05008101       4.56476784     -0.157000005       193.937332      -1.52769279    
   2.64863706       3.96396494     -0.246999994       193.937332      -1.52769279    
   1.82441294       4.40452194     -0.246999994       193.937332      -1.52769279    
   2.10093188       5.07209921     -0.157000005       193.937332      -1.52769279    
   3.88201594       3.88201594     -0.157000005       170.497131      -1.52772868    
   3.37107491       3.37107491     -0.246999994       170.497131      -1.52772868    
   2.64863706       3.96396494     -0.246999994       170.497131      -1.52772868    
   3.05008101       4.56476784     -0.157000005       170.497131      -1.52772868    
   4.56476784       3.05008101     -0.157000005       140.076263      -1.52751267    
   3.96396494       2.64863706     -0.246999994       140.076263      -1.52751267    
   3.37107491       3.37107491     -0.246999994       140.076263      -1.52751267    
   3.88201594       3.88201594     -0.157000005       140.076263      -1.52751267    
   5.07209921       2.10093188     -0.157000005       103.833046      -1.52695668    
   4.40452194       1.82441294     -0.246999994       103.833046      -1.52695668    
   3.96396494       2.64863706     -0.246999994       103.833046      -1.52695668    
   4.56476784       3.05008101     -0.157000005       103.833046      -1.52695668    
   5.38451099       1.07104599     -0.157000005       63.6917381      -1.52555490    
   4.67581606      0.930077016     -0.246999994       63.6917381      -1.52555490    
   4.40452194       1.82441294     -0.246999994       63.6917381      -1.52555490    
   5.07209921       2.10093188     -0.157000005       63.6917381      -1.52555490    
   5.48999977       0.00000000     -0.157000005       21.5211048      -1.51949799    
   4.76741982       0.00000000     -0.246999994       21.5211048      -1.51949799    
   4.67581606      0.930077016     -0.246999994       21.5211048      -1.51949799    
   5.38451099       1.07104599     -0.157000005       21.5211048      -1.51949799    
   5.38451099      -1.07104599     -0.157000005       21.2233219       1.60416651    
   4.67581606     -0.930077016     -0.246999994       21.2233219       1.60416651    
   4.76741982       0.00000000     -0.246999994       21.2233219       1.60416651    
   5.48999977       0.00000000     -0.157000005       21.2233219       1.60416651    
   5.07209921      -2.10093188     -0.157000005       63.3556061       1.61005402    
   4.40452194      -1.82441294     -0.246999994       63.3556061       1.61005402    
   4.67581606     -0.930077016     -0.246999994       63.3556061       1.61005402    
   5.38451099      -1.07104599     -0.157000005       63.3556061       1.61005402    
   4.56476784      -3.05008101     -0.157000005       103.303741       1.61111295    
   3.96396494      -2.64863706     -0.246999994       103.303741       1.61111295    
   4.40452194      -1.82441294     -0.246999994       103.303741       1.61111295    
   5.07209921      -2.10093188     -0.157000005       103.303741       1.61111295    
   3.88201594      -3.88201594     -0.157000005       139.197708       1.61155200    
   3.37107491      -3.37107491     -0.246999994       139.197708       1.61155200    
   3.96396494      -2.64863706     -0.246999994       139.197708       1.61155200    
   4.56476784      -3.05008101     -0.157000005       139.197708       1.61155200    
   3.05008101      -4.56476784     -0.157000005       169.228973       1.61182845    
   2.64863706      -3.96396494     -0.246999994       169.228973       1.61182845    
   3.37107491      -3.37107491     -0.246999994       169.228973       1.61182845    
   3.88201594      -3.88201594     -0.157000005       169.228973       1.61182845    
   2.10093188      -5.07209921     -0.157000005       192.545013       1.61212778    
   1.82441294      -4.40452194     -0.246999994       192.545013       1.61212778    
   2.64863706      -3.96396494     -0.246999994       192.545013       1.61212778    
   3.05008101      -4.56476784     -0.157000005       192.545013       1.61212778    
   1.07104599      -5.38451099     -0.157000005       208.946182       1.61221397    
  0.930077016      -4.67581606     -0.246999994       208.946182       1.61221397    
   1.82441294      -4.40452194     -0.246999994       208.946182       1.61221397    
   2.10093188      -5.07209921     -0.157000005       208.946182       1.61221397    
   0.00000000      -1.87709999     -0.606999993       530.552063       1.57465601    
   0.00000000      -1.36500001     -0.606999993       530.552063       1.57465601    
  0.266297996      -1.33877206     -0.606999993       530.552063       1.57465601    
  0.366203994      -1.84103203     -0.606999993       530.552063       1.57465601    
   0.00000000      -1.87709999     -0.606999993       384.741455       1.58081818    
   0.00000000      -2.59967995     -0.517000020       384.741455       1.58081818    
 -0.507171988      -2.54972792     -0.517000020       384.741455       1.58081818    
 -0.366203994      -1.84103203     -0.606999993       384.741455       1.58081818    
 -0.366203994      -1.84103203     -0.606999993       531.270081       1.57465434    
 -0.266297996      -1.33877206     -0.606999993       531.270081       1.57465434    
   0.00000000      -1.36500001     -0.606999993       531.270081       1.57465434    
   0.00000000      -1.87709999     -0.606999993       531.270081       1.57465434    
 -0.366203994      -1.84103203     -0.606999993       371.909485       1.58078182    
 -0.507171988      -2.54972792     -0.517000020       371.909485       1.58078182    
 -0.994853973      -2.40179110     -0.517000020       371.909485       1.58078182    
 -0.718334973      -1.73421395     -0.606999993       371.909485       1.58078182    
 -0.718334973      -1.73421395     -0.606999993       513.021301       1.57464874    
 -0.522363007      -1.26109600     -0.606999993       513.021301       1.57464874    
 -0.266297996      -1.33877206     -0.606999993       513.021301       1.57464874    
 -0.366203994      -1.84103203     -0.606999993       513.021301       1.57464874    
 -0.718334973      -1.73421395     -0.606999993       346.109406       1.58070636    
 -0.994853973      -2.40179110     -0.517000020       346.109406       1.58070636    
  -1.44430494      -2.16155505     -0.517000020       346.109406       1.58070636    
  -1.04286098      -1.56075203     -0.606999993       346.109406       1.58070636    
  -1.04286098      -1.56075203     -0.606999993       475.808807       1.57463145    
 -0.758352995      -1.13495600     -0.606999993       475.808807       1.57463145    
 -0.522363007      -1.26109600     -0.606999993       475.808807       1.57463145    
 -0.718334973      -1.73421395     -0.606999993       475.808807       1.57463145    
  -1.04286098      -1.56075203     -0.606999993       306.780579       1.58058619    
  -1.44430494      -2.16155505     -0.517000020       306.780579       1.58058619    
  -1.83825099      -1.83825099     -0.517000020       306.780579       1.58058619    
  -1.32730997      -1.32730997     -0.606999993       306.780579       1.58058619    
  -1.32730997      -1.32730997     -0.606999993       419.761292       1.57458735    
 -0.965201020     -0.965201020     -0.606999993       419.761292       1.57458735    
 -0.758352995      -1.13495600     -0.606999993       419.761292       1.57458735    
  -1.04286098      -1.56075203     -0.606999993       419.761292       1.57458735    
  -1.32730997      -1.32730997     -0.606999993       253.364487       1.58041596    
  -1.83825099      -1.83825099     -0.517000020       253.364487       1.58041596    
  -2.16155505      -1.44430494     -0.517000020       253.364487       1.58041596    
  -1.56075203      -1.04286098     -0.606999993       253.364487       1.58041596    
  -1.56075203      -1.04286098     -0.606999993       346.068756       1.57449007    
  -1.13495600     -0.758352995     -0.606999993       346.068756       1.57449007    
 -0.965201020     -0.965201020     -0.606999993       346.068756       1.57449007    
  -1.32730997      -1.32730997     -0.606999993       346.068756       1.57449007    
  -1.56075203      -1.04286098     -0.606999993       187.418030       1.58014655    
  -2.16155505      -1.44430494     -0.517000020       187.418030       1.58014655    
  -2.40179110     -0.994853973     -0.517000020       187.418030       1.58014655    
  -1.73421395     -0.718334973     -0.606999993       187.418030       1.58014655    
  -1.73421395     -0.718334973     -0.606999993       257.755676       1.57428432    
  -1.26109600     -0.522363007     -0.606999993       257.755676       1.57428432    
  -1.13495600     -0.758352995     -0.606999993       257.755676       1.57428432    
  -1.56075203      -1.04286098     -0.606999993       257.755676       1.57428432    
  -1.73421395     -0.718334973     -0.606999993       114.350380       1.57949817    
  -2.40179110     -0.994853973     -0.517000020       114.350380       1.57949817    
  -2.54972792     -0.507171988     -0.517000020       114.350380       1.57949817    
  -1.84103203     -0.366203994     -0.606999993       114.350380       1.57949817    
  -1.84103203     -0.366203994     -0.606999993       159.649338       1.57379746    
  -1.33877206     -0.266297996     -0.606999993       159.649338       1.57379746    
  -1.26109600     -0.522363007     -0.606999993       159.649338       1.57379746    
  -1.73421395     -0.718334973     -0.606999993       159.649338       1.57379746    
  -1.84103203     -0.366203994     -0.606999993       39.6910858       1.57613719    
  -2.54972792     -0.507171988     -0.517000020       39.6910858       1.57613719    
  -2.59967995       0.00000000     -0.517000020       39.6910858       1.57613719    
  -1.87709999       0.00000000     -0.606999993       39.6910858       1.57613719    
  -1.87709999       0.00000000     -0.606999993       56.7062874       1.57156491    
  -1.36500001       0.00000000     -0.606999993       56.7062874       1.57156491    
  -1.33877206     -0.266297996     -0.606999993       56.7062874       1.57156491    
  -1.84103203     -0.366203994     -0.606999993       56.7062874       1.57156491    
  -1.87709999       0.00000000     -0.606999993       34.0453606      -1.55405140    
  -2.59967995       0.00000000     -0.517000020       34.0453606      -1.55405140    
  -2.54972792      0.507171988     -0.517000020       34.0453606      -1.55405140    
  -1.84103203      0.366203994     -0.606999993       34.0453606      -1.55405140    
  -1.84103203      0.366203994     -0.606999993       47.2733994      -1.56248701    
  -1.33877206      0.266297996     -0.606999993       47.2733994      -1.56248701    
  -1.36500001       0.00000000     -0.606999993       47.2733994      -1.56248701    
  -1.87709999       0.00000000     -0.606999993       47.2733994      -1.56248701    
  -1.84103203      0.366203994     -0.606999993       107.747185      -1.55830741    
  -2.54972792      0.507171988     -0.517000020       107.747185      -1.55830741    
  -2.40179110      0.994853973     -0.517000020       107.747185      -1.55830741    
  -1.73421395      0.718334973     -0.606999993       107.747185      -1.55830741    
  -1.73421395      0.718334973     -0.606999993       149.818558      -1.56529915    
  -1.26109600      0.522363007     -0.606999993       149.818558      -1.56529915    
  -1.33877206      0.266297996     -0.606999993       149.818558      -1.56529915    
  -1.84103203      0.366203994     -0.606999993       149.818558      -1.56529915    
  -1.73421395      0.718334973     -0.606999993       180.236954      -1.55916429    
  -2.40179110      0.994853973     -0.517000020       180.236954      -1.55916429    
  -2.16155505       1.44430494     -0.517000020       180.236954      -1.55916429    
  -1.56075203       1.04286098     -0.606999993       180.236954      -1.55916429    
  -1.56075203       1.04286098     -0.606999993       247.774048      -1.56579959    
  -1.13495600      0.758352995     -0.606999993       247.774048      -1.56579959    
  -1.26109600      0.522363007     -0.606999993       247.774048      -1.56579959    
  -1.73421395      0.718334973     -0.606999993       247.774048      -1.56579959    
  -1.56075203       1.04286098     -0.606999993       246.915009      -1.55952775    
  -2.16155505       1.44430494     -0.517000020       246.915009      -1.55952775    
  -1.83825099       1.83825099     -0.517000020       246.915009      -1.55952775    
  -1.32730997       1.32730997     -0.606999993       246.915009      -1.55952775    
  -1.32730997       1.32730997     -0.606999993       336.736023      -1.56599712    
 -0.965201020      0.965201020     -0.606999993       336.736023      -1.56599712    
  -1.13495600      0.758352995     -0.606999993       336.736023      -1.56599712    
  -1.56075203       1.04286098     -0.606999993       336.736023      -1.56599712    
  -1.32730997       1.32730997     -0.606999993       302.032013      -1.55968666    
  -1.83825099       1.83825099     -0.517000020       302.032013      -1.55968666    
  -1.44430494       2.16155505     -0.517000020       302.032013      -1.55968666    
  -1.04286098       1.56075203     -0.606999993       302.032013      -1.55968666    
  -1.04286098       1.56075203     -0.606999993       411.823730      -1.56610227    
 -0.758352995       1.13495600     -0.606999993       411.823730      -1.56610227    
 -0.965201020      0.965201020     -0.606999993       411.823730      -1.56610227    
  -1.32730997       1.32730997     -0.606999993       411.823730      -1.56610227    
  -1.04286098       1.56075203     -0.606999993       343.120667      -1.55975354    
  -1.44430494       2.16155505     -0.517000020       343.120667      -1.55975354    
 -0.994853973       2.40179110     -0.517000020       343.120667      -1.55975354    
 -0.718334973       1.73421395     -0.606999993       343.120667      -1.55975354    
 -0.718334973       1.73421395     -0.606999993       469.724152      -1.56617033    
 -0.522363007       1.26109600     -0.606999993       469.724152      -1.56617033    
 -0.758352995       1.13495600     -0.606999993       469.724152      -1.56617033    
  -1.04286098       1.56075203     -0.606999993       469.724152      -1.56617033    
 -0.718334973       1.73421395     -0.606999993       370.307373      -1.55978644    
 -0.994853973       2.40179110     -0.517000020       370.307373      -1.55978644    
 -0.507171988       2.54972792     -0.517000020       370.307373      -1.55978644    
 -0.366203994       1.84103203     -0.606999993       370.307373      -1.55978644    
 -0.366203994       1.84103203     -0.606999993       508.848633      -1.56621635    
 -0.266297996       1.33877206     -0.606999993       508.848633      -1.56621635    
 -0.522363007       1.26109600     -0.606999993       508.848633      -1.56621635    
 -0.718334973       1.73421395     -0.606999993       508.848633      -1.56621635    
 -0.366203994       1.84103203     -0.606999993       384.196533      -1.55980957    
 -0.507171988       2.54972792     -0.517000020       384.196533      -1.55980957    
   0.00000000       2.59967995     -0.517000020       384.196533      -1.55980957    
   0.00000000       1.87709999     -0.606999993       384.196533      -1.55980957    
   0.00000000       1.87709999     -0.606999993       528.832825      -1.56624317    
   0.00000000       1.36500001     -0.606999993       528.832825      -1.56624317    
 -0.266297996       1.33877206     -0.606999993       528.832825      -1.56624317    
 -0.366203994       1.84103203     -0.606999993       528.832825      -1.56624317    
   0.00000000       1.87709999     -0.606999993       384.614990      -1.55982244    
   0.00000000       2.59967995     -0.517000020       384.614990      -1.55982244    
  0.507171988       2.54972792     -0.517000020       384.614990      -1.55982244    
  0.366203994       1.84103203     -0.606999993       384.614990      -1.55982244    
  0.366203994       1.84103203     -0.606999993       529.550171      -1.56624949    
  0.266297996       1.33877206     -0.606999993       529.550171      -1.56624949    
   0.00000000       1.36500001     -0.606999993       529.550171      -1.56624949    
   0.00000000       1.87709999     -0.606999993       529.550171      -1.56624949    
  0.366203994       1.84103203     -0.606999993       371.550568      -1.55982578    
  0.507171988       2.54972792     -0.517000020       371.550568      -1.55982578    
  0.994853973       2.40179110     -0.517000020       371.550568      -1.55982578    
  0.718334973       1.73421395     -0.606999993       371.550568      -1.55982578    
  0.718334973       1.73421395     -0.606999993       510.977661      -1.56623602    
  0.522363007       1.26109600     -0.606999993       510.977661      -1.56623602    
  0.266297996       1.33877206     -0.606999993       510.977661      -1.56623602    
  0.366203994       1.84103203     -0.606999993       510.977661      -1.56623602    
  0.718334973       1.73421395     -0.606999993       345.157349      -1.55982316    
  0.994853973       2.40179110     -0.517000020       345.157349      -1.55982316    
   1.44430494       2.16155505     -0.517000020       345.157349      -1.55982316    
   1.04286098       1.56075203     -0.606999993       345.157349      -1.55982316    
   1.04286098       1.56075203     -0.606999993       473.184174      -1.56620467    
  0.758352995       1.13495600     -0.606999993       473.184174      -1.56620467    
  0.522363007       1.26109600     -0.606999993       473.184174      -1.56620467    
  0.718334973       1.73421395     -0.606999993       473.184174      -1.56620467    
   1.04286098       1.56075203     -0.606999993       304.806946      -1.55979431    
   1.44430494       2.16155505     -0.517000020       304.806946      -1.55979431    
   1.83825099       1.83825099     -0.517000020       304.806946      -1.55979431    
   1.32730997       1.32730997     -0.606999993       304.806946      -1.55979431    
   1.32730997       1.32730997     -0.606999993       416.499969      -1.56615496    
  0.965201020      0.965201020     -0.606999993       416.499969      -1.56615496    
  0.758352995       1.13495600     -0.606999993       416.499969      -1.56615496    
   1.04286098       1.56075203     -0.606999993       416.499969      -1.56615496    
   1.32730997       1.32730997     -0.606999993       250.319626      -1.55968857    
   1.83825099       1.83825099     -0.517000020       250.319626      -1.55968857    
   2.16155505       1.44430494     -0.517000020       250.319626      -1.55968857    
   1.56075203       1.04286098     -0.606999993       250.319626      -1.55968857    
   1.56075203       1.04286098     -0.606999993       342.429596      -1.56607461    
   1.13495600      0.758352995     -0.606999993       342.429596      -1.56607461    
  0.965201020      0.965201020     -0.606999993       342.429596      -1.56607461    
   1.32730997       1.32730997     -0.606999993       342.429596      -1.56607461    
   1.56075203       1.04286098     -0.606999993       184.097687      -1.55941665    
   2.16155505       1.44430494     -0.517000020       184.097687      -1.55941665    
   2.40179110      0.994853973     -0.517000020       184.097687      -1.55941665    
   1.73421395      0.718334973     -0.606999993       184.097687      -1.55941665    
   1.73421395      0.718334973     -0.606999993       254.178146      -1.56591535    
   1.26109600      0.522363007     -0.606999993       254.178146      -1.56591535    
   1.13495600      0.758352995     -0.606999993       254.178146      -1.56591535    
   1.56075203       1.04286098     -0.606999993       254.178146      -1.56591535    
   1.73421395      0.718334973     -0.606999993       111.875931      -1.55877554    
   2.40179110      0.994853973     -0.517000020       111.875931      -1.55877554    
   2.54972792      0.507171988     -0.517000020       111.875931      -1.55877554    
   1.84103203      0.366203994     -0.606999993       111.875931      -1.55877554    
   1.84103203      0.366203994     -0.606999993       156.660919      -1.56550968    
   1.33877206      0.266297996     -0.606999993       156.660919      -1.56550968    
   1.26109600      0.522363007     -0.606999993       156.660919      -1.56550968    
   1.73421395      0.718334973     -0.606999993       156.660919      -1.56550968    
   1.84103203      0.366203994     -0.606999993       38.2823753      -1.55589938    
   2.54972792      0.507171988     -0.517000020       38.2823753      -1.55589938    
   2.59967995       0.00000000     -0.517000020       38.2823753      -1.55589938    
   1.87709999       0.00000000     -0.606999993       38.2823753      -1.55589938    
   1.87709999       0.00000000     -0.606999993       54.3157921      -1.56344283    
   1.36500001       0.00000000     -0.606999993       54.3157921      -1.56344283    
   1.33877206      0.266297996     -0.606999993       54.3157921      -1.56344283    
   1.84103203      0.366203994     -0.606999993       54.3157921      -1.56344283    
   1.87709999       0.00000000     -0.606999993       35.4869576       1.57673860    
   2.59967995       0.00000000     -0.517000020       35.4869576       1.57673860    
   2.54972792     -0.507171988     -0.517000020       35.4869576       1.57673860    
   1.84103203     -0.366203994     -0.606999993       35.4869576       1.57673860    
   1.84103203     -0.366203994     -0.606999993       49.7196808       1.57150352    
   1.33877206     -0.266297996     -0.606999993       49.7196808       1.57150352    
   1.36500001       0.00000000     -0.606999993       49.7196808       1.57150352    
   1.87709999       0.00000000     -0.606999993       49.7196808       1.57150352    
   1.84103203     -0.366203994     -0.606999993       110.316879       1.57980049    
   2.54972792     -0.507171988     -0.517000020       110.316879       1.57980049    
   2.40179110     -0.994853973     -0.517000020       110.316879       1.57980049    
   1.73421395     -0.718334973     -0.606999993       110.316879       1.57980049    
   1.73421395     -0.718334973     -0.606999993       152.976761       1.57386339    
   1.26109600     -0.522363007     -0.606999993       152.976761       1.57386339    
   1.33877206     -0.266297996     -0.606999993       152.976761       1.57386339    
   1.84103203     -0.366203994     -0.606999993       152.976761       1.57386339    
   1.73421395     -0.718334973     -0.606999993       183.695572       1.58032310    
   2.40179110     -0.994853973     -0.517000020       183.695572       1.58032310    
   2.16155505      -1.44430494     -0.517000020       183.695572       1.58032310    
   1.56075203      -1.04286098     -0.606999993       183.695572       1.58032310    
   1.56075203      -1.04286098     -0.606999993       251.651001       1.57432377    
   1.13495600     -0.758352995     -0.606999993       251.651001       1.57432377    
   1.26109600     -0.522363007     -0.606999993       251.651001       1.57432377    