 VARIABLES="X" "Y" "Z" "abs(p) (Pa)" "angle(p) (rad)"
ZONE N=   2709,E =    2358, F=FEPOINT, ET=QUADRILATERAL
   0.00000000      -5.48999977     -0.157000005       72.9402618     -0.265756786    
   0.00000000      -4.76741982     -0.246999994       72.9402618     -0.265756786    
  0.930077016      -4.67581606     -0.246999994       72.9402618     -0.265756786    
   1.07104599      -5.38451099     -0.157000005       72.9402618     -0.265756786    
  -1.07104599      -5.38451099     -0.157000005       73.1013336       2.86806893    
 -0.930077016      -4.67581606     -0.246999994       73.1013336       2.86806893    
   0.00000000      -4.76741982     -0.246999994       73.1013336       2.86806893    
   0.00000000      -5.48999977     -0.157000005       73.1013336       2.86806893    
  -2.10093188      -5.07209921     -0.157000005       212.091492       2.88551474    
  -1.82441294      -4.40452194     -0.246999994       212.091492       2.88551474    
 -0.930077016      -4.67581606     -0.246999994       212.091492       2.88551474    
  -1.07104599      -5.38451099     -0.157000005       212.091492       2.88551474    
  -3.05008101      -4.56476784     -0.157000005       343.579926       2.94694328    
  -2.64863706      -3.96396494     -0.246999994       343.579926       2.94694328    
  -1.82441294      -4.40452194     -0.246999994       343.579926       2.94694328    
  -2.10093188      -5.07209921     -0.157000005       343.579926       2.94694328    
  -3.88201594      -3.88201594     -0.157000005       458.140808       2.97159123    
  -3.37107491      -3.37107491     -0.246999994       458.140808       2.97159123    
  -2.64863706      -3.96396494     -0.246999994       458.140808       2.97159123    
  -3.05008101      -4.56476784     -0.157000005       458.140808       2.97159123    
  -4.56476784      -3.05008101     -0.157000005       549.535278       2.96217442    
  -3.96396494      -2.64863706     -0.246999994       549.535278       2.96217442    
  -3.37107491      -3.37107491     -0.246999994       549.535278       2.96217442    
  -3.88201594      -3.88201594     -0.157000005       549.535278       2.96217442    
  -5.07209921      -2.10093188     -0.157000005       637.092407       2.97129464    
  -4.40452194      -1.82441294     -0.246999994       637.092407       2.97129464    
  -3.96396494      -2.64863706     -0.246999994       637.092407       2.97129464    
  -4.56476784      -3.05008101     -0.157000005       637.092407       2.97129464    
  -5.38451099      -1.07104599     -0.157000005       695.873230       2.96591520    
  -4.67581606     -0.930077016     -0.246999994       695.873230       2.96591520    
  -4.40452194      -1.82441294     -0.246999994       695.873230       2.96591520    
  -5.07209921      -2.10093188     -0.157000005       695.873230       2.96591520    
  -5.48999977       0.00000000     -0.157000005       716.801575       2.95395350    
  -4.76741982       0.00000000     -0.246999994       716.801575       2.95395350    
  -4.67581606     -0.930077016     -0.246999994       716.801575       2.95395350    
  -5.38451099      -1.07104599     -0.157000005       716.801575       2.95395350    
  -5.38451099       1.07104599     -0.157000005       717.570557       2.95200586    
  -4.67581606      0.930077016     -0.246999994       717.570557       2.95200586    
  -4.76741982       0.00000000     -0.246999994       717.570557       2.95200586    
  -5.48999977       0.00000000     -0.157000005       717.570557       2.95200586    
  -5.07209921       2.10093188     -0.157000005       691.137451       2.94953346    
  -4.40452194       1.82441294     -0.246999994       691.137451       2.94953346    
  -4.67581606      0.930077016     -0.246999994       691.137451       2.94953346    
  -5.38451099       1.07104599     -0.157000005       691.137451       2.94953346    
  -4.56476784       3.05008101     -0.157000005       636.317078       2.95999146    
  -3.96396494       2.64863706     -0.246999994       636.317078       2.95999146    
  -4.40452194       1.82441294     -0.246999994       636.317078       2.95999146    
  -5.07209921       2.10093188     -0.157000005       636.317078       2.95999146    
  -3.88201594       3.88201594     -0.157000005       562.955750       2.98517084    
  -3.37107491       3.37107491     -0.246999994       562.955750       2.98517084    
  -3.96396494       2.64863706     -0.246999994       562.955750       2.98517084    
  -4.56476784       3.05008101     -0.157000005       562.955750       2.98517084    
  -3.05008101       4.56476784     -0.157000005       456.861786       2.97716260    
  -2.64863706       3.96396494     -0.246999994       456.861786       2.97716260    
  -3.37107491       3.37107491     -0.246999994       456.861786       2.97716260    
  -3.88201594       3.88201594     -0.157000005       456.861786       2.97716260    
  -2.10093188       5.07209921     -0.157000005       344.000122       2.97239900    
  -1.82441294       4.40452194     -0.246999994       344.000122       2.97239900    
  -2.64863706       3.96396494     -0.246999994       344.000122       2.97239900    
  -3.05008101       4.56476784     -0.157000005       344.000122       2.97239900    
  -1.07104599       5.38451099     -0.157000005       211.887192       2.92178154    
 -0.930077016       4.67581606     -0.246999994       211.887192       2.92178154    
  -1.82441294       4.40452194     -0.246999994       211.887192       2.92178154    
  -2.10093188       5.07209921     -0.157000005       211.887192       2.92178154    
   0.00000000       5.48999977     -0.157000005       72.8502655       2.90109992    
   0.00000000       4.76741982     -0.246999994       72.8502655       2.90109992    
 -0.930077016       4.67581606     -0.246999994       72.8502655       2.90109992    
  -1.07104599       5.38451099     -0.157000005       72.8502655       2.90109992    
   1.07104599       5.38451099     -0.157000005       71.8529892     -0.256155580    
  0.930077016       4.67581606     -0.246999994       71.8529892     -0.256155580    
   0.00000000       4.76741982     -0.246999994       71.8529892     -0.256155580    
   0.00000000       5.48999977     -0.157000005       71.8529892     -0.256155580    
   2.10093188       5.07209921     -0.157000005       214.673477     -0.211818621    
   1.82441294       4.40452194     -0.246999994       214.673477     -0.211818621    
  0.930077016       4.67581606     -0.246999994       214.673477     -0.211818621    
   1.07104599       5.38451099     -0.157000005       214.673477     -0.211818621    
   3.05008101       4.56476784     -0.157000005       345.591217     -0.176825494    
   2.64863706       3.96396494     -0.246999994       345.591217     -0.176825494    
   1.82441294       4.40452194     -0.246999994       345.591217     -0.176825494    
   2.10093188       5.07209921     -0.157000005       345.591217     -0.176825494    
   3.88201594       3.88201594     -0.157000005       457.233154     -0.179426402    
   3.37107491       3.37107491     -0.246999994       457.233154     -0.179426402    
   2.64863706       3.96396494     -0.246999994       457.233154     -0.179426402    
   3.05008101       4.56476784     -0.157000005       457.233154     -0.179426402    
   4.56476784       3.05008101     -0.157000005       559.302795     -0.179634824    
   3.96396494       2.64863706     -0.246999994       559.302795     -0.179634824    
   3.37107491       3.37107491     -0.246999994       559.302795     -0.179634824    
   3.88201594       3.88201594     -0.157000005       559.302795     -0.179634824    
   5.07209921       2.10093188     -0.157000005       637.987000     -0.193569988    
   4.40452194       1.82441294     -0.246999994       637.987000     -0.193569988    
   3.96396494       2.64863706     -0.246999994       637.987000     -0.193569988    
   4.56476784       3.05008101     -0.157000005       637.987000     -0.193569988    
   5.38451099       1.07104599     -0.157000005       703.763794     -0.183390975    
   4.67581606      0.930077016     -0.246999994       703.763794     -0.183390975    
   4.40452194       1.82441294     -0.246999994       703.763794     -0.183390975    
   5.07209921       2.10093188     -0.157000005       703.763794     -0.183390975    
   5.48999977       0.00000000     -0.157000005       731.525085     -0.174704731    
   4.76741982       0.00000000     -0.246999994       731.525085     -0.174704731    
   4.67581606      0.930077016     -0.246999994       731.525085     -0.174704731    
   5.38451099       1.07104599     -0.157000005       731.525085     -0.174704731    
   5.38451099      -1.07104599     -0.157000005       728.505127     -0.169963226    
   4.67581606     -0.930077016     -0.246999994       728.505127     -0.169963226    
   4.76741982       0.00000000     -0.246999994       728.505127     -0.169963226    
   5.48999977       0.00000000     -0.157000005       728.505127     -0.169963226    
   5.07209921      -2.10093188     -0.157000005       697.164185     -0.167995527    
   4.40452194      -1.82441294     -0.246999994       697.164185     -0.167995527    
   4.67581606     -0.930077016     -0.246999994       697.164185     -0.167995527    
   5.38451099      -1.07104599     -0.157000005       697.164185     -0.167995527    
   4.56476784      -3.05008101     -0.157000005       638.662903     -0.156970724    
   3.96396494      -2.64863706     -0.246999994       638.662903     -0.156970724    
   4.40452194      -1.82441294     -0.246999994       638.662903     -0.156970724    
   5.07209921      -2.10093188     -0.157000005       638.662903     -0.156970724    
   3.88201594      -3.88201594     -0.157000005       557.254639     -0.149829507    
   3.37107491      -3.37107491     -0.246999994       557.254639     -0.149829507    
   3.96396494      -2.64863706     -0.246999994       557.254639     -0.149829507    
   4.56476784      -3.05008101     -0.157000005       557.254639     -0.149829507    
   3.05008101      -4.56476784     -0.157000005       452.232330     -0.168533608    
   2.64863706      -3.96396494     -0.246999994       452.232330     -0.168533608    
   3.37107491      -3.37107491     -0.246999994       452.232330     -0.168533608    
   3.88201594      -3.88201594     -0.157000005       452.232330     -0.168533608    
   2.10093188      -5.07209921     -0.157000005       342.010559     -0.184890598    
   1.82441294      -4.40452194     -0.246999994       342.010559     -0.184890598    
   2.64863706      -3.96396494     -0.246999994       342.010559     -0.184890598    
   3.05008101      -4.56476784     -0.157000005       342.010559     -0.184890598    
   1.07104599      -5.38451099     -0.157000005       213.884293     -0.232484519    
  0.930077016      -4.67581606     -0.246999994       213.884293     -0.232484519    
   1.82441294      -4.40452194     -0.246999994       213.884293     -0.232484519    
   2.10093188      -5.07209921     -0.157000005       213.884293     -0.232484519    
   0.00000000      -1.87709999     -0.606999993       1113.49536      -1.55894971    
   0.00000000      -1.36500001     -0.606999993       1113.49536      -1.55894971    
  0.266297996      -1.33877206     -0.606999993       1113.49536      -1.55894971    
  0.366203994      -1.84103203     -0.606999993       1113.49536      -1.55894971    
   0.00000000      -1.87709999     -0.606999993       569.923523       1.59700501    
   0.00000000      -2.59967995     -0.517000020       569.923523       1.59700501    
 -0.507171988      -2.54972792     -0.517000020       569.923523       1.59700501    
 -0.366203994      -1.84103203     -0.606999993       569.923523       1.59700501    
 -0.366203994      -1.84103203     -0.606999993       1046.77380       1.58261478    
 -0.266297996      -1.33877206     -0.606999993       1046.77380       1.58261478    
   0.00000000      -1.36500001     -0.606999993       1046.77380       1.58261478    
   0.00000000      -1.87709999     -0.606999993       1046.77380       1.58261478    
 -0.366203994      -1.84103203     -0.606999993       1686.67126       1.59696877    
 -0.507171988      -2.54972792     -0.517000020       1686.67126       1.59696877    
 -0.994853973      -2.40179110     -0.517000020       1686.67126       1.59696877    
 -0.718334973      -1.73421395     -0.606999993       1686.67126       1.59696877    
 -0.718334973      -1.73421395     -0.606999993       3142.07788       1.58265364    
 -0.522363007      -1.26109600     -0.606999993       3142.07788       1.58265364    
 -0.266297996      -1.33877206     -0.606999993       3142.07788       1.58265364    
 -0.366203994      -1.84103203     -0.606999993       3142.07788       1.58265364    
 -0.718334973      -1.73421395     -0.606999993       2641.94165       1.59761882    
 -0.994853973      -2.40179110     -0.517000020       2641.94165       1.59761882    
  -1.44430494      -2.16155505     -0.517000020       2641.94165       1.59761882    
  -1.04286098      -1.56075203     -0.606999993       2641.94165       1.59761882    
  -1.04286098      -1.56075203     -0.606999993       5063.17139       1.58270597    
 -0.758352995      -1.13495600     -0.606999993       5063.17139       1.58270597    
 -0.522363007      -1.26109600     -0.606999993       5063.17139       1.58270597    
 -0.718334973      -1.73421395     -0.606999993       5063.17139       1.58270597    
  -1.04286098      -1.56075203     -0.606999993       3446.03857       1.59826684    
  -1.44430494      -2.16155505     -0.517000020       3446.03857       1.59826684    
  -1.83825099      -1.83825099     -0.517000020       3446.03857       1.59826684    
  -1.32730997      -1.32730997     -0.606999993       3446.03857       1.59826684    
  -1.32730997      -1.32730997     -0.606999993       6754.16357       1.58277690    
 -0.965201020     -0.965201020     -0.606999993       6754.16357       1.58277690    
 -0.758352995      -1.13495600     -0.606999993       6754.16357       1.58277690    
  -1.04286098      -1.56075203     -0.606999993       6754.16357       1.58277690    
  -1.32730997      -1.32730997     -0.606999993       4143.53320       1.59863102    
  -1.83825099      -1.83825099     -0.517000020       4143.53320       1.59863102    
  -2.16155505      -1.44430494     -0.517000020       4143.53320       1.59863102    
  -1.56075203      -1.04286098     -0.606999993       4143.53320       1.59863102    
  -1.56075203      -1.04286098     -0.606999993       8192.07812       1.58283710    
  -1.13495600     -0.758352995     -0.606999993       8192.07812       1.58283710    
 -0.965201020     -0.965201020     -0.606999993       8192.07812       1.58283710    
  -1.32730997      -1.32730997     -0.606999993       8192.07812       1.58283710    
  -1.56075203      -1.04286098     -0.606999993       4750.44824       1.59861445    
  -2.16155505      -1.44430494     -0.517000020       4750.44824       1.59861445    
  -2.40179110     -0.994853973     -0.517000020       4750.44824       1.59861445    
  -1.73421395     -0.718334973     -0.606999993       4750.44824       1.59861445    
  -1.73421395     -0.718334973     -0.606999993       9354.73633       1.58286500    
  -1.26109600     -0.522363007     -0.606999993       9354.73633       1.58286500    
  -1.13495600     -0.758352995     -0.606999993       9354.73633       1.58286500    
  -1.56075203      -1.04286098     -0.606999993       9354.73633       1.58286500    
  -1.73421395     -0.718334973     -0.606999993       5222.08008       1.59836650    
  -2.40179110     -0.994853973     -0.517000020       5222.08008       1.59836650    
  -2.54972792     -0.507171988     -0.517000020       5222.08008       1.59836650    
  -1.84103203     -0.366203994     -0.606999993       5222.08008       1.59836650    
  -1.84103203     -0.366203994     -0.606999993       10189.4062       1.58286679    
  -1.33877206     -0.266297996     -0.606999993       10189.4062       1.58286679    
  -1.26109600     -0.522363007     -0.606999993       10189.4062       1.58286679    
  -1.73421395     -0.718334973     -0.606999993       10189.4062       1.58286679    
  -1.84103203     -0.366203994     -0.606999993       5487.77246       1.59814346    
  -2.54972792     -0.507171988     -0.517000020       5487.77246       1.59814346    
  -2.59967995       0.00000000     -0.517000020       5487.77246       1.59814346    
  -1.87709999       0.00000000     -0.606999993       5487.77246       1.59814346    
  -1.87709999       0.00000000     -0.606999993       10632.5137       1.58286572    
  -1.36500001       0.00000000     -0.606999993       10632.5137       1.58286572    
  -1.33877206     -0.266297996     -0.606999993       10632.5137       1.58286572    
  -1.84103203     -0.366203994     -0.606999993       10632.5137       1.58286572    
  -1.87709999       0.00000000     -0.606999993       5495.51221       1.59813941    
  -2.59967995       0.00000000     -0.517000020       5495.51221       1.59813941    
  -2.54972792      0.507171988     -0.517000020       5495.51221       1.59813941    
  -1.84103203      0.366203994     -0.606999993       5495.51221       1.59813941    
  -1.84103203      0.366203994     -0.606999993       10638.4287       1.58288419    
  -1.33877206      0.266297996     -0.606999993       10638.4287       1.58288419    
  -1.36500001       0.00000000     -0.606999993       10638.4287       1.58288419    
  -1.87709999       0.00000000     -0.606999993       10638.4287       1.58288419    
  -1.84103203      0.366203994     -0.606999993       5239.20557       1.59839010    
  -2.54972792      0.507171988     -0.517000020       5239.20557       1.59839010    
  -2.40179110      0.994853973     -0.517000020       5239.20557       1.59839010    
  -1.73421395      0.718334973     -0.606999993       5239.20557       1.59839010    
  -1.73421395      0.718334973     -0.606999993       10203.4609       1.58292627    
  -1.26109600      0.522363007     -0.606999993       10203.4609       1.58292627    
  -1.33877206      0.266297996     -0.606999993       10203.4609       1.58292627    
  -1.84103203      0.366203994     -0.606999993       10203.4609       1.58292627    
  -1.73421395      0.718334973     -0.606999993       4762.74854       1.59873974    
  -2.40179110      0.994853973     -0.517000020       4762.74854       1.59873974    
  -2.16155505       1.44430494     -0.517000020       4762.74854       1.59873974    
  -1.56075203       1.04286098     -0.606999993       4762.74854       1.59873974    
  -1.56075203       1.04286098     -0.606999993       9369.67969       1.58297098    
  -1.13495600      0.758352995     -0.606999993       9369.67969       1.58297098    
  -1.26109600      0.522363007     -0.606999993       9369.67969       1.58297098    
  -1.73421395      0.718334973     -0.606999993       9369.67969       1.58297098    
  -1.56075203       1.04286098     -0.606999993       4142.24805       1.59888256    
  -2.16155505       1.44430494     -0.517000020       4142.24805       1.59888256    
  -1.83825099       1.83825099     -0.517000020       4142.24805       1.59888256    
  -1.32730997       1.32730997     -0.606999993       4142.24805       1.59888256    
  -1.32730997       1.32730997     -0.606999993       8202.86426       1.58298552    
 -0.965201020      0.965201020     -0.606999993       8202.86426       1.58298552    
  -1.13495600      0.758352995     -0.606999993       8202.86426       1.58298552    
  -1.56075203       1.04286098     -0.606999993       8202.86426       1.58298552    
  -1.32730997       1.32730997     -0.606999993       3436.05371       1.59858322    
  -1.83825099       1.83825099     -0.517000020       3436.05371       1.59858322    
  -1.44430494       2.16155505     -0.517000020       3436.05371       1.59858322    
  -1.04286098       1.56075203     -0.606999993       3436.05371       1.59858322    
  -1.04286098       1.56075203     -0.606999993       6762.22852       1.58295870    
 -0.758352995       1.13495600     -0.606999993       6762.22852       1.58295870    
 -0.965201020      0.965201020     -0.606999993       6762.22852       1.58295870    
  -1.32730997       1.32730997     -0.606999993       6762.22852       1.58295870    
  -1.04286098       1.56075203     -0.606999993       2636.57617       1.59787869    
  -1.44430494       2.16155505     -0.517000020       2636.57617       1.59787869    
 -0.994853973       2.40179110     -0.517000020       2636.57617       1.59787869    
 -0.718334973       1.73421395     -0.606999993       2636.57617       1.59787869    
 -0.718334973       1.73421395     -0.606999993       5078.16357       1.58289587    
 -0.522363007       1.26109600     -0.606999993       5078.16357       1.58289587    
 -0.758352995       1.13495600     -0.606999993       5078.16357       1.58289587    
  -1.04286098       1.56075203     -0.606999993       5078.16357       1.58289587    
 -0.718334973       1.73421395     -0.606999993       1698.37280       1.59696233    
 -0.994853973       2.40179110     -0.517000020       1698.37280       1.59696233    
 -0.507171988       2.54972792     -0.517000020       1698.37280       1.59696233    
 -0.366203994       1.84103203     -0.606999993       1698.37280       1.59696233    
 -0.366203994       1.84103203     -0.606999993       3175.93872       1.58280361    
 -0.266297996       1.33877206     -0.606999993       3175.93872       1.58280361    
 -0.522363007       1.26109600     -0.606999993       3175.93872       1.58280361    
 -0.718334973       1.73421395     -0.606999993       3175.93872       1.58280361    
 -0.366203994       1.84103203     -0.606999993       605.775696       1.59558928    
 -0.507171988       2.54972792     -0.517000020       605.775696       1.59558928    
   0.00000000       2.59967995     -0.517000020       605.775696       1.59558928    
   0.00000000       1.87709999     -0.606999993       605.775696       1.59558928    
   0.00000000       1.87709999     -0.606999993       1106.24976       1.58252478    
   0.00000000       1.36500001     -0.606999993       1106.24976       1.58252478    
 -0.266297996       1.33877206     -0.606999993       1106.24976       1.58252478    
 -0.366203994       1.84103203     -0.606999993       1106.24976       1.58252478    
   0.00000000       1.87709999     -0.606999993       554.781067      -1.54301977    
   0.00000000       2.59967995     -0.517000020       554.781067      -1.54301977    
  0.507171988       2.54972792     -0.517000020       554.781067      -1.54301977    
  0.366203994       1.84103203     -0.606999993       554.781067      -1.54301977    
  0.366203994       1.84103203     -0.606999993       1027.83484      -1.55821300    
  0.266297996       1.33877206     -0.606999993       1027.83484      -1.55821300    
   0.00000000       1.36500001     -0.606999993       1027.83484      -1.55821300    
   0.00000000       1.87709999     -0.606999993       1027.83484      -1.55821300    
  0.366203994       1.84103203     -0.606999993       1650.08643      -1.54360020    
  0.507171988       2.54972792     -0.517000020       1650.08643      -1.54360020    
  0.994853973       2.40179110     -0.517000020       1650.08643      -1.54360020    
  0.718334973       1.73421395     -0.606999993       1650.08643      -1.54360020    
  0.718334973       1.73421395     -0.606999993       3101.23120      -1.55847394    
  0.522363007       1.26109600     -0.606999993       3101.23120      -1.55847394    
  0.266297996       1.33877206     -0.606999993       3101.23120      -1.55847394    
  0.366203994       1.84103203     -0.606999993       3101.23120      -1.55847394    
  0.718334973       1.73421395     -0.606999993       2592.88403      -1.54305458    
  0.994853973       2.40179110     -0.517000020       2592.88403      -1.54305458    
   1.44430494       2.16155505     -0.517000020       2592.88403      -1.54305458    
   1.04286098       1.56075203     -0.606999993       2592.88403      -1.54305458    
   1.04286098       1.56075203     -0.606999993       5011.21582      -1.55848479    
  0.758352995       1.13495600     -0.606999993       5011.21582      -1.55848479    
  0.522363007       1.26109600     -0.606999993       5011.21582      -1.55848479    
  0.718334973       1.73421395     -0.606999993       5011.21582      -1.55848479    
   1.04286098       1.56075203     -0.606999993       3398.61084      -1.54250908    
   1.44430494       2.16155505     -0.517000020       3398.61084      -1.54250908    
   1.83825099       1.83825099     -0.517000020       3398.61084      -1.54250908    
   1.32730997       1.32730997     -0.606999993       3398.61084      -1.54250908    
   1.32730997       1.32730997     -0.606999993       6705.71094      -1.55846179    
  0.965201020      0.965201020     -0.606999993       6705.71094      -1.55846179    
  0.758352995       1.13495600     -0.606999993       6705.71094      -1.55846179    
   1.04286098       1.56075203     -0.606999993       6705.71094      -1.55846179    
   1.32730997       1.32730997     -0.606999993       4112.01318      -1.54230690    
   1.83825099       1.83825099     -0.517000020       4112.01318      -1.54230690    
   2.16155505       1.44430494     -0.517000020       4112.01318      -1.54230690    
   1.56075203       1.04286098     -0.606999993       4112.01318      -1.54230690    
   1.56075203       1.04286098     -0.606999993       8158.51855      -1.55845201    
   1.13495600      0.758352995     -0.606999993       8158.51855      -1.55845201    
  0.965201020      0.965201020     -0.606999993       8158.51855      -1.55845201    
   1.32730997       1.32730997     -0.606999993       8158.51855      -1.55845201    
   1.56075203       1.04286098     -0.606999993       4739.96680      -1.54251254    
   2.16155505       1.44430494     -0.517000020       4739.96680      -1.54251254    
   2.40179110      0.994853973     -0.517000020       4739.96680      -1.54251254    
   1.73421395      0.718334973     -0.606999993       4739.96680      -1.54251254    
   1.73421395      0.718334973     -0.606999993       9335.62207      -1.55847239    
   1.26109600      0.522363007     -0.606999993       9335.62207      -1.55847239    
   1.13495600      0.758352995     -0.606999993       9335.62207      -1.55847239    
   1.56075203       1.04286098     -0.606999993       9335.62207      -1.55847239    
   1.73421395      0.718334973     -0.606999993       5223.99951      -1.54290116    
   2.40179110      0.994853973     -0.517000020       5223.99951      -1.54290116    
   2.54972792      0.507171988     -0.517000020       5223.99951      -1.54290116    
   1.84103203      0.366203994     -0.606999993       5223.99951      -1.54290116    
   1.84103203      0.366203994     -0.606999993       10180.4990      -1.55852020    
   1.33877206      0.266297996     -0.606999993       10180.4990      -1.55852020    
   1.26109600      0.522363007     -0.606999993       10180.4990      -1.55852020    
   1.73421395      0.718334973     -0.606999993       10180.4990      -1.55852020    
   1.84103203      0.366203994     -0.606999993       5488.32178      -1.54319358    
   2.54972792      0.507171988     -0.517000020       5488.32178      -1.54319358    
   2.59967995       0.00000000     -0.517000020       5488.32178      -1.54319358    
   1.87709999       0.00000000     -0.606999993       5488.32178      -1.54319358    
   1.87709999       0.00000000     -0.606999993       10628.0840      -1.55856955    
   1.36500001       0.00000000     -0.606999993       10628.0840      -1.55856955    
   1.33877206      0.266297996     -0.606999993       10628.0840      -1.55856955    
   1.84103203      0.366203994     -0.606999993       10628.0840      -1.55856955    
   1.87709999       0.00000000     -0.606999993       5488.89453      -1.54323781    
   2.59967995       0.00000000     -0.517000020       5488.89453      -1.54323781    
   2.54972792     -0.507171988     -0.517000020       5488.89453      -1.54323781    
   1.84103203     -0.366203994     -0.606999993       5488.89453      -1.54323781    
   1.84103203     -0.366203994     -0.606999993       10635.0781      -1.55859840    
   1.33877206     -0.266297996     -0.606999993       10635.0781      -1.55859840    
   1.36500001       0.00000000     -0.606999993       10635.0781      -1.55859840    
   1.87709999       0.00000000     -0.606999993       10635.0781      -1.55859840    
   1.84103203     -0.366203994     -0.606999993       5231.64502      -1.54306650    
   2.54972792     -0.507171988     -0.517000020       5231.64502      -1.54306650    
   2.40179110     -0.994853973     -0.517000020       5231.64502      -1.54306650    
   1.73421395     -0.718334973     -0.606999993       5231.64502      -1.54306650    
   1.73421395     -0.718334973     -0.606999993       10205.6328      -1.55861056    
   1.26109600     -0.522363007     -0.606999993       10205.6328      -1.55861056    
   1.33877206     -0.266297996     -0.606999993       10205.6328      -1.55861056    
   1.84103203     -0.366203994     -0.606999993       10205.6328      -1.55861056    
   1.73421395     -0.718334973     -0.606999993       4768.26123      -1.54288375    
   2.40179110     -0.994853973     -0.517000020       4768.26123      -1.54288375    
   2.16155505      -1.44430494     -0.517000020       4768.26123      -1.54288375    
   1.56075203      -1.04286098     -0.606999993       4768.26123      -1.54288375    
   1.56075203      -1.04286098     -0.606999993       9385.50977      -1.55862999    
   1.13495600     -0.758352995     -0.606999993       9385.50977      -1.55862999    
   1.26109600     -0.522363007     -0.606999993       9385.50977      -1.55862999    