 VARIABLES="X" "Y" "Z" "abs(p) (Pa)" "angle(p) (rad)"
ZONE N=   2709,E =    2358, F=FEPOINT, ET=QUADRILATERAL
   0.00000000      -5.48999977     -0.157000005       65.0225143      0.324754119    
   0.00000000      -4.76741982     -0.246999994       65.0225143      0.324754119    
  0.930077016      -4.67581606     -0.246999994       65.0225143      0.324754119    
   1.07104599      -5.38451099     -0.157000005       65.0225143      0.324754119    
  -1.07104599      -5.38451099     -0.157000005       65.0483322      0.319103777    
 -0.930077016      -4.67581606     -0.246999994       65.0483322      0.319103777    
   0.00000000      -4.76741982     -0.246999994       65.0483322      0.319103777    
   0.00000000      -5.48999977     -0.157000005       65.0483322      0.319103777    
  -2.10093188      -5.07209921     -0.157000005       64.5605164      0.309955865    
  -1.82441294      -4.40452194     -0.246999994       64.5605164      0.309955865    
 -0.930077016      -4.67581606     -0.246999994       64.5605164      0.309955865    
  -1.07104599      -5.38451099     -0.157000005       64.5605164      0.309955865    
  -3.05008101      -4.56476784     -0.157000005       57.3354950      0.321199208    
  -2.64863706      -3.96396494     -0.246999994       57.3354950      0.321199208    
  -1.82441294      -4.40452194     -0.246999994       57.3354950      0.321199208    
  -2.10093188      -5.07209921     -0.157000005       57.3354950      0.321199208    
  -3.88201594      -3.88201594     -0.157000005       50.8329697      0.334611297    
  -3.37107491      -3.37107491     -0.246999994       50.8329697      0.334611297    
  -2.64863706      -3.96396494     -0.246999994       50.8329697      0.334611297    
  -3.05008101      -4.56476784     -0.157000005       50.8329697      0.334611297    
  -4.56476784      -3.05008101     -0.157000005       42.0819435      0.277914912    
  -3.96396494      -2.64863706     -0.246999994       42.0819435      0.277914912    
  -3.37107491      -3.37107491     -0.246999994       42.0819435      0.277914912    
  -3.88201594      -3.88201594     -0.157000005       42.0819435      0.277914912    
  -5.07209921      -2.10093188     -0.157000005       30.6713657      0.313127130    
  -4.40452194      -1.82441294     -0.246999994       30.6713657      0.313127130    
  -3.96396494      -2.64863706     -0.246999994       30.6713657      0.313127130    
  -4.56476784      -3.05008101     -0.157000005       30.6713657      0.313127130    
  -5.38451099      -1.07104599     -0.157000005       19.1433182      0.327740580    
  -4.67581606     -0.930077016     -0.246999994       19.1433182      0.327740580    
  -4.40452194      -1.82441294     -0.246999994       19.1433182      0.327740580    
  -5.07209921      -2.10093188     -0.157000005       19.1433182      0.327740580    
  -5.48999977       0.00000000     -0.157000005       6.77919769      0.239418685    
  -4.76741982       0.00000000     -0.246999994       6.77919769      0.239418685    
  -4.67581606     -0.930077016     -0.246999994       6.77919769      0.239418685    
  -5.38451099      -1.07104599     -0.157000005       6.77919769      0.239418685    
  -5.38451099       1.07104599     -0.157000005       6.53315735      -2.83243465    
  -4.67581606      0.930077016     -0.246999994       6.53315735      -2.83243465    
  -4.76741982       0.00000000     -0.246999994       6.53315735      -2.83243465    
  -5.48999977       0.00000000     -0.157000005       6.53315735      -2.83243465    
  -5.07209921       2.10093188     -0.157000005       19.1461658      -2.82545495    
  -4.40452194       1.82441294     -0.246999994       19.1461658      -2.82545495    
  -4.67581606      0.930077016     -0.246999994       19.1461658      -2.82545495    
  -5.38451099       1.07104599     -0.157000005       19.1461658      -2.82545495    
  -4.56476784       3.05008101     -0.157000005       31.5918064      -2.82989502    
  -3.96396494       2.64863706     -0.246999994       31.5918064      -2.82989502    
  -4.40452194       1.82441294     -0.246999994       31.5918064      -2.82989502    
  -5.07209921       2.10093188     -0.157000005       31.5918064      -2.82989502    
  -3.88201594       3.88201594     -0.157000005       41.0771790      -2.81874228    
  -3.37107491       3.37107491     -0.246999994       41.0771790      -2.81874228    
  -3.96396494       2.64863706     -0.246999994       41.0771790      -2.81874228    
  -4.56476784       3.05008101     -0.157000005       41.0771790      -2.81874228    
  -3.05008101       4.56476784     -0.157000005       51.9828758      -2.83492255    
  -2.64863706       3.96396494     -0.246999994       51.9828758      -2.83492255    
  -3.37107491       3.37107491     -0.246999994       51.9828758      -2.83492255    
  -3.88201594       3.88201594     -0.157000005       51.9828758      -2.83492255    
  -2.10093188       5.07209921     -0.157000005       57.1991425      -2.81594443    
  -1.82441294       4.40452194     -0.246999994       57.1991425      -2.81594443    
  -2.64863706       3.96396494     -0.246999994       57.1991425      -2.81594443    
  -3.05008101       4.56476784     -0.157000005       57.1991425      -2.81594443    
  -1.07104599       5.38451099     -0.157000005       64.4843140      -2.83589935    
 -0.930077016       4.67581606     -0.246999994       64.4843140      -2.83589935    
  -1.82441294       4.40452194     -0.246999994       64.4843140      -2.83589935    
  -2.10093188       5.07209921     -0.157000005       64.4843140      -2.83589935    
   0.00000000       5.48999977     -0.157000005       64.4992905      -2.81560874    
   0.00000000       4.76741982     -0.246999994       64.4992905      -2.81560874    
 -0.930077016       4.67581606     -0.246999994       64.4992905      -2.81560874    
  -1.07104599       5.38451099     -0.157000005       64.4992905      -2.81560874    
   1.07104599       5.38451099     -0.157000005       67.1918640      -2.83744979    
  0.930077016       4.67581606     -0.246999994       67.1918640      -2.83744979    
   0.00000000       4.76741982     -0.246999994       67.1918640      -2.83744979    
   0.00000000       5.48999977     -0.157000005       67.1918640      -2.83744979    
   2.10093188       5.07209921     -0.157000005       62.3665962      -2.81287551    
   1.82441294       4.40452194     -0.246999994       62.3665962      -2.81287551    
  0.930077016       4.67581606     -0.246999994       62.3665962      -2.81287551    
   1.07104599       5.38451099     -0.157000005       62.3665962      -2.81287551    
   3.05008101       4.56476784     -0.157000005       57.6791306      -2.82444048    
   2.64863706       3.96396494     -0.246999994       57.6791306      -2.82444048    
   1.82441294       4.40452194     -0.246999994       57.6791306      -2.82444048    
   2.10093188       5.07209921     -0.157000005       57.6791306      -2.82444048    
   3.88201594       3.88201594     -0.157000005       52.0886040      -2.82724476    
   3.37107491       3.37107491     -0.246999994       52.0886040      -2.82724476    
   2.64863706       3.96396494     -0.246999994       52.0886040      -2.82724476    
   3.05008101       4.56476784     -0.157000005       52.0886040      -2.82724476    
   4.56476784       3.05008101     -0.157000005       41.2709236      -2.84623432    
   3.96396494       2.64863706     -0.246999994       41.2709236      -2.84623432    
   3.37107491       3.37107491     -0.246999994       41.2709236      -2.84623432    
   3.88201594       3.88201594     -0.157000005       41.2709236      -2.84623432    
   5.07209921       2.10093188     -0.157000005       31.5227375      -2.85091734    
   4.40452194       1.82441294     -0.246999994       31.5227375      -2.85091734    
   3.96396494       2.64863706     -0.246999994       31.5227375      -2.85091734    
   4.56476784       3.05008101     -0.157000005       31.5227375      -2.85091734    
   5.38451099       1.07104599     -0.157000005       19.0180912      -2.80414248    
   4.67581606      0.930077016     -0.246999994       19.0180912      -2.80414248    
   4.40452194       1.82441294     -0.246999994       19.0180912      -2.80414248    
   5.07209921       2.10093188     -0.157000005       19.0180912      -2.80414248    
   5.48999977       0.00000000     -0.157000005       6.65337324      -2.85553360    
   4.76741982       0.00000000     -0.246999994       6.65337324      -2.85553360    
   4.67581606      0.930077016     -0.246999994       6.65337324      -2.85553360    
   5.38451099       1.07104599     -0.157000005       6.65337324      -2.85553360    
   5.38451099      -1.07104599     -0.157000005       6.40961456      0.304349333    
   4.67581606     -0.930077016     -0.246999994       6.40961456      0.304349333    
   4.76741982       0.00000000     -0.246999994       6.40961456      0.304349333    
   5.48999977       0.00000000     -0.157000005       6.40961456      0.304349333    
   5.07209921      -2.10093188     -0.157000005       18.7976265      0.325311333    
   4.40452194      -1.82441294     -0.246999994       18.7976265      0.325311333    
   4.67581606     -0.930077016     -0.246999994       18.7976265      0.325311333    
   5.38451099      -1.07104599     -0.157000005       18.7976265      0.325311333    
   4.56476784      -3.05008101     -0.157000005       30.7845631      0.321227640    
   3.96396494      -2.64863706     -0.246999994       30.7845631      0.321227640    
   4.40452194      -1.82441294     -0.246999994       30.7845631      0.321227640    
   5.07209921      -2.10093188     -0.157000005       30.7845631      0.321227640    
   3.88201594      -3.88201594     -0.157000005       41.3076439      0.321310520    
   3.37107491      -3.37107491     -0.246999994       41.3076439      0.321310520    
   3.96396494      -2.64863706     -0.246999994       41.3076439      0.321310520    
   4.56476784      -3.05008101     -0.157000005       41.3076439      0.321310520    
   3.05008101      -4.56476784     -0.157000005       51.8702354      0.310442507    
   2.64863706      -3.96396494     -0.246999994       51.8702354      0.310442507    
   3.37107491      -3.37107491     -0.246999994       51.8702354      0.310442507    
   3.88201594      -3.88201594     -0.157000005       51.8702354      0.310442507    
   2.10093188      -5.07209921     -0.157000005       57.4969826      0.324896216    
   1.82441294      -4.40452194     -0.246999994       57.4969826      0.324896216    
   2.64863706      -3.96396494     -0.246999994       57.4969826      0.324896216    
   3.05008101      -4.56476784     -0.157000005       57.4969826      0.324896216    
   1.07104599      -5.38451099     -0.157000005       62.8296738      0.322877407    
  0.930077016      -4.67581606     -0.246999994       62.8296738      0.322877407    
   1.82441294      -4.40452194     -0.246999994       62.8296738      0.322877407    
   2.10093188      -5.07209921     -0.157000005       62.8296738      0.322877407    
   0.00000000      -1.87709999     -0.606999993       1305.07117       1.57435739    
   0.00000000      -1.36500001     -0.606999993       1305.07117       1.57435739    
  0.266297996      -1.33877206     -0.606999993       1305.07117       1.57435739    
  0.366203994      -1.84103203     -0.606999993       1305.07117       1.57435739    
   0.00000000      -1.87709999     -0.606999993       175.128143       1.61707175    
   0.00000000      -2.59967995     -0.517000020       175.128143       1.61707175    
 -0.507171988      -2.54972792     -0.517000020       175.128143       1.61707175    
 -0.366203994      -1.84103203     -0.606999993       175.128143       1.61707175    
 -0.366203994      -1.84103203     -0.606999993       1301.20044       1.57433093    
 -0.266297996      -1.33877206     -0.606999993       1301.20044       1.57433093    
   0.00000000      -1.36500001     -0.606999993       1301.20044       1.57433093    
   0.00000000      -1.87709999     -0.606999993       1301.20044       1.57433093    
 -0.366203994      -1.84103203     -0.606999993       170.414993       1.61652517    
 -0.507171988      -2.54972792     -0.517000020       170.414993       1.61652517    
 -0.994853973      -2.40179110     -0.517000020       170.414993       1.61652517    
 -0.718334973      -1.73421395     -0.606999993       170.414993       1.61652517    
 -0.718334973      -1.73421395     -0.606999993       1249.25696       1.57431328    
 -0.522363007      -1.26109600     -0.606999993       1249.25696       1.57431328    
 -0.266297996      -1.33877206     -0.606999993       1249.25696       1.57431328    
 -0.366203994      -1.84103203     -0.606999993       1249.25696       1.57431328    
 -0.718334973      -1.73421395     -0.606999993       158.932816       1.61596525    
 -0.994853973      -2.40179110     -0.517000020       158.932816       1.61596525    
  -1.44430494      -2.16155505     -0.517000020       158.932816       1.61596525    
  -1.04286098      -1.56075203     -0.606999993       158.932816       1.61596525    
  -1.04286098      -1.56075203     -0.606999993       1149.57007       1.57428634    
 -0.758352995      -1.13495600     -0.606999993       1149.57007       1.57428634    
 -0.522363007      -1.26109600     -0.606999993       1149.57007       1.57428634    
 -0.718334973      -1.73421395     -0.606999993       1149.57007       1.57428634    
  -1.04286098      -1.56075203     -0.606999993       140.467072       1.61548948    
  -1.44430494      -2.16155505     -0.517000020       140.467072       1.61548948    
  -1.83825099      -1.83825099     -0.517000020       140.467072       1.61548948    
  -1.32730997      -1.32730997     -0.606999993       140.467072       1.61548948    
  -1.32730997      -1.32730997     -0.606999993       1004.88800       1.57425487    
 -0.965201020     -0.965201020     -0.606999993       1004.88800       1.57425487    
 -0.758352995      -1.13495600     -0.606999993       1004.88800       1.57425487    
  -1.04286098      -1.56075203     -0.606999993       1004.88800       1.57425487    
  -1.32730997      -1.32730997     -0.606999993       115.995888       1.61509109    
  -1.83825099      -1.83825099     -0.517000020       115.995888       1.61509109    
  -2.16155505      -1.44430494     -0.517000020       115.995888       1.61509109    
  -1.56075203      -1.04286098     -0.606999993       115.995888       1.61509109    
  -1.56075203      -1.04286098     -0.606999993       820.918884       1.57422185    
  -1.13495600     -0.758352995     -0.606999993       820.918884       1.57422185    
 -0.965201020     -0.965201020     -0.606999993       820.918884       1.57422185    
  -1.32730997      -1.32730997     -0.606999993       820.918884       1.57422185    
  -1.56075203      -1.04286098     -0.606999993       86.6861038       1.61484063    
  -2.16155505      -1.44430494     -0.517000020       86.6861038       1.61484063    
  -2.40179110     -0.994853973     -0.517000020       86.6861038       1.61484063    
  -1.73421395     -0.718334973     -0.606999993       86.6861038       1.61484063    
  -1.73421395     -0.718334973     -0.606999993       604.848450       1.57419229    
  -1.26109600     -0.522363007     -0.606999993       604.848450       1.57419229    
  -1.13495600     -0.758352995     -0.606999993       604.848450       1.57419229    
  -1.56075203      -1.04286098     -0.606999993       604.848450       1.57419229    
  -1.73421395     -0.718334973     -0.606999993       53.0076180       1.61516321    
  -2.40179110     -0.994853973     -0.517000020       53.0076180       1.61516321    
  -2.54972792     -0.507171988     -0.517000020       53.0076180       1.61516321    
  -1.84103203     -0.366203994     -0.606999993       53.0076180       1.61516321    
  -1.84103203     -0.366203994     -0.606999993       363.578491       1.57415998    
  -1.33877206     -0.266297996     -0.606999993       363.578491       1.57415998    
  -1.26109600     -0.522363007     -0.606999993       363.578491       1.57415998    
  -1.73421395     -0.718334973     -0.606999993       363.578491       1.57415998    
  -1.84103203     -0.366203994     -0.606999993       15.2314110       1.62062240    
  -2.54972792     -0.507171988     -0.517000020       15.2314110       1.62062240    
  -2.59967995       0.00000000     -0.517000020       15.2314110       1.62062240    
  -1.87709999       0.00000000     -0.606999993       15.2314110       1.62062240    
  -1.87709999       0.00000000     -0.606999993       105.319084       1.57399738    
  -1.36500001       0.00000000     -0.606999993       105.319084       1.57399738    
  -1.33877206     -0.266297996     -0.606999993       105.319084       1.57399738    
  -1.84103203     -0.366203994     -0.606999993       105.319084       1.57399738    
  -1.87709999       0.00000000     -0.606999993       25.5202179      -1.53635120    
  -2.59967995       0.00000000     -0.517000020       25.5202179      -1.53635120    
  -2.54972792      0.507171988     -0.517000020       25.5202179      -1.53635120    
  -1.84103203      0.366203994     -0.606999993       25.5202179      -1.53635120    
  -1.84103203      0.366203994     -0.606999993       159.668747      -1.56714284    
  -1.33877206      0.266297996     -0.606999993       159.668747      -1.56714284    
  -1.36500001       0.00000000     -0.606999993       159.668747      -1.56714284    
  -1.87709999       0.00000000     -0.606999993       159.668747      -1.56714284    
  -1.84103203      0.366203994     -0.606999993       66.8360519      -1.53373039    
  -2.54972792      0.507171988     -0.517000020       66.8360519      -1.53373039    
  -2.40179110      0.994853973     -0.517000020       66.8360519      -1.53373039    
  -1.73421395      0.718334973     -0.606999993       66.8360519      -1.53373039    
  -1.73421395      0.718334973     -0.606999993       419.775421      -1.56722617    
  -1.26109600      0.522363007     -0.606999993       419.775421      -1.56722617    
  -1.33877206      0.266297996     -0.606999993       419.775421      -1.56722617    
  -1.84103203      0.366203994     -0.606999993       419.775421      -1.56722617    
  -1.73421395      0.718334973     -0.606999993       105.210411      -1.53304672    
  -2.40179110      0.994853973     -0.517000020       105.210411      -1.53304672    
  -2.16155505       1.44430494     -0.517000020       105.210411      -1.53304672    
  -1.56075203       1.04286098     -0.606999993       105.210411      -1.53304672    
  -1.56075203       1.04286098     -0.606999993       662.823547      -1.56722152    
  -1.13495600      0.758352995     -0.606999993       662.823547      -1.56722152    
  -1.26109600      0.522363007     -0.606999993       662.823547      -1.56722152    
  -1.73421395      0.718334973     -0.606999993       662.823547      -1.56722152    
  -1.56075203       1.04286098     -0.606999993       136.950287      -1.53193045    
  -2.16155505       1.44430494     -0.517000020       136.950287      -1.53193045    
  -1.83825099       1.83825099     -0.517000020       136.950287      -1.53193045    
  -1.32730997       1.32730997     -0.606999993       136.950287      -1.53193045    
  -1.32730997       1.32730997     -0.606999993       877.392822      -1.56720150    
 -0.965201020      0.965201020     -0.606999993       877.392822      -1.56720150    
  -1.13495600      0.758352995     -0.606999993       877.392822      -1.56720150    
  -1.56075203       1.04286098     -0.606999993       877.392822      -1.56720150    
  -1.32730997       1.32730997     -0.606999993       159.720673      -1.53013837    
  -1.83825099       1.83825099     -0.517000020       159.720673      -1.53013837    
  -1.44430494       2.16155505     -0.517000020       159.720673      -1.53013837    
  -1.04286098       1.56075203     -0.606999993       159.720673      -1.53013837    
  -1.04286098       1.56075203     -0.606999993       1054.19324      -1.56718230    
 -0.758352995       1.13495600     -0.606999993       1054.19324      -1.56718230    
 -0.965201020      0.965201020     -0.606999993       1054.19324      -1.56718230    
  -1.32730997       1.32730997     -0.606999993       1054.19324      -1.56718230    
  -1.04286098       1.56075203     -0.606999993       173.072815      -1.52787304    
  -1.44430494       2.16155505     -0.517000020       173.072815      -1.52787304    
 -0.994853973       2.40179110     -0.517000020       173.072815      -1.52787304    
 -0.718334973       1.73421395     -0.606999993       173.072815      -1.52787304    
 -0.718334973       1.73421395     -0.606999993       1187.11328      -1.56717575    
 -0.522363007       1.26109600     -0.606999993       1187.11328      -1.56717575    
 -0.758352995       1.13495600     -0.606999993       1187.11328      -1.56717575    
  -1.04286098       1.56075203     -0.606999993       1187.11328      -1.56717575    
 -0.718334973       1.73421395     -0.606999993       178.343460      -1.52566624    
 -0.994853973       2.40179110     -0.517000020       178.343460      -1.52566624    
 -0.507171988       2.54972792     -0.517000020       178.343460      -1.52566624    
 -0.366203994       1.84103203     -0.606999993       178.343460      -1.52566624    
 -0.366203994       1.84103203     -0.606999993       1272.85144      -1.56719363    
 -0.266297996       1.33877206     -0.606999993       1272.85144      -1.56719363    
 -0.522363007       1.26109600     -0.606999993       1272.85144      -1.56719363    
 -0.718334973       1.73421395     -0.606999993       1272.85144      -1.56719363    
 -0.366203994       1.84103203     -0.606999993       177.721420      -1.52420187    
 -0.507171988       2.54972792     -0.517000020       177.721420      -1.52420187    
   0.00000000       2.59967995     -0.517000020       177.721420      -1.52420187    
   0.00000000       1.87709999     -0.606999993       177.721420      -1.52420187    
   0.00000000       1.87709999     -0.606999993       1310.52161      -1.56723237    
   0.00000000       1.36500001     -0.606999993       1310.52161      -1.56723237    
 -0.266297996       1.33877206     -0.606999993       1310.52161      -1.56723237    
 -0.366203994       1.84103203     -0.606999993       1310.52161      -1.56723237    
   0.00000000       1.87709999     -0.606999993       173.140259      -1.52376425    
   0.00000000       2.59967995     -0.517000020       173.140259      -1.52376425    
  0.507171988       2.54972792     -0.517000020       173.140259      -1.52376425    
  0.366203994       1.84103203     -0.606999993       173.140259      -1.52376425    
  0.366203994       1.84103203     -0.606999993       1300.56067      -1.56727612    
  0.266297996       1.33877206     -0.606999993       1300.56067      -1.56727612    
   0.00000000       1.36500001     -0.606999993       1300.56067      -1.56727612    
   0.00000000       1.87709999     -0.606999993       1300.56067      -1.56727612    
  0.366203994       1.84103203     -0.606999993       165.382370      -1.52409649    
  0.507171988       2.54972792     -0.517000020       165.382370      -1.52409649    
  0.994853973       2.40179110     -0.517000020       165.382370      -1.52409649    
  0.718334973       1.73421395     -0.606999993       165.382370      -1.52409649    
  0.718334973       1.73421395     -0.606999993       1244.01611      -1.56731105    
  0.522363007       1.26109600     -0.606999993       1244.01611      -1.56731105    
  0.266297996       1.33877206     -0.606999993       1244.01611      -1.56731105    
  0.366203994       1.84103203     -0.606999993       1244.01611      -1.56731105    
  0.718334973       1.73421395     -0.606999993       153.923859      -1.52468657    
  0.994853973       2.40179110     -0.517000020       153.923859      -1.52468657    
   1.44430494       2.16155505     -0.517000020       153.923859      -1.52468657    
   1.04286098       1.56075203     -0.606999993       153.923859      -1.52468657    
   1.04286098       1.56075203     -0.606999993       1142.31091      -1.56733656    
  0.758352995       1.13495600     -0.606999993       1142.31091      -1.56733656    
  0.522363007       1.26109600     -0.606999993       1142.31091      -1.56733656    
  0.718334973       1.73421395     -0.606999993       1142.31091      -1.56733656    
   1.04286098       1.56075203     -0.606999993       137.319199      -1.52509809    
   1.44430494       2.16155505     -0.517000020       137.319199      -1.52509809    
   1.83825099       1.83825099     -0.517000020       137.319199      -1.52509809    
   1.32730997       1.32730997     -0.606999993       137.319199      -1.52509809    
   1.32730997       1.32730997     -0.606999993       997.493896      -1.56735158    
  0.965201020      0.965201020     -0.606999993       997.493896      -1.56735158    
  0.758352995       1.13495600     -0.606999993       997.493896      -1.56735158    
   1.04286098       1.56075203     -0.606999993       997.493896      -1.56735158    
   1.32730997       1.32730997     -0.606999993       114.272339      -1.52521193    
   1.83825099       1.83825099     -0.517000020       114.272339      -1.52521193    
   2.16155505       1.44430494     -0.517000020       114.272339      -1.52521193    
   1.56075203       1.04286098     -0.606999993       114.272339      -1.52521193    
   1.56075203       1.04286098     -0.606999993       813.080078      -1.56737506    
   1.13495600      0.758352995     -0.606999993       813.080078      -1.56737506    
  0.965201020      0.965201020     -0.606999993       813.080078      -1.56737506    
   1.32730997       1.32730997     -0.606999993       813.080078      -1.56737506    
   1.56075203       1.04286098     -0.606999993       84.3862915      -1.52476203    
   2.16155505       1.44430494     -0.517000020       84.3862915      -1.52476203    
   2.40179110      0.994853973     -0.517000020       84.3862915      -1.52476203    
   1.73421395      0.718334973     -0.606999993       84.3862915      -1.52476203    
   1.73421395      0.718334973     -0.606999993       595.176453      -1.56743658    
   1.26109600      0.522363007     -0.606999993       595.176453      -1.56743658    
   1.13495600      0.758352995     -0.606999993       595.176453      -1.56743658    
   1.56075203       1.04286098     -0.606999993       595.176453      -1.56743658    
   1.73421395      0.718334973     -0.606999993       48.4501114      -1.52255821    
   2.40179110      0.994853973     -0.517000020       48.4501114      -1.52255821    
   2.54972792      0.507171988     -0.517000020       48.4501114      -1.52255821    
   1.84103203      0.366203994     -0.606999993       48.4501114      -1.52255821    
   1.84103203      0.366203994     -0.606999993       352.048035      -1.56758463    
   1.33877206      0.266297996     -0.606999993       352.048035      -1.56758463    
   1.26109600      0.522363007     -0.606999993       352.048035      -1.56758463    
   1.73421395      0.718334973     -0.606999993       352.048035      -1.56758463    
   1.84103203      0.366203994     -0.606999993       8.27965164      -1.48610115    
   2.54972792      0.507171988     -0.517000020       8.27965164      -1.48610115    
   2.59967995       0.00000000     -0.517000020       8.27965164      -1.48610115    
   1.87709999       0.00000000     -0.606999993       8.27965164      -1.48610115    
   1.87709999       0.00000000     -0.606999993       92.9559860      -1.56835759    
   1.36500001       0.00000000     -0.606999993       92.9559860      -1.56835759    
   1.33877206      0.266297996     -0.606999993       92.9559860      -1.56835759    
   1.84103203      0.366203994     -0.606999993       92.9559860      -1.56835759    
   1.87709999       0.00000000     -0.606999993       33.1660347       1.59821677    
   2.59967995       0.00000000     -0.517000020       33.1660347       1.59821677    
   2.54972792     -0.507171988     -0.517000020       33.1660347       1.59821677    
   1.84103203     -0.366203994     -0.606999993       33.1660347       1.59821677    
   1.84103203     -0.366203994     -0.606999993       170.892090       1.57472384    
   1.33877206     -0.266297996     -0.606999993       170.892090       1.57472384    
   1.36500001       0.00000000     -0.606999993       170.892090       1.57472384    
   1.87709999       0.00000000     -0.606999993       170.892090       1.57472384    
   1.84103203     -0.366203994     -0.606999993       72.2787552       1.60482609    
   2.54972792     -0.507171988     -0.517000020       72.2787552       1.60482609    
   2.40179110     -0.994853973     -0.517000020       72.2787552       1.60482609    
   1.73421395     -0.718334973     -0.606999993       72.2787552       1.60482609    
   1.73421395     -0.718334973     -0.606999993       427.107941       1.57440805    
   1.26109600     -0.522363007     -0.606999993       427.107941       1.57440805    
   1.33877206     -0.266297996     -0.606999993       427.107941       1.57440805    
   1.84103203     -0.366203994     -0.606999993       427.107941       1.57440805    
   1.73421395     -0.718334973     -0.606999993       105.771301       1.60799408    
   2.40179110     -0.994853973     -0.517000020       105.771301       1.60799408    
   2.16155505      -1.44430494     -0.517000020       105.771301       1.60799408    
   1.56075203      -1.04286098     -0.606999993       105.771301       1.60799408    
   1.56075203      -1.04286098     -0.606999993       663.867798       1.57437384    
   1.13495600     -0.758352995     -0.606999993       663.867798       1.57437384    
   1.26109600     -0.522363007     -0.606999993       663.867798       1.57437384    