 VARIABLES="X" "Y" "Z" "abs(p) (Pa)" "angle(p) (rad)"
ZONE N=   2709,E =    2358, F=FEPOINT, ET=QUADRILATERAL
   0.00000000      -5.48999977     -0.157000005       208.358612     -0.281371623    
   0.00000000      -4.76741982     -0.246999994       208.358612     -0.281371623    
  0.930077016      -4.67581606     -0.246999994       208.358612     -0.281371623    
   1.07104599      -5.38451099     -0.157000005       208.358612     -0.281371623    
  -1.07104599      -5.38451099     -0.157000005       208.250961     -0.281918705    
 -0.930077016      -4.67581606     -0.246999994       208.250961     -0.281918705    
   0.00000000      -4.76741982     -0.246999994       208.250961     -0.281918705    
   0.00000000      -5.48999977     -0.157000005       208.250961     -0.281918705    
  -2.10093188      -5.07209921     -0.157000005       207.451233     -0.286036283    
  -1.82441294      -4.40452194     -0.246999994       207.451233     -0.286036283    
 -0.930077016      -4.67581606     -0.246999994       207.451233     -0.286036283    
  -1.07104599      -5.38451099     -0.157000005       207.451233     -0.286036283    
  -3.05008101      -4.56476784     -0.157000005       207.992706     -0.283232391    
  -2.64863706      -3.96396494     -0.246999994       207.992706     -0.283232391    
  -1.82441294      -4.40452194     -0.246999994       207.992706     -0.283232391    
  -2.10093188      -5.07209921     -0.157000005       207.992706     -0.283232391    
  -3.88201594      -3.88201594     -0.157000005       207.751923     -0.283199668    
  -3.37107491      -3.37107491     -0.246999994       207.751923     -0.283199668    
  -2.64863706      -3.96396494     -0.246999994       207.751923     -0.283199668    
  -3.05008101      -4.56476784     -0.157000005       207.751923     -0.283199668    
  -4.56476784      -3.05008101     -0.157000005       206.553467     -0.285999119    
  -3.96396494      -2.64863706     -0.246999994       206.553467     -0.285999119    
  -3.37107491      -3.37107491     -0.246999994       206.553467     -0.285999119    
  -3.88201594      -3.88201594     -0.157000005       206.553467     -0.285999119    
  -5.07209921      -2.10093188     -0.157000005       207.157791     -0.281261593    
  -4.40452194      -1.82441294     -0.246999994       207.157791     -0.281261593    
  -3.96396494      -2.64863706     -0.246999994       207.157791     -0.281261593    
  -4.56476784      -3.05008101     -0.157000005       207.157791     -0.281261593    
  -5.38451099      -1.07104599     -0.157000005       207.164658     -0.280798465    
  -4.67581606     -0.930077016     -0.246999994       207.164658     -0.280798465    
  -4.40452194      -1.82441294     -0.246999994       207.164658     -0.280798465    
  -5.07209921      -2.10093188     -0.157000005       207.164658     -0.280798465    
  -5.48999977       0.00000000     -0.157000005       206.269485     -0.284649521    
  -4.76741982       0.00000000     -0.246999994       206.269485     -0.284649521    
  -4.67581606     -0.930077016     -0.246999994       206.269485     -0.284649521    
  -5.38451099      -1.07104599     -0.157000005       206.269485     -0.284649521    
  -5.38451099       1.07104599     -0.157000005       206.056686     -0.285389781    
  -4.67581606      0.930077016     -0.246999994       206.056686     -0.285389781    
  -4.76741982       0.00000000     -0.246999994       206.056686     -0.285389781    
  -5.48999977       0.00000000     -0.157000005       206.056686     -0.285389781    
  -5.07209921       2.10093188     -0.157000005       205.959564     -0.285170376    
  -4.40452194       1.82441294     -0.246999994       205.959564     -0.285170376    
  -4.67581606      0.930077016     -0.246999994       205.959564     -0.285170376    
  -5.38451099       1.07104599     -0.157000005       205.959564     -0.285170376    
  -4.56476784       3.05008101     -0.157000005       205.974701     -0.284745455    
  -3.96396494       2.64863706     -0.246999994       205.974701     -0.284745455    
  -4.40452194       1.82441294     -0.246999994       205.974701     -0.284745455    
  -5.07209921       2.10093188     -0.157000005       205.974701     -0.284745455    
  -3.88201594       3.88201594     -0.157000005       206.744919     -0.282727152    
  -3.37107491       3.37107491     -0.246999994       206.744919     -0.282727152    
  -3.96396494       2.64863706     -0.246999994       206.744919     -0.282727152    
  -4.56476784       3.05008101     -0.157000005       206.744919     -0.282727152    
  -3.05008101       4.56476784     -0.157000005       206.148895     -0.286723644    
  -2.64863706       3.96396494     -0.246999994       206.148895     -0.286723644    
  -3.37107491       3.37107491     -0.246999994       206.148895     -0.286723644    
  -3.88201594       3.88201594     -0.157000005       206.148895     -0.286723644    
  -2.10093188       5.07209921     -0.157000005       206.766495     -0.284393191    
  -1.82441294       4.40452194     -0.246999994       206.766495     -0.284393191    
  -2.64863706       3.96396494     -0.246999994       206.766495     -0.284393191    
  -3.05008101       4.56476784     -0.157000005       206.766495     -0.284393191    
  -1.07104599       5.38451099     -0.157000005       206.119812     -0.287432045    
 -0.930077016       4.67581606     -0.246999994       206.119812     -0.287432045    
  -1.82441294       4.40452194     -0.246999994       206.119812     -0.287432045    
  -2.10093188       5.07209921     -0.157000005       206.119812     -0.287432045    
   0.00000000       5.48999977     -0.157000005       206.698257     -0.284369469    
   0.00000000       4.76741982     -0.246999994       206.698257     -0.284369469    
 -0.930077016       4.67581606     -0.246999994       206.698257     -0.284369469    
  -1.07104599       5.38451099     -0.157000005       206.698257     -0.284369469    
   1.07104599       5.38451099     -0.157000005       206.034225     -0.287159950    
  0.930077016       4.67581606     -0.246999994       206.034225     -0.287159950    
   0.00000000       4.76741982     -0.246999994       206.034225     -0.287159950    
   0.00000000       5.48999977     -0.157000005       206.034225     -0.287159950    
   2.10093188       5.07209921     -0.157000005       206.719162     -0.284857631    
   1.82441294       4.40452194     -0.246999994       206.719162     -0.284857631    
  0.930077016       4.67581606     -0.246999994       206.719162     -0.284857631    
   1.07104599       5.38451099     -0.157000005       206.719162     -0.284857631    
   3.05008101       4.56476784     -0.157000005       206.652802     -0.284692377    
   2.64863706       3.96396494     -0.246999994       206.652802     -0.284692377    
   1.82441294       4.40452194     -0.246999994       206.652802     -0.284692377    
   2.10093188       5.07209921     -0.157000005       206.652802     -0.284692377    
   3.88201594       3.88201594     -0.157000005       205.712036     -0.288102329    
   3.37107491       3.37107491     -0.246999994       205.712036     -0.288102329    
   2.64863706       3.96396494     -0.246999994       205.712036     -0.288102329    
   3.05008101       4.56476784     -0.157000005       205.712036     -0.288102329    
   4.56476784       3.05008101     -0.157000005       205.699097     -0.286222965    
   3.96396494       2.64863706     -0.246999994       205.699097     -0.286222965    
   3.37107491       3.37107491     -0.246999994       205.699097     -0.286222965    
   3.88201594       3.88201594     -0.157000005       205.699097     -0.286222965    
   5.07209921       2.10093188     -0.157000005       205.520477     -0.285649002    
   4.40452194       1.82441294     -0.246999994       205.520477     -0.285649002    
   3.96396494       2.64863706     -0.246999994       205.520477     -0.285649002    
   4.56476784       3.05008101     -0.157000005       205.520477     -0.285649002    
   5.38451099       1.07104599     -0.157000005       206.641388     -0.281577557    
   4.67581606      0.930077016     -0.246999994       206.641388     -0.281577557    
   4.40452194       1.82441294     -0.246999994       206.641388     -0.281577557    
   5.07209921       2.10093188     -0.157000005       206.641388     -0.281577557    
   5.48999977       0.00000000     -0.157000005       207.024628     -0.280637801    
   4.76741982       0.00000000     -0.246999994       207.024628     -0.280637801    
   4.67581606      0.930077016     -0.246999994       207.024628     -0.280637801    
   5.38451099       1.07104599     -0.157000005       207.024628     -0.280637801    
   5.38451099      -1.07104599     -0.157000005       207.238052     -0.279906064    
   4.67581606     -0.930077016     -0.246999994       207.238052     -0.279906064    
   4.76741982       0.00000000     -0.246999994       207.238052     -0.279906064    
   5.48999977       0.00000000     -0.157000005       207.238052     -0.279906064    
   5.07209921      -2.10093188     -0.157000005       207.417404     -0.279100418    
   4.40452194      -1.82441294     -0.246999994       207.417404     -0.279100418    
   4.67581606     -0.930077016     -0.246999994       207.417404     -0.279100418    
   5.38451099      -1.07104599     -0.157000005       207.417404     -0.279100418    
   4.56476784      -3.05008101     -0.157000005       207.608582     -0.278974652    
   3.96396494      -2.64863706     -0.246999994       207.608582     -0.278974652    
   4.40452194      -1.82441294     -0.246999994       207.608582     -0.278974652    
   5.07209921      -2.10093188     -0.157000005       207.608582     -0.278974652    
   3.88201594      -3.88201594     -0.157000005       207.785416     -0.280568719    
   3.37107491      -3.37107491     -0.246999994       207.785416     -0.280568719    
   3.96396494      -2.64863706     -0.246999994       207.785416     -0.280568719    
   4.56476784      -3.05008101     -0.157000005       207.785416     -0.280568719    
   3.05008101      -4.56476784     -0.157000005       207.266113     -0.284832805    
   2.64863706      -3.96396494     -0.246999994       207.266113     -0.284832805    
   3.37107491      -3.37107491     -0.246999994       207.266113     -0.284832805    
   3.88201594      -3.88201594     -0.157000005       207.266113     -0.284832805    
   2.10093188      -5.07209921     -0.157000005       208.139359     -0.282211334    
   1.82441294      -4.40452194     -0.246999994       208.139359     -0.282211334    
   2.64863706      -3.96396494     -0.246999994       208.139359     -0.282211334    
   3.05008101      -4.56476784     -0.157000005       208.139359     -0.282211334    
   1.07104599      -5.38451099     -0.157000005       208.362152     -0.281967402    
  0.930077016      -4.67581606     -0.246999994       208.362152     -0.281967402    
   1.82441294      -4.40452194     -0.246999994       208.362152     -0.281967402    
   2.10093188      -5.07209921     -0.157000005       208.362152     -0.281967402    
   0.00000000      -1.87709999     -0.606999993       711.532349      -1.37718546    
   0.00000000      -1.36500001     -0.606999993       711.532349      -1.37718546    
  0.266297996      -1.33877206     -0.606999993       711.532349      -1.37718546    
  0.366203994      -1.84103203     -0.606999993       711.532349      -1.37718546    
   0.00000000      -1.87709999     -0.606999993       529.644775      -1.32362294    
   0.00000000      -2.59967995     -0.517000020       529.644775      -1.32362294    
 -0.507171988      -2.54972792     -0.517000020       529.644775      -1.32362294    
 -0.366203994      -1.84103203     -0.606999993       529.644775      -1.32362294    
 -0.366203994      -1.84103203     -0.606999993       711.652283      -1.37723279    
 -0.266297996      -1.33877206     -0.606999993       711.652283      -1.37723279    
   0.00000000      -1.36500001     -0.606999993       711.652283      -1.37723279    
   0.00000000      -1.87709999     -0.606999993       711.652283      -1.37723279    
 -0.366203994      -1.84103203     -0.606999993       523.277649      -1.32066941    
 -0.507171988      -2.54972792     -0.517000020       523.277649      -1.32066941    
 -0.994853973      -2.40179110     -0.517000020       523.277649      -1.32066941    
 -0.718334973      -1.73421395     -0.606999993       523.277649      -1.32066941    
 -0.718334973      -1.73421395     -0.606999993       708.959595      -1.37653863    
 -0.522363007      -1.26109600     -0.606999993       708.959595      -1.37653863    
 -0.266297996      -1.33877206     -0.606999993       708.959595      -1.37653863    
 -0.366203994      -1.84103203     -0.606999993       708.959595      -1.37653863    
 -0.718334973      -1.73421395     -0.606999993       517.972290      -1.31819487    
 -0.994853973      -2.40179110     -0.517000020       517.972290      -1.31819487    
  -1.44430494      -2.16155505     -0.517000020       517.972290      -1.31819487    
  -1.04286098      -1.56075203     -0.606999993       517.972290      -1.31819487    
  -1.04286098      -1.56075203     -0.606999993       707.110840      -1.37610090    
 -0.758352995      -1.13495600     -0.606999993       707.110840      -1.37610090    
 -0.522363007      -1.26109600     -0.606999993       707.110840      -1.37610090    
 -0.718334973      -1.73421395     -0.606999993       707.110840      -1.37610090    
  -1.04286098      -1.56075203     -0.606999993       519.419556      -1.31902671    
  -1.44430494      -2.16155505     -0.517000020       519.419556      -1.31902671    
  -1.83825099      -1.83825099     -0.517000020       519.419556      -1.31902671    
  -1.32730997      -1.32730997     -0.606999993       519.419556      -1.31902671    
  -1.32730997      -1.32730997     -0.606999993       709.224731      -1.37676406    
 -0.965201020     -0.965201020     -0.606999993       709.224731      -1.37676406    
 -0.758352995      -1.13495600     -0.606999993       709.224731      -1.37676406    
  -1.04286098      -1.56075203     -0.606999993       709.224731      -1.37676406    
  -1.32730997      -1.32730997     -0.606999993       526.462036      -1.32254732    
  -1.83825099      -1.83825099     -0.517000020       526.462036      -1.32254732    
  -2.16155505      -1.44430494     -0.517000020       526.462036      -1.32254732    
  -1.56075203      -1.04286098     -0.606999993       526.462036      -1.32254732    
  -1.56075203      -1.04286098     -0.606999993       714.578308      -1.37830853    
  -1.13495600     -0.758352995     -0.606999993       714.578308      -1.37830853    
 -0.965201020     -0.965201020     -0.606999993       714.578308      -1.37830853    
  -1.32730997      -1.32730997     -0.606999993       714.578308      -1.37830853    
  -1.56075203      -1.04286098     -0.606999993       532.360840      -1.32545054    
  -2.16155505      -1.44430494     -0.517000020       532.360840      -1.32545054    
  -2.40179110     -0.994853973     -0.517000020       532.360840      -1.32545054    
  -1.73421395     -0.718334973     -0.606999993       532.360840      -1.32545054    
  -1.73421395     -0.718334973     -0.606999993       719.431641      -1.37968600    
  -1.26109600     -0.522363007     -0.606999993       719.431641      -1.37968600    
  -1.13495600     -0.758352995     -0.606999993       719.431641      -1.37968600    
  -1.56075203      -1.04286098     -0.606999993       719.431641      -1.37968600    
  -1.73421395     -0.718334973     -0.606999993       532.051453      -1.32544267    
  -2.40179110     -0.994853973     -0.517000020       532.051453      -1.32544267    
  -2.54972792     -0.507171988     -0.517000020       532.051453      -1.32544267    
  -1.84103203     -0.366203994     -0.606999993       532.051453      -1.32544267    
  -1.84103203     -0.366203994     -0.606999993       720.985229      -1.38016999    
  -1.33877206     -0.266297996     -0.606999993       720.985229      -1.38016999    
  -1.26109600     -0.522363007     -0.606999993       720.985229      -1.38016999    
  -1.73421395     -0.718334973     -0.606999993       720.985229      -1.38016999    
  -1.84103203     -0.366203994     -0.606999993       528.811279      -1.32405066    
  -2.54972792     -0.507171988     -0.517000020       528.811279      -1.32405066    
  -2.59967995       0.00000000     -0.517000020       528.811279      -1.32405066    
  -1.87709999       0.00000000     -0.606999993       528.811279      -1.32405066    
  -1.87709999       0.00000000     -0.606999993       720.419556      -1.38008344    
  -1.36500001       0.00000000     -0.606999993       720.419556      -1.38008344    
  -1.33877206     -0.266297996     -0.606999993       720.419556      -1.38008344    
  -1.84103203     -0.366203994     -0.606999993       720.419556      -1.38008344    
  -1.87709999       0.00000000     -0.606999993       529.197571      -1.32432353    
  -2.59967995       0.00000000     -0.517000020       529.197571      -1.32432353    
  -2.54972792      0.507171988     -0.517000020       529.197571      -1.32432353    
  -1.84103203      0.366203994     -0.606999993       529.197571      -1.32432353    
  -1.84103203      0.366203994     -0.606999993       720.759888      -1.38022232    
  -1.33877206      0.266297996     -0.606999993       720.759888      -1.38022232    
  -1.36500001       0.00000000     -0.606999993       720.759888      -1.38022232    
  -1.87709999       0.00000000     -0.606999993       720.759888      -1.38022232    
  -1.84103203      0.366203994     -0.606999993       534.218933      -1.32672095    
  -2.54972792      0.507171988     -0.517000020       534.218933      -1.32672095    
  -2.40179110      0.994853973     -0.517000020       534.218933      -1.32672095    
  -1.73421395      0.718334973     -0.606999993       534.218933      -1.32672095    
  -1.73421395      0.718334973     -0.606999993       722.572021      -1.38073611    
  -1.26109600      0.522363007     -0.606999993       722.572021      -1.38073611    
  -1.33877206      0.266297996     -0.606999993       722.572021      -1.38073611    
  -1.84103203      0.366203994     -0.606999993       722.572021      -1.38073611    
  -1.73421395      0.718334973     -0.606999993       537.816711      -1.32841659    
  -2.40179110      0.994853973     -0.517000020       537.816711      -1.32841659    
  -2.16155505       1.44430494     -0.517000020       537.816711      -1.32841659    
  -1.56075203       1.04286098     -0.606999993       537.816711      -1.32841659    
  -1.56075203       1.04286098     -0.606999993       723.165955      -1.38092160    
  -1.13495600      0.758352995     -0.606999993       723.165955      -1.38092160    
  -1.26109600      0.522363007     -0.606999993       723.165955      -1.38092160    
  -1.73421395      0.718334973     -0.606999993       723.165955      -1.38092160    
  -1.56075203       1.04286098     -0.606999993       534.500122      -1.32695615    
  -2.16155505       1.44430494     -0.517000020       534.500122      -1.32695615    
  -1.83825099       1.83825099     -0.517000020       534.500122      -1.32695615    
  -1.32730997       1.32730997     -0.606999993       534.500122      -1.32695615    
  -1.32730997       1.32730997     -0.606999993       720.380249      -1.38021386    
 -0.965201020      0.965201020     -0.606999993       720.380249      -1.38021386    
  -1.13495600      0.758352995     -0.606999993       720.380249      -1.38021386    
  -1.56075203       1.04286098     -0.606999993       720.380249      -1.38021386    
  -1.32730997       1.32730997     -0.606999993       527.557068      -1.32377732    
  -1.83825099       1.83825099     -0.517000020       527.557068      -1.32377732    
  -1.44430494       2.16155505     -0.517000020       527.557068      -1.32377732    
  -1.04286098       1.56075203     -0.606999993       527.557068      -1.32377732    
  -1.04286098       1.56075203     -0.606999993       715.883728      -1.37904418    
 -0.758352995       1.13495600     -0.606999993       715.883728      -1.37904418    
 -0.965201020      0.965201020     -0.606999993       715.883728      -1.37904418    
  -1.32730997       1.32730997     -0.606999993       715.883728      -1.37904418    
  -1.04286098       1.56075203     -0.606999993       524.648499      -1.32243884    
  -1.44430494       2.16155505     -0.517000020       524.648499      -1.32243884    
 -0.994853973       2.40179110     -0.517000020       524.648499      -1.32243884    
 -0.718334973       1.73421395     -0.606999993       524.648499      -1.32243884    
 -0.718334973       1.73421395     -0.606999993       713.465881      -1.37842059    
 -0.522363007       1.26109600     -0.606999993       713.465881      -1.37842059    
 -0.758352995       1.13495600     -0.606999993       713.465881      -1.37842059    
  -1.04286098       1.56075203     -0.606999993       713.465881      -1.37842059    
 -0.718334973       1.73421395     -0.606999993       528.461426      -1.32426655    
 -0.994853973       2.40179110     -0.517000020       528.461426      -1.32426655    
 -0.507171988       2.54972792     -0.517000020       528.461426      -1.32426655    
 -0.366203994       1.84103203     -0.606999993       528.461426      -1.32426655    
 -0.366203994       1.84103203     -0.606999993       714.584351      -1.37874413    
 -0.266297996       1.33877206     -0.606999993       714.584351      -1.37874413    
 -0.522363007       1.26109600     -0.606999993       714.584351      -1.37874413    
 -0.718334973       1.73421395     -0.606999993       714.584351      -1.37874413    
 -0.366203994       1.84103203     -0.606999993       534.002747      -1.32686484    
 -0.507171988       2.54972792     -0.517000020       534.002747      -1.32686484    
   0.00000000       2.59967995     -0.517000020       534.002747      -1.32686484    
   0.00000000       1.87709999     -0.606999993       534.002747      -1.32686484    
   0.00000000       1.87709999     -0.606999993       716.787476      -1.37935793    
   0.00000000       1.36500001     -0.606999993       716.787476      -1.37935793    
 -0.266297996       1.33877206     -0.606999993       716.787476      -1.37935793    
 -0.366203994       1.84103203     -0.606999993       716.787476      -1.37935793    
   0.00000000       1.87709999     -0.606999993       533.985413      -1.32688701    
   0.00000000       2.59967995     -0.517000020       533.985413      -1.32688701    
  0.507171988       2.54972792     -0.517000020       533.985413      -1.32688701    
  0.366203994       1.84103203     -0.606999993       533.985413      -1.32688701    
  0.366203994       1.84103203     -0.606999993       716.755310      -1.37937331    
  0.266297996       1.33877206     -0.606999993       716.755310      -1.37937331    
   0.00000000       1.36500001     -0.606999993       716.755310      -1.37937331    
   0.00000000       1.87709999     -0.606999993       716.755310      -1.37937331    
  0.366203994       1.84103203     -0.606999993       528.404114      -1.32432544    
  0.507171988       2.54972792     -0.517000020       528.404114      -1.32432544    
  0.994853973       2.40179110     -0.517000020       528.404114      -1.32432544    
  0.718334973       1.73421395     -0.606999993       528.404114      -1.32432544    
  0.718334973       1.73421395     -0.606999993       714.494202      -1.37878764    
  0.522363007       1.26109600     -0.606999993       714.494202      -1.37878764    
  0.266297996       1.33877206     -0.606999993       714.494202      -1.37878764    
  0.366203994       1.84103203     -0.606999993       714.494202      -1.37878764    
  0.718334973       1.73421395     -0.606999993       524.577515      -1.32253516    
  0.994853973       2.40179110     -0.517000020       524.577515      -1.32253516    
   1.44430494       2.16155505     -0.517000020       524.577515      -1.32253516    
   1.04286098       1.56075203     -0.606999993       524.577515      -1.32253516    
   1.04286098       1.56075203     -0.606999993       713.341980      -1.37848997    
  0.758352995       1.13495600     -0.606999993       713.341980      -1.37848997    
  0.522363007       1.26109600     -0.606999993       713.341980      -1.37848997    
  0.718334973       1.73421395     -0.606999993       713.341980      -1.37848997    
   1.04286098       1.56075203     -0.606999993       527.490356      -1.32389534    
   1.44430494       2.16155505     -0.517000020       527.490356      -1.32389534    
   1.83825099       1.83825099     -0.517000020       527.490356      -1.32389534    
   1.32730997       1.32730997     -0.606999993       527.490356      -1.32389534    
   1.32730997       1.32730997     -0.606999993       715.726257      -1.37912190    
  0.965201020      0.965201020     -0.606999993       715.726257      -1.37912190    
  0.758352995       1.13495600     -0.606999993       715.726257      -1.37912190    
   1.04286098       1.56075203     -0.606999993       715.726257      -1.37912190    
   1.32730997       1.32730997     -0.606999993       534.452454      -1.32707357    
   1.83825099       1.83825099     -0.517000020       534.452454      -1.32707357    
   2.16155505       1.44430494     -0.517000020       534.452454      -1.32707357    
   1.56075203       1.04286098     -0.606999993       534.452454      -1.32707357    
   1.56075203       1.04286098     -0.606999993       720.161011      -1.38027287    
   1.13495600      0.758352995     -0.606999993       720.161011      -1.38027287    
  0.965201020      0.965201020     -0.606999993       720.161011      -1.38027287    
   1.32730997       1.32730997     -0.606999993       720.161011      -1.38027287    
   1.56075203       1.04286098     -0.606999993       537.769714      -1.32849574    
   2.16155505       1.44430494     -0.517000020       537.769714      -1.32849574    
   2.40179110      0.994853973     -0.517000020       537.769714      -1.32849574    
   1.73421395      0.718334973     -0.606999993       537.769714      -1.32849574    
   1.73421395      0.718334973     -0.606999993       722.814514      -1.38093662    
   1.26109600      0.522363007     -0.606999993       722.814514      -1.38093662    
   1.13495600      0.758352995     -0.606999993       722.814514      -1.38093662    
   1.56075203       1.04286098     -0.606999993       722.814514      -1.38093662    
   1.73421395      0.718334973     -0.606999993       534.121643      -1.32672548    
   2.40179110      0.994853973     -0.517000020       534.121643      -1.32672548    
   2.54972792      0.507171988     -0.517000020       534.121643      -1.32672548    
   1.84103203      0.366203994     -0.606999993       534.121643      -1.32672548    
   1.84103203      0.366203994     -0.606999993       722.075867      -1.38069165    
   1.33877206      0.266297996     -0.606999993       722.075867      -1.38069165    
   1.26109600      0.522363007     -0.606999993       722.075867      -1.38069165    
   1.73421395      0.718334973     -0.606999993       722.075867      -1.38069165    
   1.84103203      0.366203994     -0.606999993       529.026428      -1.32423067    
   2.54972792      0.507171988     -0.517000020       529.026428      -1.32423067    
   2.59967995       0.00000000     -0.517000020       529.026428      -1.32423067    
   1.87709999       0.00000000     -0.606999993       529.026428      -1.32423067    
   1.87709999       0.00000000     -0.606999993       720.143616      -1.38011026    
   1.36500001       0.00000000     -0.606999993       720.143616      -1.38011026    
   1.33877206      0.266297996     -0.606999993       720.143616      -1.38011026    
   1.84103203      0.366203994     -0.606999993       720.143616      -1.38011026    
   1.87709999       0.00000000     -0.606999993       528.579468      -1.32386959    
   2.59967995       0.00000000     -0.517000020       528.579468      -1.32386959    
   2.54972792     -0.507171988     -0.517000020       528.579468      -1.32386959    
   1.84103203     -0.366203994     -0.606999993       528.579468      -1.32386959    
   1.84103203     -0.366203994     -0.606999993       719.698059      -1.37990189    
   1.33877206     -0.266297996     -0.606999993       719.698059      -1.37990189    
   1.36500001       0.00000000     -0.606999993       719.698059      -1.37990189    
   1.87709999       0.00000000     -0.606999993       719.698059      -1.37990189    
   1.84103203     -0.366203994     -0.606999993       531.775146      -1.32519937    
   2.54972792     -0.507171988     -0.517000020       531.775146      -1.32519937    
   2.40179110     -0.994853973     -0.517000020       531.775146      -1.32519937    
   1.73421395     -0.718334973     -0.606999993       531.775146      -1.32519937    
   1.73421395     -0.718334973     -0.606999993       720.185303      -1.37993002    
   1.26109600     -0.522363007     -0.606999993       720.185303      -1.37993002    
   1.33877206     -0.266297996     -0.606999993       720.185303      -1.37993002    
   1.84103203     -0.366203994     -0.606999993       720.185303      -1.37993002    
   1.73421395     -0.718334973     -0.606999993       532.039673      -1.32516193    
   2.40179110     -0.994853973     -0.517000020       532.039673      -1.32516193    
   2.16155505      -1.44430494     -0.517000020       532.039673      -1.32516193    
   1.56075203      -1.04286098     -0.606999993       532.039673      -1.32516193    
   1.56075203      -1.04286098     -0.606999993       718.622131      -1.37940729    
   1.13495600     -0.758352995     -0.606999993       718.622131      -1.37940729    
   1.26109600     -0.522363007     -0.606999993       718.622131      -1.37940729    