 VARIABLES="X" "Y" "Z" "abs(p) (Pa)" "angle(p) (rad)"
ZONE N=   2709,E =    2358, F=FEPOINT, ET=QUADRILATERAL
   0.00000000      -5.48999977     -0.157000005       4410.34912      -1.25577140    
   0.00000000      -4.76741982     -0.246999994       4410.34912      -1.25577140    
  0.930077016      -4.67581606     -0.246999994       4410.34912      -1.25577140    
   1.07104599      -5.38451099     -0.157000005       4410.34912      -1.25577140    
  -1.07104599      -5.38451099     -0.157000005       4413.72559      -1.25620079    
 -0.930077016      -4.67581606     -0.246999994       4413.72559      -1.25620079    
   0.00000000      -4.76741982     -0.246999994       4413.72559      -1.25620079    
   0.00000000      -5.48999977     -0.157000005       4413.72559      -1.25620079    
  -2.10093188      -5.07209921     -0.157000005       4279.29736      -1.26113403    
  -1.82441294      -4.40452194     -0.246999994       4279.29736      -1.26113403    
 -0.930077016      -4.67581606     -0.246999994       4279.29736      -1.26113403    
  -1.07104599      -5.38451099     -0.157000005       4279.29736      -1.26113403    
  -3.05008101      -4.56476784     -0.157000005       3914.84985      -1.25662029    
  -2.64863706      -3.96396494     -0.246999994       3914.84985      -1.25662029    
  -1.82441294      -4.40452194     -0.246999994       3914.84985      -1.25662029    
  -2.10093188      -5.07209921     -0.157000005       3914.84985      -1.25662029    
  -3.88201594      -3.88201594     -0.157000005       3433.35156      -1.25675178    
  -3.37107491      -3.37107491     -0.246999994       3433.35156      -1.25675178    
  -2.64863706      -3.96396494     -0.246999994       3433.35156      -1.25675178    
  -3.05008101      -4.56476784     -0.157000005       3433.35156      -1.25675178    
  -4.56476784      -3.05008101     -0.157000005       2850.18237      -1.26345050    
  -3.96396494      -2.64863706     -0.246999994       2850.18237      -1.26345050    
  -3.37107491      -3.37107491     -0.246999994       2850.18237      -1.26345050    
  -3.88201594      -3.88201594     -0.157000005       2850.18237      -1.26345050    
  -5.07209921      -2.10093188     -0.157000005       2099.17749      -1.25820887    
  -4.40452194      -1.82441294     -0.246999994       2099.17749      -1.25820887    
  -3.96396494      -2.64863706     -0.246999994       2099.17749      -1.25820887    
  -4.56476784      -3.05008101     -0.157000005       2099.17749      -1.25820887    
  -5.38451099      -1.07104599     -0.157000005       1286.50256      -1.25577450    
  -4.67581606     -0.930077016     -0.246999994       1286.50256      -1.25577450    
  -4.40452194      -1.82441294     -0.246999994       1286.50256      -1.25577450    
  -5.07209921      -2.10093188     -0.157000005       1286.50256      -1.25577450    
  -5.48999977       0.00000000     -0.157000005       432.160736      -1.25488806    
  -4.76741982       0.00000000     -0.246999994       432.160736      -1.25488806    
  -4.67581606     -0.930077016     -0.246999994       432.160736      -1.25488806    
  -5.38451099      -1.07104599     -0.157000005       432.160736      -1.25488806    
  -5.38451099       1.07104599     -0.157000005       447.066589       1.87246072    
  -4.67581606      0.930077016     -0.246999994       447.066589       1.87246072    
  -4.76741982       0.00000000     -0.246999994       447.066589       1.87246072    
  -5.48999977       0.00000000     -0.157000005       447.066589       1.87246072    
  -5.07209921       2.10093188     -0.157000005       1310.05286       1.87694347    
  -4.40452194       1.82441294     -0.246999994       1310.05286       1.87694347    
  -4.67581606      0.930077016     -0.246999994       1310.05286       1.87694347    
  -5.38451099       1.07104599     -0.157000005       1310.05286       1.87694347    
  -4.56476784       3.05008101     -0.157000005       2120.27197       1.87876177    
  -3.96396494       2.64863706     -0.246999994       2120.27197       1.87876177    
  -4.40452194       1.82441294     -0.246999994       2120.27197       1.87876177    
  -5.07209921       2.10093188     -0.157000005       2120.27197       1.87876177    
  -3.88201594       3.88201594     -0.157000005       2826.96875       1.88426650    
  -3.37107491       3.37107491     -0.246999994       2826.96875       1.88426650    
  -3.96396494       2.64863706     -0.246999994       2826.96875       1.88426650    
  -4.56476784       3.05008101     -0.157000005       2826.96875       1.88426650    
  -3.05008101       4.56476784     -0.157000005       3466.74878       1.88023436    
  -2.64863706       3.96396494     -0.246999994       3466.74878       1.88023436    
  -3.37107491       3.37107491     -0.246999994       3466.74878       1.88023436    
  -3.88201594       3.88201594     -0.157000005       3466.74878       1.88023436    
  -2.10093188       5.07209921     -0.157000005       3923.54102       1.88488114    
  -1.82441294       4.40452194     -0.246999994       3923.54102       1.88488114    
  -2.64863706       3.96396494     -0.246999994       3923.54102       1.88488114    
  -3.05008101       4.56476784     -0.157000005       3923.54102       1.88488114    
  -1.07104599       5.38451099     -0.157000005       4286.04443       1.88081443    
 -0.930077016       4.67581606     -0.246999994       4286.04443       1.88081443    
  -1.82441294       4.40452194     -0.246999994       4286.04443       1.88081443    
  -2.10093188       5.07209921     -0.157000005       4286.04443       1.88081443    
   0.00000000       5.48999977     -0.157000005       4424.64209       1.88533056    
   0.00000000       4.76741982     -0.246999994       4424.64209       1.88533056    
 -0.930077016       4.67581606     -0.246999994       4424.64209       1.88533056    
  -1.07104599       5.38451099     -0.157000005       4424.64209       1.88533056    
   1.07104599       5.38451099     -0.157000005       4455.35107       1.88126218    
  0.930077016       4.67581606     -0.246999994       4455.35107       1.88126218    
   0.00000000       4.76741982     -0.246999994       4455.35107       1.88126218    
   0.00000000       5.48999977     -0.157000005       4455.35107       1.88126218    
   2.10093188       5.07209921     -0.157000005       4251.55469       1.88605464    
   1.82441294       4.40452194     -0.246999994       4251.55469       1.88605464    
  0.930077016       4.67581606     -0.246999994       4251.55469       1.88605464    
   1.07104599       5.38451099     -0.157000005       4251.55469       1.88605464    
   3.05008101       4.56476784     -0.157000005       3918.52686       1.88627040    
   2.64863706       3.96396494     -0.246999994       3918.52686       1.88627040    
   1.82441294       4.40452194     -0.246999994       3918.52686       1.88627040    
   2.10093188       5.07209921     -0.157000005       3918.52686       1.88627040    
   3.88201594       3.88201594     -0.157000005       3469.32520       1.88056421    
   3.37107491       3.37107491     -0.246999994       3469.32520       1.88056421    
   2.64863706       3.96396494     -0.246999994       3469.32520       1.88056421    
   3.05008101       4.56476784     -0.157000005       3469.32520       1.88056421    
   4.56476784       3.05008101     -0.157000005       2847.81641       1.88088250    
   3.96396494       2.64863706     -0.246999994       2847.81641       1.88088250    
   3.37107491       3.37107491     -0.246999994       2847.81641       1.88088250    
   3.88201594       3.88201594     -0.157000005       2847.81641       1.88088250    
   5.07209921       2.10093188     -0.157000005       2122.67358       1.87943792    
   4.40452194       1.82441294     -0.246999994       2122.67358       1.87943792    
   3.96396494       2.64863706     -0.246999994       2122.67358       1.87943792    
   4.56476784       3.05008101     -0.157000005       2122.67358       1.87943792    
   5.38451099       1.07104599     -0.157000005       1294.00977       1.88655555    
   4.67581606      0.930077016     -0.246999994       1294.00977       1.88655555    
   4.40452194       1.82441294     -0.246999994       1294.00977       1.88655555    
   5.07209921       2.10093188     -0.157000005       1294.00977       1.88655555    
   5.48999977       0.00000000     -0.157000005       434.547943       1.89547217    
   4.76741982       0.00000000     -0.246999994       434.547943       1.89547217    
   4.67581606      0.930077016     -0.246999994       434.547943       1.89547217    
   5.38451099       1.07104599     -0.157000005       434.547943       1.89547217    
   5.38451099      -1.07104599     -0.157000005       436.921539      -1.26656687    
   4.67581606     -0.930077016     -0.246999994       436.921539      -1.26656687    
   4.76741982       0.00000000     -0.246999994       436.921539      -1.26656687    
   5.48999977       0.00000000     -0.157000005       436.921539      -1.26656687    
   5.07209921      -2.10093188     -0.157000005       1290.76917      -1.25931954    
   4.40452194      -1.82441294     -0.246999994       1290.76917      -1.25931954    
   4.67581606     -0.930077016     -0.246999994       1290.76917      -1.25931954    
   5.38451099      -1.07104599     -0.157000005       1290.76917      -1.25931954    
   4.56476784      -3.05008101     -0.157000005       2094.78589      -1.25776792    
   3.96396494      -2.64863706     -0.246999994       2094.78589      -1.25776792    
   4.40452194      -1.82441294     -0.246999994       2094.78589      -1.25776792    
   5.07209921      -2.10093188     -0.157000005       2094.78589      -1.25776792    
   3.88201594      -3.88201594     -0.157000005       2820.36182      -1.25766683    
   3.37107491      -3.37107491     -0.246999994       2820.36182      -1.25766683    
   3.96396494      -2.64863706     -0.246999994       2820.36182      -1.25766683    
   4.56476784      -3.05008101     -0.157000005       2820.36182      -1.25766683    
   3.05008101      -4.56476784     -0.157000005       3462.06201      -1.26211119    
   2.64863706      -3.96396494     -0.246999994       3462.06201      -1.26211119    
   3.37107491      -3.37107491     -0.246999994       3462.06201      -1.26211119    
   3.88201594      -3.88201594     -0.157000005       3462.06201      -1.26211119    
   2.10093188      -5.07209921     -0.157000005       3914.76245      -1.25684226    
   1.82441294      -4.40452194     -0.246999994       3914.76245      -1.25684226    
   2.64863706      -3.96396494     -0.246999994       3914.76245      -1.25684226    
   3.05008101      -4.56476784     -0.157000005       3914.76245      -1.25684226    
   1.07104599      -5.38451099     -0.157000005       4241.74023      -1.25593078    
  0.930077016      -4.67581606     -0.246999994       4241.74023      -1.25593078    
   1.82441294      -4.40452194     -0.246999994       4241.74023      -1.25593078    
   2.10093188      -5.07209921     -0.157000005       4241.74023      -1.25593078    
   0.00000000      -1.87709999     -0.606999993       3336.56152      -1.48013735    
   0.00000000      -1.36500001     -0.606999993       3336.56152      -1.48013735    
  0.266297996      -1.33877206     -0.606999993       3336.56152      -1.48013735    
  0.366203994      -1.84103203     -0.606999993       3336.56152      -1.48013735    
   0.00000000      -1.87709999     -0.606999993       3924.98022      -1.46688163    
   0.00000000      -2.59967995     -0.517000020       3924.98022      -1.46688163    
 -0.507171988      -2.54972792     -0.517000020       3924.98022      -1.46688163    
 -0.366203994      -1.84103203     -0.606999993       3924.98022      -1.46688163    
 -0.366203994      -1.84103203     -0.606999993       3338.34570      -1.48010981    
 -0.266297996      -1.33877206     -0.606999993       3338.34570      -1.48010981    
   0.00000000      -1.36500001     -0.606999993       3338.34570      -1.48010981    
   0.00000000      -1.87709999     -0.606999993       3338.34570      -1.48010981    
 -0.366203994      -1.84103203     -0.606999993       3764.56567      -1.46644425    
 -0.507171988      -2.54972792     -0.517000020       3764.56567      -1.46644425    
 -0.994853973      -2.40179110     -0.517000020       3764.56567      -1.46644425    
 -0.718334973      -1.73421395     -0.606999993       3764.56567      -1.46644425    
 -0.718334973      -1.73421395     -0.606999993       3207.28564      -1.47974420    
 -0.522363007      -1.26109600     -0.606999993       3207.28564      -1.47974420    
 -0.266297996      -1.33877206     -0.606999993       3207.28564      -1.47974420    
 -0.366203994      -1.84103203     -0.606999993       3207.28564      -1.47974420    
 -0.718334973      -1.73421395     -0.606999993       3462.03540      -1.46583581    
 -0.994853973      -2.40179110     -0.517000020       3462.03540      -1.46583581    
  -1.44430494      -2.16155505     -0.517000020       3462.03540      -1.46583581    
  -1.04286098      -1.56075203     -0.606999993       3462.03540      -1.46583581    
  -1.04286098      -1.56075203     -0.606999993       2953.69946      -1.47922492    
 -0.758352995      -1.13495600     -0.606999993       2953.69946      -1.47922492    
 -0.522363007      -1.26109600     -0.606999993       2953.69946      -1.47922492    
 -0.718334973      -1.73421395     -0.606999993       2953.69946      -1.47922492    
  -1.04286098      -1.56075203     -0.606999993       3036.45630      -1.46539700    
  -1.44430494      -2.16155505     -0.517000020       3036.45630      -1.46539700    
  -1.83825099      -1.83825099     -0.517000020       3036.45630      -1.46539700    
  -1.32730997      -1.32730997     -0.606999993       3036.45630      -1.46539700    
  -1.32730997      -1.32730997     -0.606999993       2590.54028      -1.47880530    
 -0.965201020     -0.965201020     -0.606999993       2590.54028      -1.47880530    
 -0.758352995      -1.13495600     -0.606999993       2590.54028      -1.47880530    
  -1.04286098      -1.56075203     -0.606999993       2590.54028      -1.47880530    
  -1.32730997      -1.32730997     -0.606999993       2498.91064      -1.46542406    
  -1.83825099      -1.83825099     -0.517000020       2498.91064      -1.46542406    
  -2.16155505      -1.44430494     -0.517000020       2498.91064      -1.46542406    
  -1.56075203      -1.04286098     -0.606999993       2498.91064      -1.46542406    
  -1.56075203      -1.04286098     -0.606999993       2129.98462      -1.47870636    
  -1.13495600     -0.758352995     -0.606999993       2129.98462      -1.47870636    
 -0.965201020     -0.965201020     -0.606999993       2129.98462      -1.47870636    
  -1.32730997      -1.32730997     -0.606999993       2129.98462      -1.47870636    
  -1.56075203      -1.04286098     -0.606999993       1860.86316      -1.46602786    
  -2.16155505      -1.44430494     -0.517000020       1860.86316      -1.46602786    
  -2.40179110     -0.994853973     -0.517000020       1860.86316      -1.46602786    
  -1.73421395     -0.718334973     -0.606999993       1860.86316      -1.46602786    
  -1.73421395     -0.718334973     -0.606999993       1585.55286      -1.47891343    
  -1.26109600     -0.522363007     -0.606999993       1585.55286      -1.47891343    
  -1.13495600     -0.758352995     -0.606999993       1585.55286      -1.47891343    
  -1.56075203      -1.04286098     -0.606999993       1585.55286      -1.47891343    
  -1.73421395     -0.718334973     -0.606999993       1144.62500      -1.46683860    
  -2.40179110     -0.994853973     -0.517000020       1144.62500      -1.46683860    
  -2.54972792     -0.507171988     -0.517000020       1144.62500      -1.46683860    
  -1.84103203     -0.366203994     -0.606999993       1144.62500      -1.46683860    
  -1.84103203     -0.366203994     -0.606999993       976.656555      -1.47906911    
  -1.33877206     -0.266297996     -0.606999993       976.656555      -1.47906911    
  -1.26109600     -0.522363007     -0.606999993       976.656555      -1.47906911    
  -1.73421395     -0.718334973     -0.606999993       976.656555      -1.47906911    
  -1.84103203     -0.366203994     -0.606999993       383.401886      -1.46663165    
  -2.54972792     -0.507171988     -0.517000020       383.401886      -1.46663165    
  -2.59967995       0.00000000     -0.517000020       383.401886      -1.46663165    
  -1.87709999       0.00000000     -0.606999993       383.401886      -1.46663165    
  -1.87709999       0.00000000     -0.606999993       328.330780      -1.47720754    
  -1.36500001       0.00000000     -0.606999993       328.330780      -1.47720754    
  -1.33877206     -0.266297996     -0.606999993       328.330780      -1.47720754    
  -1.84103203     -0.366203994     -0.606999993       328.330780      -1.47720754    
  -1.87709999       0.00000000     -0.606999993       391.038300       1.67157280    
  -2.59967995       0.00000000     -0.517000020       391.038300       1.67157280    
  -2.54972792      0.507171988     -0.517000020       391.038300       1.67157280    
  -1.84103203      0.366203994     -0.606999993       391.038300       1.67157280    
  -1.84103203      0.366203994     -0.606999993       332.956146       1.65710258    
  -1.33877206      0.266297996     -0.606999993       332.956146       1.65710258    
  -1.36500001       0.00000000     -0.606999993       332.956146       1.65710258    
  -1.87709999       0.00000000     -0.606999993       332.956146       1.65710258    
  -1.84103203      0.366203994     -0.606999993       1152.21997       1.67318320    
  -2.54972792      0.507171988     -0.517000020       1152.21997       1.67318320    
  -2.40179110      0.994853973     -0.517000020       1152.21997       1.67318320    
  -1.73421395      0.718334973     -0.606999993       1152.21997       1.67318320    
  -1.73421395      0.718334973     -0.606999993       981.541870       1.65974641    
  -1.26109600      0.522363007     -0.606999993       981.541870       1.65974641    
  -1.33877206      0.266297996     -0.606999993       981.541870       1.65974641    
  -1.84103203      0.366203994     -0.606999993       981.541870       1.65974641    
  -1.73421395      0.718334973     -0.606999993       1870.02307       1.67435086    
  -2.40179110      0.994853973     -0.517000020       1870.02307       1.67435086    
  -2.16155505       1.44430494     -0.517000020       1870.02307       1.67435086    
  -1.56075203       1.04286098     -0.606999993       1870.02307       1.67435086    
  -1.56075203       1.04286098     -0.606999993       1591.58228       1.66076493    
  -1.13495600      0.758352995     -0.606999993       1591.58228       1.66076493    
  -1.26109600      0.522363007     -0.606999993       1591.58228       1.66076493    
  -1.73421395      0.718334973     -0.606999993       1591.58228       1.66076493    
  -1.56075203       1.04286098     -0.606999993       2510.62573       1.67530012    
  -2.16155505       1.44430494     -0.517000020       2510.62573       1.67530012    
  -1.83825099       1.83825099     -0.517000020       2510.62573       1.67530012    
  -1.32730997       1.32730997     -0.606999993       2510.62573       1.67530012    
  -1.32730997       1.32730997     -0.606999993       2137.96973       1.66146612    
 -0.965201020      0.965201020     -0.606999993       2137.96973       1.66146612    
  -1.13495600      0.758352995     -0.606999993       2137.96973       1.66146612    
  -1.56075203       1.04286098     -0.606999993       2137.96973       1.66146612    
  -1.32730997       1.32730997     -0.606999993       3049.73071       1.67567289    
  -1.83825099       1.83825099     -0.517000020       3049.73071       1.67567289    
  -1.44430494       2.16155505     -0.517000020       3049.73071       1.67567289    
  -1.04286098       1.56075203     -0.606999993       3049.73071       1.67567289    
  -1.04286098       1.56075203     -0.606999993       2600.72632       1.66175115    
 -0.758352995       1.13495600     -0.606999993       2600.72632       1.66175115    
 -0.965201020      0.965201020     -0.606999993       2600.72632       1.66175115    
  -1.32730997       1.32730997     -0.606999993       2600.72632       1.66175115    
  -1.04286098       1.56075203     -0.606999993       3475.57812       1.67548931    
  -1.44430494       2.16155505     -0.517000020       3475.57812       1.67548931    
 -0.994853973       2.40179110     -0.517000020       3475.57812       1.67548931    
 -0.718334973       1.73421395     -0.606999993       3475.57812       1.67548931    
 -0.718334973       1.73421395     -0.606999993       2965.87012       1.66165543    
 -0.522363007       1.26109600     -0.606999993       2965.87012       1.66165543    
 -0.758352995       1.13495600     -0.606999993       2965.87012       1.66165543    
  -1.04286098       1.56075203     -0.606999993       2965.87012       1.66165543    
 -0.718334973       1.73421395     -0.606999993       3778.02686       1.67503178    
 -0.994853973       2.40179110     -0.517000020       3778.02686       1.67503178    
 -0.507171988       2.54972792     -0.517000020       3778.02686       1.67503178    
 -0.366203994       1.84103203     -0.606999993       3778.02686       1.67503178    
 -0.366203994       1.84103203     -0.606999993       3221.46460       1.66135895    
 -0.266297996       1.33877206     -0.606999993       3221.46460       1.66135895    
 -0.522363007       1.26109600     -0.606999993       3221.46460       1.66135895    
 -0.718334973       1.73421395     -0.606999993       3221.46460       1.66135895    
 -0.366203994       1.84103203     -0.606999993       3938.86768       1.67468274    
 -0.507171988       2.54972792     -0.517000020       3938.86768       1.67468274    
   0.00000000       2.59967995     -0.517000020       3938.86768       1.67468274    
   0.00000000       1.87709999     -0.606999993       3938.86768       1.67468274    
   0.00000000       1.87709999     -0.606999993       3354.58838       1.66113746    
   0.00000000       1.36500001     -0.606999993       3354.58838       1.66113746    
 -0.266297996       1.33877206     -0.606999993       3354.58838       1.66113746    
 -0.366203994       1.84103203     -0.606999993       3354.58838       1.66113746    
   0.00000000       1.87709999     -0.606999993       3939.13354       1.67469788    
   0.00000000       2.59967995     -0.517000020       3939.13354       1.67469788    
  0.507171988       2.54972792     -0.517000020       3939.13354       1.67469788    
  0.366203994       1.84103203     -0.606999993       3939.13354       1.67469788    
  0.366203994       1.84103203     -0.606999993       3355.15918       1.66116309    
  0.266297996       1.33877206     -0.606999993       3355.15918       1.66116309    
   0.00000000       1.36500001     -0.606999993       3355.15918       1.66116309    
   0.00000000       1.87709999     -0.606999993       3355.15918       1.66116309    
  0.366203994       1.84103203     -0.606999993       3778.91846       1.67509675    
  0.507171988       2.54972792     -0.517000020       3778.91846       1.67509675    
  0.994853973       2.40179110     -0.517000020       3778.91846       1.67509675    
  0.718334973       1.73421395     -0.606999993       3778.91846       1.67509675    
  0.718334973       1.73421395     -0.606999993       3223.28662       1.66146064    
  0.522363007       1.26109600     -0.606999993       3223.28662       1.66146064    
  0.266297996       1.33877206     -0.606999993       3223.28662       1.66146064    
  0.366203994       1.84103203     -0.606999993       3223.28662       1.66146064    
  0.718334973       1.73421395     -0.606999993       3477.15552       1.67559481    
  0.994853973       2.40179110     -0.517000020       3477.15552       1.67559481    
   1.44430494       2.16155505     -0.517000020       3477.15552       1.67559481    
   1.04286098       1.56075203     -0.606999993       3477.15552       1.67559481    
   1.04286098       1.56075203     -0.606999993       2969.15112       1.66181231    
  0.758352995       1.13495600     -0.606999993       2969.15112       1.66181231    
  0.522363007       1.26109600     -0.606999993       2969.15112       1.66181231    
  0.718334973       1.73421395     -0.606999993       2969.15112       1.66181231    
   1.04286098       1.56075203     -0.606999993       3052.09448       1.67582536    
   1.44430494       2.16155505     -0.517000020       3052.09448       1.67582536    
   1.83825099       1.83825099     -0.517000020       3052.09448       1.67582536    
   1.32730997       1.32730997     -0.606999993       3052.09448       1.67582536    
   1.32730997       1.32730997     -0.606999993       2605.48755       1.66198480    
  0.965201020      0.965201020     -0.606999993       2605.48755       1.66198480    
  0.758352995       1.13495600     -0.606999993       2605.48755       1.66198480    
   1.04286098       1.56075203     -0.606999993       2605.48755       1.66198480    
   1.32730997       1.32730997     -0.606999993       2513.73657       1.67551732    
   1.83825099       1.83825099     -0.517000020       2513.73657       1.67551732    
   2.16155505       1.44430494     -0.517000020       2513.73657       1.67551732    
   1.56075203       1.04286098     -0.606999993       2513.73657       1.67551732    
   1.56075203       1.04286098     -0.606999993       2144.27881       1.66180861    
   1.13495600      0.758352995     -0.606999993       2144.27881       1.66180861    
  0.965201020      0.965201020     -0.606999993       2144.27881       1.66180861    
   1.32730997       1.32730997     -0.606999993       2144.27881       1.66180861    
   1.56075203       1.04286098     -0.606999993       1873.73755       1.67467999    
   2.16155505       1.44430494     -0.517000020       1873.73755       1.67467999    
   2.40179110      0.994853973     -0.517000020       1873.73755       1.67467999    
   1.73421395      0.718334973     -0.606999993       1873.73755       1.67467999    
   1.73421395      0.718334973     -0.606999993       1599.30774       1.66130579    
   1.26109600      0.522363007     -0.606999993       1599.30774       1.66130579    
   1.13495600      0.758352995     -0.606999993       1599.30774       1.66130579    
   1.56075203       1.04286098     -0.606999993       1599.30774       1.66130579    
   1.73421395      0.718334973     -0.606999993       1156.38281       1.67379069    
   2.40179110      0.994853973     -0.517000020       1156.38281       1.67379069    
   2.54972792      0.507171988     -0.517000020       1156.38281       1.67379069    
   1.84103203      0.366203994     -0.606999993       1156.38281       1.67379069    
   1.84103203      0.366203994     -0.606999993       990.505554       1.66072059    
   1.33877206      0.266297996     -0.606999993       990.505554       1.66072059    
   1.26109600      0.522363007     -0.606999993       990.505554       1.66072059    
   1.73421395      0.718334973     -0.606999993       990.505554       1.66072059    
   1.84103203      0.366203994     -0.606999993       395.620056       1.67342675    
   2.54972792      0.507171988     -0.517000020       395.620056       1.67342675    
   2.59967995       0.00000000     -0.517000020       395.620056       1.67342675    
   1.87709999       0.00000000     -0.606999993       395.620056       1.67342675    
   1.87709999       0.00000000     -0.606999993       343.000702       1.66007102    
   1.36500001       0.00000000     -0.606999993       343.000702       1.66007102    
   1.33877206      0.266297996     -0.606999993       343.000702       1.66007102    
   1.84103203      0.366203994     -0.606999993       343.000702       1.66007102    
   1.87709999       0.00000000     -0.606999993       378.389099      -1.46840668    
   2.59967995       0.00000000     -0.517000020       378.389099      -1.46840668    
   2.54972792     -0.507171988     -0.517000020       378.389099      -1.46840668    
   1.84103203     -0.366203994     -0.606999993       378.389099      -1.46840668    
   1.84103203     -0.366203994     -0.606999993       317.332764      -1.48013401    
   1.33877206     -0.266297996     -0.606999993       317.332764      -1.48013401    
   1.36500001       0.00000000     -0.606999993       317.332764      -1.48013401    
   1.87709999       0.00000000     -0.606999993       317.332764      -1.48013401    
   1.84103203     -0.366203994     -0.606999993       1139.22510      -1.46733844    
   2.54972792     -0.507171988     -0.517000020       1139.22510      -1.46733844    
   2.40179110     -0.994853973     -0.517000020       1139.22510      -1.46733844    
   1.73421395     -0.718334973     -0.606999993       1139.22510      -1.46733844    
   1.73421395     -0.718334973     -0.606999993       965.017212      -1.47998679    
   1.26109600     -0.522363007     -0.606999993       965.017212      -1.47998679    
   1.33877206     -0.266297996     -0.606999993       965.017212      -1.47998679    
   1.84103203     -0.366203994     -0.606999993       965.017212      -1.47998679    
   1.73421395     -0.718334973     -0.606999993       1855.22461      -1.46626306    
   2.40179110     -0.994853973     -0.517000020       1855.22461      -1.46626306    
   2.16155505      -1.44430494     -0.517000020       1855.22461      -1.46626306    
   1.56075203      -1.04286098     -0.606999993       1855.22461      -1.46626306    
   1.56075203      -1.04286098     -0.606999993       1573.69495      -1.47942626    
   1.13495600     -0.758352995     -0.606999993       1573.69495      -1.47942626    
   1.26109600     -0.522363007     -0.606999993       1573.69495      -1.47942626    