 VARIABLES="X" "Y" "Z" "abs(p) (Pa)" "angle(p) (rad)"
ZONE N=   2709,E =    2358, F=FEPOINT, ET=QUADRILATERAL
   0.00000000      -5.48999977     -0.157000005       1108.40515       2.15013170    
   0.00000000      -4.76741982     -0.246999994       1108.40515       2.15013170    
  0.930077016      -4.67581606     -0.246999994       1108.40515       2.15013170    
   1.07104599      -5.38451099     -0.157000005       1108.40515       2.15013170    
  -1.07104599      -5.38451099     -0.157000005       1109.71826       2.14927554    
 -0.930077016      -4.67581606     -0.246999994       1109.71826       2.14927554    
   0.00000000      -4.76741982     -0.246999994       1109.71826       2.14927554    
   0.00000000      -5.48999977     -0.157000005       1109.71826       2.14927554    
  -2.10093188      -5.07209921     -0.157000005       1116.44043       2.14081216    
  -1.82441294      -4.40452194     -0.246999994       1116.44043       2.14081216    
 -0.930077016      -4.67581606     -0.246999994       1116.44043       2.14081216    
  -1.07104599      -5.38451099     -0.157000005       1116.44043       2.14081216    
  -3.05008101      -4.56476784     -0.157000005       1112.25281       2.14780450    
  -2.64863706      -3.96396494     -0.246999994       1112.25281       2.14780450    
  -1.82441294      -4.40452194     -0.246999994       1112.25281       2.14780450    
  -2.10093188      -5.07209921     -0.157000005       1112.25281       2.14780450    
  -3.88201594      -3.88201594     -0.157000005       1113.23279       2.14691067    
  -3.37107491      -3.37107491     -0.246999994       1113.23279       2.14691067    
  -2.64863706      -3.96396494     -0.246999994       1113.23279       2.14691067    
  -3.05008101      -4.56476784     -0.157000005       1113.23279       2.14691067    
  -4.56476784      -3.05008101     -0.157000005       1120.48926       2.13659358    
  -3.96396494      -2.64863706     -0.246999994       1120.48926       2.13659358    
  -3.37107491      -3.37107491     -0.246999994       1120.48926       2.13659358    
  -3.88201594      -3.88201594     -0.157000005       1120.48926       2.13659358    
  -5.07209921      -2.10093188     -0.157000005       1114.04846       2.14552498    
  -4.40452194      -1.82441294     -0.246999994       1114.04846       2.14552498    
  -3.96396494      -2.64863706     -0.246999994       1114.04846       2.14552498    
  -4.56476784      -3.05008101     -0.157000005       1114.04846       2.14552498    
  -5.38451099      -1.07104599     -0.157000005       1112.54944       2.14727521    
  -4.67581606     -0.930077016     -0.246999994       1112.54944       2.14727521    
  -4.40452194      -1.82441294     -0.246999994       1112.54944       2.14727521    
  -5.07209921      -2.10093188     -0.157000005       1112.54944       2.14727521    
  -5.48999977       0.00000000     -0.157000005       1117.85193       2.13892412    
  -4.76741982       0.00000000     -0.246999994       1117.85193       2.13892412    
  -4.67581606     -0.930077016     -0.246999994       1117.85193       2.13892412    
  -5.38451099      -1.07104599     -0.157000005       1117.85193       2.13892412    
  -5.38451099       1.07104599     -0.157000005       1117.85632       2.13791680    
  -4.67581606      0.930077016     -0.246999994       1117.85632       2.13791680    
  -4.76741982       0.00000000     -0.246999994       1117.85632       2.13791680    
  -5.48999977       0.00000000     -0.157000005       1117.85632       2.13791680    
  -5.07209921       2.10093188     -0.157000005       1116.98560       2.13807011    
  -4.40452194       1.82441294     -0.246999994       1116.98560       2.13807011    
  -4.67581606      0.930077016     -0.246999994       1116.98560       2.13807011    
  -5.38451099       1.07104599     -0.157000005       1116.98560       2.13807011    
  -4.56476784       3.05008101     -0.157000005       1115.74988       2.13897085    
  -3.96396494       2.64863706     -0.246999994       1115.74988       2.13897085    
  -4.40452194       1.82441294     -0.246999994       1115.74988       2.13897085    
  -5.07209921       2.10093188     -0.157000005       1115.74988       2.13897085    
  -3.88201594       3.88201594     -0.157000005       1109.80237       2.14703321    
  -3.37107491       3.37107491     -0.246999994       1109.80237       2.14703321    
  -3.96396494       2.64863706     -0.246999994       1109.80237       2.14703321    
  -4.56476784       3.05008101     -0.157000005       1109.80237       2.14703321    
  -3.05008101       4.56476784     -0.157000005       1114.71521       2.14004326    
  -2.64863706       3.96396494     -0.246999994       1114.71521       2.14004326    
  -3.37107491       3.37107491     -0.246999994       1114.71521       2.14004326    
  -3.88201594       3.88201594     -0.157000005       1114.71521       2.14004326    
  -2.10093188       5.07209921     -0.157000005       1110.03833       2.14705777    
  -1.82441294       4.40452194     -0.246999994       1110.03833       2.14705777    
  -2.64863706       3.96396494     -0.246999994       1110.03833       2.14705777    
  -3.05008101       4.56476784     -0.157000005       1110.03833       2.14705777    
  -1.07104599       5.38451099     -0.157000005       1115.19189       2.14034605    
 -0.930077016       4.67581606     -0.246999994       1115.19189       2.14034605    
  -1.82441294       4.40452194     -0.246999994       1115.19189       2.14034605    
  -2.10093188       5.07209921     -0.157000005       1115.19189       2.14034605    
   0.00000000       5.48999977     -0.157000005       1110.78857       2.14755988    
   0.00000000       4.76741982     -0.246999994       1110.78857       2.14755988    
 -0.930077016       4.67581606     -0.246999994       1110.78857       2.14755988    
  -1.07104599       5.38451099     -0.157000005       1110.78857       2.14755988    
   1.07104599       5.38451099     -0.157000005       1116.34326       2.14074063    
  0.930077016       4.67581606     -0.246999994       1116.34326       2.14074063    
   0.00000000       4.76741982     -0.246999994       1116.34326       2.14074063    
   0.00000000       5.48999977     -0.157000005       1116.34326       2.14074063    
   2.10093188       5.07209921     -0.157000005       1112.08435       2.14808083    
   1.82441294       4.40452194     -0.246999994       1112.08435       2.14808083    
  0.930077016       4.67581606     -0.246999994       1112.08435       2.14808083    
   1.07104599       5.38451099     -0.157000005       1112.08435       2.14808083    
   3.05008101       4.56476784     -0.157000005       1113.01538       2.14767575    
   2.64863706       3.96396494     -0.246999994       1113.01538       2.14767575    
   1.82441294       4.40452194     -0.246999994       1113.01538       2.14767575    
   2.10093188       5.07209921     -0.157000005       1113.01538       2.14767575    
   3.88201594       3.88201594     -0.157000005       1120.34546       2.13763046    
   3.37107491       3.37107491     -0.246999994       1120.34546       2.13763046    
   2.64863706       3.96396494     -0.246999994       1120.34546       2.13763046    
   3.05008101       4.56476784     -0.157000005       1120.34546       2.13763046    
   4.56476784       3.05008101     -0.157000005       1119.71545       2.13833857    
   3.96396494       2.64863706     -0.246999994       1119.71545       2.13833857    
   3.37107491       3.37107491     -0.246999994       1119.71545       2.13833857    
   3.88201594       3.88201594     -0.157000005       1119.71545       2.13833857    
   5.07209921       2.10093188     -0.157000005       1120.86584       2.13634086    
   4.40452194       1.82441294     -0.246999994       1120.86584       2.13634086    
   3.96396494       2.64863706     -0.246999994       1120.86584       2.13634086    
   4.56476784       3.05008101     -0.157000005       1120.86584       2.13634086    
   5.38451099       1.07104599     -0.157000005       1113.17761       2.14695859    
   4.67581606      0.930077016     -0.246999994       1113.17761       2.14695859    
   4.40452194       1.82441294     -0.246999994       1113.17761       2.14695859    
   5.07209921       2.10093188     -0.157000005       1113.17761       2.14695859    
   5.48999977       0.00000000     -0.157000005       1110.94592       2.14932656    
   4.76741982       0.00000000     -0.246999994       1110.94592       2.14932656    
   4.67581606      0.930077016     -0.246999994       1110.94592       2.14932656    
   5.38451099       1.07104599     -0.157000005       1110.94592       2.14932656    
   5.38451099      -1.07104599     -0.157000005       1109.72656       2.14991999    
   4.67581606     -0.930077016     -0.246999994       1109.72656       2.14991999    
   4.76741982       0.00000000     -0.246999994       1109.72656       2.14991999    
   5.48999977       0.00000000     -0.157000005       1109.72656       2.14991999    
   5.07209921      -2.10093188     -0.157000005       1108.71948       2.15013218    
   4.40452194      -1.82441294     -0.246999994       1108.71948       2.15013218    
   4.67581606     -0.930077016     -0.246999994       1108.71948       2.15013218    
   5.38451099      -1.07104599     -0.157000005       1108.71948       2.15013218    
   4.56476784      -3.05008101     -0.157000005       1108.07812       2.15003538    
   3.96396494      -2.64863706     -0.246999994       1108.07812       2.15003538    
   4.40452194      -1.82441294     -0.246999994       1108.07812       2.15003538    
   5.07209921      -2.10093188     -0.157000005       1108.07812       2.15003538    
   3.88201594      -3.88201594     -0.157000005       1108.38635       2.14900398    
   3.37107491      -3.37107491     -0.246999994       1108.38635       2.14900398    
   3.96396494      -2.64863706     -0.246999994       1108.38635       2.14900398    
   4.56476784      -3.05008101     -0.157000005       1108.38635       2.14900398    
   3.05008101      -4.56476784     -0.157000005       1113.97339       2.14079046    
   2.64863706      -3.96396494     -0.246999994       1113.97339       2.14079046    
   3.37107491      -3.37107491     -0.246999994       1113.97339       2.14079046    
   3.88201594      -3.88201594     -0.157000005       1113.97339       2.14079046    
   2.10093188      -5.07209921     -0.157000005       1108.64673       2.14858103    
   1.82441294      -4.40452194     -0.246999994       1108.64673       2.14858103    
   2.64863706      -3.96396494     -0.246999994       1108.64673       2.14858103    
   3.05008101      -4.56476784     -0.157000005       1108.64673       2.14858103    
   1.07104599      -5.38451099     -0.157000005       1108.03235       2.14995003    
  0.930077016      -4.67581606     -0.246999994       1108.03235       2.14995003    
   1.82441294      -4.40452194     -0.246999994       1108.03235       2.14995003    
   2.10093188      -5.07209921     -0.157000005       1108.03235       2.14995003    
   0.00000000      -1.87709999     -0.606999993       2404.15576       1.71361840    
   0.00000000      -1.36500001     -0.606999993       2404.15576       1.71361840    
  0.266297996      -1.33877206     -0.606999993       2404.15576       1.71361840    
  0.366203994      -1.84103203     -0.606999993       2404.15576       1.71361840    
   0.00000000      -1.87709999     -0.606999993       2131.12695       1.71905446    
   0.00000000      -2.59967995     -0.517000020       2131.12695       1.71905446    
 -0.507171988      -2.54972792     -0.517000020       2131.12695       1.71905446    
 -0.366203994      -1.84103203     -0.606999993       2131.12695       1.71905446    
 -0.366203994      -1.84103203     -0.606999993       2404.54810       1.71360838    
 -0.266297996      -1.33877206     -0.606999993       2404.54810       1.71360838    
   0.00000000      -1.36500001     -0.606999993       2404.54810       1.71360838    
   0.00000000      -1.87709999     -0.606999993       2404.54810       1.71360838    
 -0.366203994      -1.84103203     -0.606999993       2126.50000       1.71934259    
 -0.507171988      -2.54972792     -0.517000020       2126.50000       1.71934259    
 -0.994853973      -2.40179110     -0.517000020       2126.50000       1.71934259    
 -0.718334973      -1.73421395     -0.606999993       2126.50000       1.71934259    
 -0.718334973      -1.73421395     -0.606999993       2402.85156       1.71371937    
 -0.522363007      -1.26109600     -0.606999993       2402.85156       1.71371937    
 -0.266297996      -1.33877206     -0.606999993       2402.85156       1.71371937    
 -0.366203994      -1.84103203     -0.606999993       2402.85156       1.71371937    
 -0.718334973      -1.73421395     -0.606999993       2122.81958       1.71956491    
 -0.994853973      -2.40179110     -0.517000020       2122.81958       1.71956491    
  -1.44430494      -2.16155505     -0.517000020       2122.81958       1.71956491    
  -1.04286098      -1.56075203     -0.606999993       2122.81958       1.71956491    
  -1.04286098      -1.56075203     -0.606999993       2401.99634       1.71376693    
 -0.758352995      -1.13495600     -0.606999993       2401.99634       1.71376693    
 -0.522363007      -1.26109600     -0.606999993       2401.99634       1.71376693    
 -0.718334973      -1.73421395     -0.606999993       2401.99634       1.71376693    
  -1.04286098      -1.56075203     -0.606999993       2124.49292       1.71942818    
  -1.44430494      -2.16155505     -0.517000020       2124.49292       1.71942818    
  -1.83825099      -1.83825099     -0.517000020       2124.49292       1.71942818    
  -1.32730997      -1.32730997     -0.606999993       2124.49292       1.71942818    
  -1.32730997      -1.32730997     -0.606999993       2404.27710       1.71360123    
 -0.965201020     -0.965201020     -0.606999993       2404.27710       1.71360123    
 -0.758352995      -1.13495600     -0.606999993       2404.27710       1.71360123    
  -1.04286098      -1.56075203     -0.606999993       2404.27710       1.71360123    
  -1.32730997      -1.32730997     -0.606999993       2130.56055       1.71900618    
  -1.83825099      -1.83825099     -0.517000020       2130.56055       1.71900618    
  -2.16155505      -1.44430494     -0.517000020       2130.56055       1.71900618    
  -1.56075203      -1.04286098     -0.606999993       2130.56055       1.71900618    
  -1.56075203      -1.04286098     -0.606999993       2409.13745       1.71328199    
  -1.13495600     -0.758352995     -0.606999993       2409.13745       1.71328199    
 -0.965201020     -0.965201020     -0.606999993       2409.13745       1.71328199    
  -1.32730997      -1.32730997     -0.606999993       2409.13745       1.71328199    
  -1.56075203      -1.04286098     -0.606999993       2135.59619       1.71862304    
  -2.16155505      -1.44430494     -0.517000020       2135.59619       1.71862304    
  -2.40179110     -0.994853973     -0.517000020       2135.59619       1.71862304    
  -1.73421395     -0.718334973     -0.606999993       2135.59619       1.71862304    
  -1.73421395     -0.718334973     -0.606999993       2413.52002       1.71298492    
  -1.26109600     -0.522363007     -0.606999993       2413.52002       1.71298492    
  -1.13495600     -0.758352995     -0.606999993       2413.52002       1.71298492    
  -1.56075203      -1.04286098     -0.606999993       2413.52002       1.71298492    
  -1.73421395     -0.718334973     -0.606999993       2135.51172       1.71857238    
  -2.40179110     -0.994853973     -0.517000020       2135.51172       1.71857238    
  -2.54972792     -0.507171988     -0.517000020       2135.51172       1.71857238    
  -1.84103203     -0.366203994     -0.606999993       2135.51172       1.71857238    
  -1.84103203     -0.366203994     -0.606999993       2415.09717       1.71286368    
  -1.33877206     -0.266297996     -0.606999993       2415.09717       1.71286368    
  -1.26109600     -0.522363007     -0.606999993       2415.09717       1.71286368    
  -1.73421395     -0.718334973     -0.606999993       2415.09717       1.71286368    
  -1.84103203     -0.366203994     -0.606999993       2132.91748       1.71869028    
  -2.54972792     -0.507171988     -0.517000020       2132.91748       1.71869028    
  -2.59967995       0.00000000     -0.517000020       2132.91748       1.71869028    
  -1.87709999       0.00000000     -0.606999993       2132.91748       1.71869028    
  -1.87709999       0.00000000     -0.606999993       2414.74683       1.71283543    
  -1.36500001       0.00000000     -0.606999993       2414.74683       1.71283543    
  -1.33877206     -0.266297996     -0.606999993       2414.74683       1.71283543    
  -1.84103203     -0.366203994     -0.606999993       2414.74683       1.71283543    
  -1.87709999       0.00000000     -0.606999993       2133.07593       1.71862638    
  -2.59967995       0.00000000     -0.517000020       2133.07593       1.71862638    
  -2.54972792      0.507171988     -0.517000020       2133.07593       1.71862638    
  -1.84103203      0.366203994     -0.606999993       2133.07593       1.71862638    
  -1.84103203      0.366203994     -0.606999993       2414.93774       1.71277237    
  -1.33877206      0.266297996     -0.606999993       2414.93774       1.71277237    
  -1.36500001       0.00000000     -0.606999993       2414.93774       1.71277237    
  -1.87709999       0.00000000     -0.606999993       2414.93774       1.71277237    
  -1.84103203      0.366203994     -0.606999993       2136.82886       1.71836174    
  -2.54972792      0.507171988     -0.517000020       2136.82886       1.71836174    
  -2.40179110      0.994853973     -0.517000020       2136.82886       1.71836174    
  -1.73421395      0.718334973     -0.606999993       2136.82886       1.71836174    
  -1.73421395      0.718334973     -0.606999993       2416.19312       1.71266484    
  -1.26109600      0.522363007     -0.606999993       2416.19312       1.71266484    
  -1.33877206      0.266297996     -0.606999993       2416.19312       1.71266484    
  -1.84103203      0.366203994     -0.606999993       2416.19312       1.71266484    
  -1.73421395      0.718334973     -0.606999993       2139.45752       1.71816397    
  -2.40179110      0.994853973     -0.517000020       2139.45752       1.71816397    
  -2.16155505       1.44430494     -0.517000020       2139.45752       1.71816397    
  -1.56075203       1.04286098     -0.606999993       2139.45752       1.71816397    
  -1.56075203       1.04286098     -0.606999993       2416.43408       1.71262360    
  -1.13495600      0.758352995     -0.606999993       2416.43408       1.71262360    
  -1.26109600      0.522363007     -0.606999993       2416.43408       1.71262360    
  -1.73421395      0.718334973     -0.606999993       2416.43408       1.71262360    
  -1.56075203       1.04286098     -0.606999993       2136.69751       1.71833730    
  -2.16155505       1.44430494     -0.517000020       2136.69751       1.71833730    
  -1.83825099       1.83825099     -0.517000020       2136.69751       1.71833730    
  -1.32730997       1.32730997     -0.606999993       2136.69751       1.71833730    
  -1.32730997       1.32730997     -0.606999993       2413.99146       1.71273983    
 -0.965201020      0.965201020     -0.606999993       2413.99146       1.71273983    
  -1.13495600      0.758352995     -0.606999993       2413.99146       1.71273983    
  -1.56075203       1.04286098     -0.606999993       2413.99146       1.71273983    
  -1.32730997       1.32730997     -0.606999993       2131.10767       1.71869266    
  -1.83825099       1.83825099     -0.517000020       2131.10767       1.71869266    
  -1.44430494       2.16155505     -0.517000020       2131.10767       1.71869266    
  -1.04286098       1.56075203     -0.606999993       2131.10767       1.71869266    
  -1.04286098       1.56075203     -0.606999993       2410.24194       1.71295023    
 -0.758352995       1.13495600     -0.606999993       2410.24194       1.71295023    
 -0.965201020      0.965201020     -0.606999993       2410.24194       1.71295023    
  -1.32730997       1.32730997     -0.606999993       2410.24194       1.71295023    
  -1.04286098       1.56075203     -0.606999993       2128.76001       1.71885943    
  -1.44430494       2.16155505     -0.517000020       2128.76001       1.71885943    
 -0.994853973       2.40179110     -0.517000020       2128.76001       1.71885943    
 -0.718334973       1.73421395     -0.606999993       2128.76001       1.71885943    
 -0.718334973       1.73421395     -0.606999993       2408.21313       1.71305466    
 -0.522363007       1.26109600     -0.606999993       2408.21313       1.71305466    
 -0.758352995       1.13495600     -0.606999993       2408.21313       1.71305466    
  -1.04286098       1.56075203     -0.606999993       2408.21313       1.71305466    
 -0.718334973       1.73421395     -0.606999993       2131.80029       1.71870327    
 -0.994853973       2.40179110     -0.517000020       2131.80029       1.71870327    
 -0.507171988       2.54972792     -0.517000020       2131.80029       1.71870327    
 -0.366203994       1.84103203     -0.606999993       2131.80029       1.71870327    
 -0.366203994       1.84103203     -0.606999993       2409.14429       1.71303225    
 -0.266297996       1.33877206     -0.606999993       2409.14429       1.71303225    
 -0.522363007       1.26109600     -0.606999993       2409.14429       1.71303225    
 -0.718334973       1.73421395     -0.606999993       2409.14429       1.71303225    
 -0.366203994       1.84103203     -0.606999993       2136.25830       1.71845675    
 -0.507171988       2.54972792     -0.517000020       2136.25830       1.71845675    
   0.00000000       2.59967995     -0.517000020       2136.25830       1.71845675    
   0.00000000       1.87709999     -0.606999993       2136.25830       1.71845675    
   0.00000000       1.87709999     -0.606999993       2411.05640       1.71294773    
   0.00000000       1.36500001     -0.606999993       2411.05640       1.71294773    
 -0.266297996       1.33877206     -0.606999993       2411.05640       1.71294773    
 -0.366203994       1.84103203     -0.606999993       2411.05640       1.71294773    
   0.00000000       1.87709999     -0.606999993       2136.44409       1.71847939    
   0.00000000       2.59967995     -0.517000020       2136.44409       1.71847939    
  0.507171988       2.54972792     -0.517000020       2136.44409       1.71847939    
  0.366203994       1.84103203     -0.606999993       2136.44409       1.71847939    
  0.366203994       1.84103203     -0.606999993       2411.26294       1.71296597    
  0.266297996       1.33877206     -0.606999993       2411.26294       1.71296597    
   0.00000000       1.36500001     -0.606999993       2411.26294       1.71296597    
   0.00000000       1.87709999     -0.606999993       2411.26294       1.71296597    
  0.366203994       1.84103203     -0.606999993       2132.28418       1.71876287    
  0.507171988       2.54972792     -0.517000020       2132.28418       1.71876287    
  0.994853973       2.40179110     -0.517000020       2132.28418       1.71876287    
  0.718334973       1.73421395     -0.606999993       2132.28418       1.71876287    
  0.718334973       1.73421395     -0.606999993       2409.74170       1.71308088    
  0.522363007       1.26109600     -0.606999993       2409.74170       1.71308088    
  0.266297996       1.33877206     -0.606999993       2409.74170       1.71308088    
  0.366203994       1.84103203     -0.606999993       2409.74170       1.71308088    
  0.718334973       1.73421395     -0.606999993       2129.52856       1.71894825    
  0.994853973       2.40179110     -0.517000020       2129.52856       1.71894825    
   1.44430494       2.16155505     -0.517000020       2129.52856       1.71894825    
   1.04286098       1.56075203     -0.606999993       2129.52856       1.71894825    
   1.04286098       1.56075203     -0.606999993       2409.14746       1.71313190    
  0.758352995       1.13495600     -0.606999993       2409.14746       1.71313190    
  0.522363007       1.26109600     -0.606999993       2409.14746       1.71313190    
  0.718334973       1.73421395     -0.606999993       2409.14746       1.71313190    
   1.04286098       1.56075203     -0.606999993       2132.02271       1.71880639    
   1.44430494       2.16155505     -0.517000020       2132.02271       1.71880639    
   1.83825099       1.83825099     -0.517000020       2132.02271       1.71880639    
   1.32730997       1.32730997     -0.606999993       2132.02271       1.71880639    
   1.32730997       1.32730997     -0.606999993       2411.29761       1.71303892    
  0.965201020      0.965201020     -0.606999993       2411.29761       1.71303892    
  0.758352995       1.13495600     -0.606999993       2411.29761       1.71303892    
   1.04286098       1.56075203     -0.606999993       2411.29761       1.71303892    
   1.32730997       1.32730997     -0.606999993       2137.56445       1.71847153    
   1.83825099       1.83825099     -0.517000020       2137.56445       1.71847153    
   2.16155505       1.44430494     -0.517000020       2137.56445       1.71847153    
   1.56075203       1.04286098     -0.606999993       2137.56445       1.71847153    
   1.56075203       1.04286098     -0.606999993       2414.93921       1.71285534    
   1.13495600      0.758352995     -0.606999993       2414.93921       1.71285534    
  0.965201020      0.965201020     -0.606999993       2414.93921       1.71285534    
   1.32730997       1.32730997     -0.606999993       2414.93921       1.71285534    
   1.56075203       1.04286098     -0.606999993       2140.05786       1.71833003    
   2.16155505       1.44430494     -0.517000020       2140.05786       1.71833003    
   2.40179110      0.994853973     -0.517000020       2140.05786       1.71833003    
   1.73421395      0.718334973     -0.606999993       2140.05786       1.71833003    
   1.73421395      0.718334973     -0.606999993       2416.95166       1.71274245    
   1.26109600      0.522363007     -0.606999993       2416.95166       1.71274245    
   1.13495600      0.758352995     -0.606999993       2416.95166       1.71274245    
   1.56075203       1.04286098     -0.606999993       2416.95166       1.71274245    
   1.73421395      0.718334973     -0.606999993       2136.92041       1.71853518    
   2.40179110      0.994853973     -0.517000020       2136.92041       1.71853518    
   2.54972792      0.507171988     -0.517000020       2136.92041       1.71853518    
   1.84103203      0.366203994     -0.606999993       2136.92041       1.71853518    
   1.84103203      0.366203994     -0.606999993       2416.09058       1.71277905    
   1.33877206      0.266297996     -0.606999993       2416.09058       1.71277905    
   1.26109600      0.522363007     -0.606999993       2416.09058       1.71277905    
   1.73421395      0.718334973     -0.606999993       2416.09058       1.71277905    
   1.84103203      0.366203994     -0.606999993       2132.57642       1.71880925    
   2.54972792      0.507171988     -0.517000020       2132.57642       1.71880925    
   2.59967995       0.00000000     -0.517000020       2132.57642       1.71880925    
   1.87709999       0.00000000     -0.606999993       2132.57642       1.71880925    
   1.87709999       0.00000000     -0.606999993       2414.18481       1.71288395    
   1.36500001       0.00000000     -0.606999993       2414.18481       1.71288395    
   1.33877206      0.266297996     -0.606999993       2414.18481       1.71288395    
   1.84103203      0.366203994     -0.606999993       2414.18481       1.71288395    
   1.87709999       0.00000000     -0.606999993       2131.90283       1.71885955    
   2.59967995       0.00000000     -0.517000020       2131.90283       1.71885955    
   2.54972792     -0.507171988     -0.517000020       2131.90283       1.71885955    
   1.84103203     -0.366203994     -0.606999993       2131.90283       1.71885955    
   1.84103203     -0.366203994     -0.606999993       2413.35425       1.71291876    
   1.33877206     -0.266297996     -0.606999993       2413.35425       1.71291876    
   1.36500001       0.00000000     -0.606999993       2413.35425       1.71291876    
   1.87709999       0.00000000     -0.606999993       2413.35425       1.71291876    
   1.84103203     -0.366203994     -0.606999993       2134.07227       1.71872663    
   2.54972792     -0.507171988     -0.517000020       2134.07227       1.71872663    
   2.40179110     -0.994853973     -0.517000020       2134.07227       1.71872663    
   1.73421395     -0.718334973     -0.606999993       2134.07227       1.71872663    
   1.73421395     -0.718334973     -0.606999993       2413.18872       1.71293223    
   1.26109600     -0.522363007     -0.606999993       2413.18872       1.71293223    
   1.33877206     -0.266297996     -0.606999993       2413.18872       1.71293223    
   1.84103203     -0.366203994     -0.606999993       2413.18872       1.71293223    
   1.73421395     -0.718334973     -0.606999993       2133.88330       1.71873319    
   2.40179110     -0.994853973     -0.517000020       2133.88330       1.71873319    
   2.16155505      -1.44430494     -0.517000020       2133.88330       1.71873319    
   1.56075203      -1.04286098     -0.606999993       2133.88330       1.71873319    
   1.56075203      -1.04286098     -0.606999993       2411.34570       1.71304691    
   1.13495600     -0.758352995     -0.606999993       2411.34570       1.71304691    
   1.26109600     -0.522363007     -0.606999993       2411.34570       1.71304691    