 VARIABLES="X" "Y" "Z" "abs(p) (Pa)" "angle(p) (rad)"
ZONE N=   2709,E =    2358, F=FEPOINT, ET=QUADRILATERAL
   0.00000000      -5.48999977     -0.157000005       439.983795      -1.29111302    
   0.00000000      -4.76741982     -0.246999994       439.983795      -1.29111302    
  0.930077016      -4.67581606     -0.246999994       439.983795      -1.29111302    
   1.07104599      -5.38451099     -0.157000005       439.983795      -1.29111302    
  -1.07104599      -5.38451099     -0.157000005       460.955627       1.86280942    
 -0.930077016      -4.67581606     -0.246999994       460.955627       1.86280942    
   0.00000000      -4.76741982     -0.246999994       460.955627       1.86280942    
   0.00000000      -5.48999977     -0.157000005       460.955627       1.86280942    
  -2.10093188      -5.07209921     -0.157000005       1352.94031       1.85515726    
  -1.82441294      -4.40452194     -0.246999994       1352.94031       1.85515726    
 -0.930077016      -4.67581606     -0.246999994       1352.94031       1.85515726    
  -1.07104599      -5.38451099     -0.157000005       1352.94031       1.85515726    
  -3.05008101      -4.56476784     -0.157000005       2173.88037       1.85779202    
  -2.64863706      -3.96396494     -0.246999994       2173.88037       1.85779202    
  -1.82441294      -4.40452194     -0.246999994       2173.88037       1.85779202    
  -2.10093188      -5.07209921     -0.157000005       2173.88037       1.85779202    
  -3.88201594      -3.88201594     -0.157000005       2924.03101       1.85676622    
  -3.37107491      -3.37107491     -0.246999994       2924.03101       1.85676622    
  -2.64863706      -3.96396494     -0.246999994       2924.03101       1.85676622    
  -3.05008101      -4.56476784     -0.157000005       2924.03101       1.85676622    
  -4.56476784      -3.05008101     -0.157000005       3588.06274       1.85239351    
  -3.96396494      -2.64863706     -0.246999994       3588.06274       1.85239351    
  -3.37107491      -3.37107491     -0.246999994       3588.06274       1.85239351    
  -3.88201594      -3.88201594     -0.157000005       3588.06274       1.85239351    
  -5.07209921      -2.10093188     -0.157000005       4060.22314       1.85632741    
  -4.40452194      -1.82441294     -0.246999994       4060.22314       1.85632741    
  -3.96396494      -2.64863706     -0.246999994       4060.22314       1.85632741    
  -4.56476784      -3.05008101     -0.157000005       4060.22314       1.85632741    
  -5.38451099      -1.07104599     -0.157000005       4400.07568       1.85674524    
  -4.67581606     -0.930077016     -0.246999994       4400.07568       1.85674524    
  -4.40452194      -1.82441294     -0.246999994       4400.07568       1.85674524    
  -5.07209921      -2.10093188     -0.157000005       4400.07568       1.85674524    
  -5.48999977       0.00000000     -0.157000005       4607.12598       1.85289586    
  -4.76741982       0.00000000     -0.246999994       4607.12598       1.85289586    
  -4.67581606     -0.930077016     -0.246999994       4607.12598       1.85289586    
  -5.38451099      -1.07104599     -0.157000005       4607.12598       1.85289586    
  -5.38451099       1.07104599     -0.157000005       4610.07812       1.85232258    
  -4.67581606      0.930077016     -0.246999994       4610.07812       1.85232258    
  -4.76741982       0.00000000     -0.246999994       4610.07812       1.85232258    
  -5.48999977       0.00000000     -0.157000005       4610.07812       1.85232258    
  -5.07209921       2.10093188     -0.157000005       4431.32227       1.85228682    
  -4.40452194       1.82441294     -0.246999994       4431.32227       1.85228682    
  -4.67581606      0.930077016     -0.246999994       4431.32227       1.85228682    
  -5.38451099       1.07104599     -0.157000005       4431.32227       1.85228682    
  -4.56476784       3.05008101     -0.157000005       4078.59424       1.85258329    
  -3.96396494       2.64863706     -0.246999994       4078.59424       1.85258329    
  -4.40452194       1.82441294     -0.246999994       4078.59424       1.85258329    
  -5.07209921       2.10093188     -0.157000005       4078.59424       1.85258329    
  -3.88201594       3.88201594     -0.157000005       3548.02319       1.85602546    
  -3.37107491       3.37107491     -0.246999994       3548.02319       1.85602546    
  -3.96396494       2.64863706     -0.246999994       3548.02319       1.85602546    
  -4.56476784       3.05008101     -0.157000005       3548.02319       1.85602546    
  -3.05008101       4.56476784     -0.157000005       2925.03052       1.85296309    
  -2.64863706       3.96396494     -0.246999994       2925.03052       1.85296309    
  -3.37107491       3.37107491     -0.246999994       2925.03052       1.85296309    
  -3.88201594       3.88201594     -0.157000005       2925.03052       1.85296309    
  -2.10093188       5.07209921     -0.157000005       2159.31934       1.85546517    
  -1.82441294       4.40452194     -0.246999994       2159.31934       1.85546517    
  -2.64863706       3.96396494     -0.246999994       2159.31934       1.85546517    
  -3.05008101       4.56476784     -0.157000005       2159.31934       1.85546517    
  -1.07104599       5.38451099     -0.157000005       1333.48425       1.85196495    
 -0.930077016       4.67581606     -0.246999994       1333.48425       1.85196495    
  -1.82441294       4.40452194     -0.246999994       1333.48425       1.85196495    
  -2.10093188       5.07209921     -0.157000005       1333.48425       1.85196495    
   0.00000000       5.48999977     -0.157000005       442.067810       1.85053337    
   0.00000000       4.76741982     -0.246999994       442.067810       1.85053337    
 -0.930077016       4.67581606     -0.246999994       442.067810       1.85053337    
  -1.07104599       5.38451099     -0.157000005       442.067810       1.85053337    
   1.07104599       5.38451099     -0.157000005       464.263519      -1.28370690    
  0.930077016       4.67581606     -0.246999994       464.263519      -1.28370690    
   0.00000000       4.76741982     -0.246999994       464.263519      -1.28370690    
   0.00000000       5.48999977     -0.157000005       464.263519      -1.28370690    
   2.10093188       5.07209921     -0.157000005       1344.10815      -1.28306735    
   1.82441294       4.40452194     -0.246999994       1344.10815      -1.28306735    
  0.930077016       4.67581606     -0.246999994       1344.10815      -1.28306735    
   1.07104599       5.38451099     -0.157000005       1344.10815      -1.28306735    
   3.05008101       4.56476784     -0.157000005       2177.53296      -1.28447211    
   2.64863706       3.96396494     -0.246999994       2177.53296      -1.28447211    
   1.82441294       4.40452194     -0.246999994       2177.53296      -1.28447211    
   2.10093188       5.07209921     -0.157000005       2177.53296      -1.28447211    
   3.88201594       3.88201594     -0.157000005       2950.14429      -1.28915882    
   3.37107491       3.37107491     -0.246999994       2950.14429      -1.28915882    
   2.64863706       3.96396494     -0.246999994       2950.14429      -1.28915882    
   3.05008101       4.56476784     -0.157000005       2950.14429      -1.28915882    
   4.56476784       3.05008101     -0.157000005       3586.98853      -1.28869462    
   3.96396494       2.64863706     -0.246999994       3586.98853      -1.28869462    
   3.37107491       3.37107491     -0.246999994       3586.98853      -1.28869462    
   3.88201594       3.88201594     -0.157000005       3586.98853      -1.28869462    
   5.07209921       2.10093188     -0.157000005       4095.00879      -1.28947771    
   4.40452194       1.82441294     -0.246999994       4095.00879      -1.28947771    
   3.96396494       2.64863706     -0.246999994       4095.00879      -1.28947771    
   4.56476784       3.05008101     -0.157000005       4095.00879      -1.28947771    
   5.38451099       1.07104599     -0.157000005       4401.66943      -1.28496897    
   4.67581606      0.930077016     -0.246999994       4401.66943      -1.28496897    
   4.40452194       1.82441294     -0.246999994       4401.66943      -1.28496897    
   5.07209921       2.10093188     -0.157000005       4401.66943      -1.28496897    
   5.48999977       0.00000000     -0.157000005       4565.97559      -1.28413486    
   4.76741982       0.00000000     -0.246999994       4565.97559      -1.28413486    
   4.67581606      0.930077016     -0.246999994       4565.97559      -1.28413486    
   5.38451099       1.07104599     -0.157000005       4565.97559      -1.28413486    
   5.38451099      -1.07104599     -0.157000005       4560.96680      -1.28403056    
   4.67581606     -0.930077016     -0.246999994       4560.96680      -1.28403056    
   4.76741982       0.00000000     -0.246999994       4560.96680      -1.28403056    
   5.48999977       0.00000000     -0.157000005       4560.96680      -1.28403056    
   5.07209921      -2.10093188     -0.157000005       4382.36377      -1.28408051    
   4.40452194      -1.82441294     -0.246999994       4382.36377      -1.28408051    
   4.67581606     -0.930077016     -0.246999994       4382.36377      -1.28408051    
   5.38451099      -1.07104599     -0.157000005       4382.36377      -1.28408051    
   4.56476784      -3.05008101     -0.157000005       4035.63013      -1.28423762    
   3.96396494      -2.64863706     -0.246999994       4035.63013      -1.28423762    
   4.40452194      -1.82441294     -0.246999994       4035.63013      -1.28423762    
   5.07209921      -2.10093188     -0.157000005       4035.63013      -1.28423762    
   3.88201594      -3.88201594     -0.157000005       3536.44116      -1.28478301    
   3.37107491      -3.37107491     -0.246999994       3536.44116      -1.28478301    
   3.96396494      -2.64863706     -0.246999994       3536.44116      -1.28478301    
   4.56476784      -3.05008101     -0.157000005       3536.44116      -1.28478301    
   3.05008101      -4.56476784     -0.157000005       2919.25781      -1.28860366    
   2.64863706      -3.96396494     -0.246999994       2919.25781      -1.28860366    
   3.37107491      -3.37107491     -0.246999994       2919.25781      -1.28860366    
   3.88201594      -3.88201594     -0.157000005       2919.25781      -1.28860366    
   2.10093188      -5.07209921     -0.157000005       2154.52100      -1.28604341    
   1.82441294      -4.40452194     -0.246999994       2154.52100      -1.28604341    
   2.64863706      -3.96396494     -0.246999994       2154.52100      -1.28604341    
   3.05008101      -4.56476784     -0.157000005       2154.52100      -1.28604341    
   1.07104599      -5.38451099     -0.157000005       1322.11536      -1.28639042    
  0.930077016      -4.67581606     -0.246999994       1322.11536      -1.28639042    
   1.82441294      -4.40452194     -0.246999994       1322.11536      -1.28639042    
   2.10093188      -5.07209921     -0.157000005       1322.11536      -1.28639042    
   0.00000000      -1.87709999     -0.606999993       305.416595      -1.47246599    
   0.00000000      -1.36500001     -0.606999993       305.416595      -1.47246599    
  0.266297996      -1.33877206     -0.606999993       305.416595      -1.47246599    
  0.366203994      -1.84103203     -0.606999993       305.416595      -1.47246599    
   0.00000000      -1.87709999     -0.606999993       370.481506       1.69289780    
   0.00000000      -2.59967995     -0.517000020       370.481506       1.69289780    
 -0.507171988      -2.54972792     -0.517000020       370.481506       1.69289780    
 -0.366203994      -1.84103203     -0.606999993       370.481506       1.69289780    
 -0.366203994      -1.84103203     -0.606999993       290.284729       1.67516971    
 -0.266297996      -1.33877206     -0.606999993       290.284729       1.67516971    
   0.00000000      -1.36500001     -0.606999993       290.284729       1.67516971    
   0.00000000      -1.87709999     -0.606999993       290.284729       1.67516971    
 -0.366203994      -1.84103203     -0.606999993       1097.07788       1.68904424    
 -0.507171988      -2.54972792     -0.517000020       1097.07788       1.68904424    
 -0.994853973      -2.40179110     -0.517000020       1097.07788       1.68904424    
 -0.718334973      -1.73421395     -0.606999993       1097.07788       1.68904424    
 -0.718334973      -1.73421395     -0.606999993       874.650146       1.67242479    
 -0.522363007      -1.26109600     -0.606999993       874.650146       1.67242479    
 -0.266297996      -1.33877206     -0.606999993       874.650146       1.67242479    
 -0.366203994      -1.84103203     -0.606999993       874.650146       1.67242479    
 -0.718334973      -1.73421395     -0.606999993       1778.52124       1.68705511    
 -0.994853973      -2.40179110     -0.517000020       1778.52124       1.68705511    
  -1.44430494      -2.16155505     -0.517000020       1778.52124       1.68705511    
  -1.04286098      -1.56075203     -0.606999993       1778.52124       1.68705511    
  -1.04286098      -1.56075203     -0.606999993       1426.11829       1.67095256    
 -0.758352995      -1.13495600     -0.606999993       1426.11829       1.67095256    
 -0.522363007      -1.26109600     -0.606999993       1426.11829       1.67095256    
 -0.718334973      -1.73421395     -0.606999993       1426.11829       1.67095256    
  -1.04286098      -1.56075203     -0.606999993       2395.72998       1.68556786    
  -1.44430494      -2.16155505     -0.517000020       2395.72998       1.68556786    
  -1.83825099      -1.83825099     -0.517000020       2395.72998       1.68556786    
  -1.32730997      -1.32730997     -0.606999993       2395.72998       1.68556786    
  -1.32730997      -1.32730997     -0.606999993       1926.03088       1.66979885    
 -0.965201020     -0.965201020     -0.606999993       1926.03088       1.66979885    
 -0.758352995      -1.13495600     -0.606999993       1926.03088       1.66979885    
  -1.04286098      -1.56075203     -0.606999993       1926.03088       1.66979885    
  -1.32730997      -1.32730997     -0.606999993       2929.53882       1.68470728    
  -1.83825099      -1.83825099     -0.517000020       2929.53882       1.68470728    
  -2.16155505      -1.44430494     -0.517000020       2929.53882       1.68470728    
  -1.56075203      -1.04286098     -0.606999993       2929.53882       1.68470728    
  -1.56075203      -1.04286098     -0.606999993       2356.07983       1.66907775    
  -1.13495600     -0.758352995     -0.606999993       2356.07983       1.66907775    
 -0.965201020     -0.965201020     -0.606999993       2356.07983       1.66907775    
  -1.32730997      -1.32730997     -0.606999993       2356.07983       1.66907775    
  -1.56075203      -1.04286098     -0.606999993       3352.56787       1.68453372    
  -2.16155505      -1.44430494     -0.517000020       3352.56787       1.68453372    
  -2.40179110     -0.994853973     -0.517000020       3352.56787       1.68453372    
  -1.73421395     -0.718334973     -0.606999993       3352.56787       1.68453372    
  -1.73421395     -0.718334973     -0.606999993       2696.28394       1.66884923    
  -1.26109600     -0.522363007     -0.606999993       2696.28394       1.66884923    
  -1.13495600     -0.758352995     -0.606999993       2696.28394       1.66884923    
  -1.56075203      -1.04286098     -0.606999993       2696.28394       1.66884923    
  -1.73421395     -0.718334973     -0.606999993       3639.05298       1.68479311    
  -2.40179110     -0.994853973     -0.517000020       3639.05298       1.68479311    
  -2.54972792     -0.507171988     -0.517000020       3639.05298       1.68479311    
  -1.84103203     -0.366203994     -0.606999993       3639.05298       1.68479311    
  -1.84103203     -0.366203994     -0.606999993       2929.66406       1.66894531    
  -1.33877206     -0.266297996     -0.606999993       2929.66406       1.66894531    
  -1.26109600     -0.522363007     -0.606999993       2929.66406       1.66894531    
  -1.73421395     -0.718334973     -0.606999993       2929.66406       1.66894531    
  -1.84103203     -0.366203994     -0.606999993       3780.69531       1.68506038    
  -2.54972792     -0.507171988     -0.517000020       3780.69531       1.68506038    
  -2.59967995       0.00000000     -0.517000020       3780.69531       1.68506038    
  -1.87709999       0.00000000     -0.606999993       3780.69531       1.68506038    
  -1.87709999       0.00000000     -0.606999993       3048.03516       1.66907525    
  -1.36500001       0.00000000     -0.606999993       3048.03516       1.66907525    
  -1.33877206     -0.266297996     -0.606999993       3048.03516       1.66907525    
  -1.84103203     -0.366203994     -0.606999993       3048.03516       1.66907525    
  -1.87709999       0.00000000     -0.606999993       3781.79614       1.68498528    
  -2.59967995       0.00000000     -0.517000020       3781.79614       1.68498528    
  -2.54972792      0.507171988     -0.517000020       3781.79614       1.68498528    
  -1.84103203      0.366203994     -0.606999993       3781.79614       1.68498528    
  -1.84103203      0.366203994     -0.606999993       3050.48486       1.66899014    
  -1.33877206      0.266297996     -0.606999993       3050.48486       1.66899014    
  -1.36500001       0.00000000     -0.606999993       3050.48486       1.66899014    
  -1.87709999       0.00000000     -0.606999993       3050.48486       1.66899014    
  -1.84103203      0.366203994     -0.606999993       3644.02075       1.68450093    
  -2.54972792      0.507171988     -0.517000020       3644.02075       1.68450093    
  -2.40179110      0.994853973     -0.517000020       3644.02075       1.68450093    
  -1.73421395      0.718334973     -0.606999993       3644.02075       1.68450093    
  -1.73421395      0.718334973     -0.606999993       2937.61670       1.66863406    
  -1.26109600      0.522363007     -0.606999993       2937.61670       1.66863406    
  -1.33877206      0.266297996     -0.606999993       2937.61670       1.66863406    
  -1.84103203      0.366203994     -0.606999993       2937.61670       1.66863406    
  -1.73421395      0.718334973     -0.606999993       3363.35693       1.68386900    
  -2.40179110      0.994853973     -0.517000020       3363.35693       1.68386900    
  -2.16155505       1.44430494     -0.517000020       3363.35693       1.68386900    
  -1.56075203       1.04286098     -0.606999993       3363.35693       1.68386900    
  -1.56075203       1.04286098     -0.606999993       2710.48022       1.66819799    
  -1.13495600      0.758352995     -0.606999993       2710.48022       1.66819799    
  -1.26109600      0.522363007     -0.606999993       2710.48022       1.66819799    
  -1.73421395      0.718334973     -0.606999993       2710.48022       1.66819799    
  -1.56075203       1.04286098     -0.606999993       2944.17871       1.68353665    
  -2.16155505       1.44430494     -0.517000020       2944.17871       1.68353665    
  -1.83825099       1.83825099     -0.517000020       2944.17871       1.68353665    
  -1.32730997       1.32730997     -0.606999993       2944.17871       1.68353665    
  -1.32730997       1.32730997     -0.606999993       2375.54321       1.66797459    
 -0.965201020      0.965201020     -0.606999993       2375.54321       1.66797459    
  -1.13495600      0.758352995     -0.606999993       2375.54321       1.66797459    
  -1.56075203       1.04286098     -0.606999993       2375.54321       1.66797459    
  -1.32730997       1.32730997     -0.606999993       2409.65894       1.68380415    
  -1.83825099       1.83825099     -0.517000020       2409.65894       1.68380415    
  -1.44430494       2.16155505     -0.517000020       2409.65894       1.68380415    
  -1.04286098       1.56075203     -0.606999993       2409.65894       1.68380415    
  -1.04286098       1.56075203     -0.606999993       1948.01477       1.66817319    
 -0.758352995       1.13495600     -0.606999993       1948.01477       1.66817319    
 -0.965201020      0.965201020     -0.606999993       1948.01477       1.66817319    
  -1.32730997       1.32730997     -0.606999993       1948.01477       1.66817319    
  -1.04286098       1.56075203     -0.606999993       1789.09802       1.68455672    
  -1.44430494       2.16155505     -0.517000020       1789.09802       1.68455672    
 -0.994853973       2.40179110     -0.517000020       1789.09802       1.68455672    
 -0.718334973       1.73421395     -0.606999993       1789.09802       1.68455672    
 -0.718334973       1.73421395     -0.606999993       1447.83813       1.66870165    
 -0.522363007       1.26109600     -0.606999993       1447.83813       1.66870165    
 -0.758352995       1.13495600     -0.606999993       1447.83813       1.66870165    
  -1.04286098       1.56075203     -0.606999993       1447.83813       1.66870165    
 -0.718334973       1.73421395     -0.606999993       1104.14111       1.68523979    
 -0.994853973       2.40179110     -0.517000020       1104.14111       1.68523979    
 -0.507171988       2.54972792     -0.517000020       1104.14111       1.68523979    
 -0.366203994       1.84103203     -0.606999993       1104.14111       1.68523979    
 -0.366203994       1.84103203     -0.606999993       894.179810       1.66917610    
 -0.266297996       1.33877206     -0.606999993       894.179810       1.66917610    
 -0.522363007       1.26109600     -0.606999993       894.179810       1.66917610    
 -0.718334973       1.73421395     -0.606999993       894.179810       1.66917610    
 -0.366203994       1.84103203     -0.606999993       374.442017       1.68335962    
 -0.507171988       2.54972792     -0.517000020       374.442017       1.68335962    
   0.00000000       2.59967995     -0.517000020       374.442017       1.68335962    
   0.00000000       1.87709999     -0.606999993       374.442017       1.68335962    
   0.00000000       1.87709999     -0.606999993       306.301086       1.66808021    
   0.00000000       1.36500001     -0.606999993       306.301086       1.66808021    
 -0.266297996       1.33877206     -0.606999993       306.301086       1.66808021    
 -0.366203994       1.84103203     -0.606999993       306.301086       1.66808021    
   0.00000000       1.87709999     -0.606999993       372.054047      -1.45021939    
   0.00000000       2.59967995     -0.517000020       372.054047      -1.45021939    
  0.507171988       2.54972792     -0.517000020       372.054047      -1.45021939    
  0.366203994       1.84103203     -0.606999993       372.054047      -1.45021939    
  0.366203994       1.84103203     -0.606999993       293.719055      -1.46846664    
  0.266297996       1.33877206     -0.606999993       293.719055      -1.46846664    
   0.00000000       1.36500001     -0.606999993       293.719055      -1.46846664    
   0.00000000       1.87709999     -0.606999993       293.719055      -1.46846664    
  0.366203994       1.84103203     -0.606999993       1101.84265      -1.45375812    
  0.507171988       2.54972792     -0.517000020       1101.84265      -1.45375812    
  0.994853973       2.40179110     -0.517000020       1101.84265      -1.45375812    
  0.718334973       1.73421395     -0.606999993       1101.84265      -1.45375812    
  0.718334973       1.73421395     -0.606999993       881.879150      -1.47073722    
  0.522363007       1.26109600     -0.606999993       881.879150      -1.47073722    
  0.266297996       1.33877206     -0.606999993       881.879150      -1.47073722    
  0.366203994       1.84103203     -0.606999993       881.879150      -1.47073722    
  0.718334973       1.73421395     -0.606999993       1786.89026      -1.45556951    
  0.994853973       2.40179110     -0.517000020       1786.89026      -1.45556951    
   1.44430494       2.16155505     -0.517000020       1786.89026      -1.45556951    
   1.04286098       1.56075203     -0.606999993       1786.89026      -1.45556951    
   1.04286098       1.56075203     -0.606999993       1436.25317      -1.47193086    
  0.758352995       1.13495600     -0.606999993       1436.25317      -1.47193086    
  0.522363007       1.26109600     -0.606999993       1436.25317      -1.47193086    
  0.718334973       1.73421395     -0.606999993       1436.25317      -1.47193086    
   1.04286098       1.56075203     -0.606999993       2407.43115      -1.45683348    
   1.44430494       2.16155505     -0.517000020       2407.43115      -1.45683348    
   1.83825099       1.83825099     -0.517000020       2407.43115      -1.45683348    
   1.32730997       1.32730997     -0.606999993       2407.43115      -1.45683348    
   1.32730997       1.32730997     -0.606999993       1937.33630      -1.47276449    
  0.965201020      0.965201020     -0.606999993       1937.33630      -1.47276449    
  0.758352995       1.13495600     -0.606999993       1937.33630      -1.47276449    
   1.04286098       1.56075203     -0.606999993       1937.33630      -1.47276449    
   1.32730997       1.32730997     -0.606999993       2941.74609      -1.45738709    
   1.83825099       1.83825099     -0.517000020       2941.74609      -1.45738709    
   2.16155505       1.44430494     -0.517000020       2941.74609      -1.45738709    
   1.56075203       1.04286098     -0.606999993       2941.74609      -1.45738709    
   1.56075203       1.04286098     -0.606999993       2365.97729      -1.47313106    
   1.13495600      0.758352995     -0.606999993       2365.97729      -1.47313106    
  0.965201020      0.965201020     -0.606999993       2365.97729      -1.47313106    
   1.32730997       1.32730997     -0.606999993       2365.97729      -1.47313106    
   1.56075203       1.04286098     -0.606999993       3360.48584      -1.45723367    
   2.16155505       1.44430494     -0.517000020       3360.48584      -1.45723367    
   2.40179110      0.994853973     -0.517000020       3360.48584      -1.45723367    
   1.73421395      0.718334973     -0.606999993       3360.48584      -1.45723367    
   1.73421395      0.718334973     -0.606999993       2702.31250      -1.47301257    
   1.26109600      0.522363007     -0.606999993       2702.31250      -1.47301257    
   1.13495600      0.758352995     -0.606999993       2702.31250      -1.47301257    
   1.56075203       1.04286098     -0.606999993       2702.31250      -1.47301257    
   1.73421395      0.718334973     -0.606999993       3640.69312      -1.45673895    
   2.40179110      0.994853973     -0.517000020       3640.69312      -1.45673895    
   2.54972792      0.507171988     -0.517000020       3640.69312      -1.45673895    
   1.84103203      0.366203994     -0.606999993       3640.69312      -1.45673895    
   1.84103203      0.366203994     -0.606999993       2931.01953      -1.47265863    
   1.33877206      0.266297996     -0.606999993       2931.01953      -1.47265863    
   1.26109600      0.522363007     -0.606999993       2931.01953      -1.47265863    
   1.73421395      0.718334973     -0.606999993       2931.01953      -1.47265863    
   1.84103203      0.366203994     -0.606999993       3778.16504      -1.45637763    
   2.54972792      0.507171988     -0.517000020       3778.16504      -1.45637763    
   2.59967995       0.00000000     -0.517000020       3778.16504      -1.45637763    
   1.87709999       0.00000000     -0.606999993       3778.16504      -1.45637763    
   1.87709999       0.00000000     -0.606999993       3045.69458      -1.47238159    
   1.36500001       0.00000000     -0.606999993       3045.69458      -1.47238159    
   1.33877206      0.266297996     -0.606999993       3045.69458      -1.47238159    
   1.84103203      0.366203994     -0.606999993       3045.69458      -1.47238159    
   1.87709999       0.00000000     -0.606999993       3777.06274      -1.45643532    
   2.59967995       0.00000000     -0.517000020       3777.06274      -1.45643532    
   2.54972792     -0.507171988     -0.517000020       3777.06274      -1.45643532    
   1.84103203     -0.366203994     -0.606999993       3777.06274      -1.45643532    
   1.84103203     -0.366203994     -0.606999993       3045.41968      -1.47238588    
   1.33877206     -0.266297996     -0.606999993       3045.41968      -1.47238588    
   1.36500001       0.00000000     -0.606999993       3045.41968      -1.47238588    
   1.87709999       0.00000000     -0.606999993       3045.41968      -1.47238588    
   1.84103203     -0.366203994     -0.606999993       3635.91821      -1.45687437    
   2.54972792     -0.507171988     -0.517000020       3635.91821      -1.45687437    
   2.40179110     -0.994853973     -0.517000020       3635.91821      -1.45687437    
   1.73421395     -0.718334973     -0.606999993       3635.91821      -1.45687437    
   1.73421395     -0.718334973     -0.606999993       2929.55859      -1.47263157    
   1.26109600     -0.522363007     -0.606999993       2929.55859      -1.47263157    
   1.33877206     -0.266297996     -0.606999993       2929.55859      -1.47263157    
   1.84103203     -0.366203994     -0.606999993       2929.55859      -1.47263157    
   1.73421395     -0.718334973     -0.606999993       3350.21094      -1.45734286    
   2.40179110     -0.994853973     -0.517000020       3350.21094      -1.45734286    
   2.16155505      -1.44430494     -0.517000020       3350.21094      -1.45734286    
   1.56075203      -1.04286098     -0.606999993       3350.21094      -1.45734286    
   1.56075203      -1.04286098     -0.606999993       2698.99097      -1.47287655    
   1.13495600     -0.758352995     -0.606999993       2698.99097      -1.47287655    
   1.26109600     -0.522363007     -0.606999993       2698.99097      -1.47287655    