 VARIABLES="X" "Y" "Z" "abs(p) (Pa)" "angle(p) (rad)"
ZONE N=   2709,E =    2358, F=FEPOINT, ET=QUADRILATERAL
   0.00000000      -5.48999977     -0.157000005       220.481186      -1.19977498    
   0.00000000      -4.76741982     -0.246999994       220.481186      -1.19977498    
  0.930077016      -4.67581606     -0.246999994       220.481186      -1.19977498    
   1.07104599      -5.38451099     -0.157000005       220.481186      -1.19977498    
  -1.07104599      -5.38451099     -0.157000005       220.477707      -1.20570159    
 -0.930077016      -4.67581606     -0.246999994       220.477707      -1.20570159    
   0.00000000      -4.76741982     -0.246999994       220.477707      -1.20570159    
   0.00000000      -5.48999977     -0.157000005       220.477707      -1.20570159    
  -2.10093188      -5.07209921     -0.157000005       217.451675      -1.23573732    
  -1.82441294      -4.40452194     -0.246999994       217.451675      -1.23573732    
 -0.930077016      -4.67581606     -0.246999994       217.451675      -1.23573732    
  -1.07104599      -5.38451099     -0.157000005       217.451675      -1.23573732    
  -3.05008101      -4.56476784     -0.157000005       189.305344      -1.19550633    
  -2.64863706      -3.96396494     -0.246999994       189.305344      -1.19550633    
  -1.82441294      -4.40452194     -0.246999994       189.305344      -1.19550633    
  -2.10093188      -5.07209921     -0.157000005       189.305344      -1.19550633    
  -3.88201594      -3.88201594     -0.157000005       173.257355      -1.18985879    
  -3.37107491      -3.37107491     -0.246999994       173.257355      -1.18985879    
  -2.64863706      -3.96396494     -0.246999994       173.257355      -1.18985879    
  -3.05008101      -4.56476784     -0.157000005       173.257355      -1.18985879    
  -4.56476784      -3.05008101     -0.157000005       156.089691      -1.22414219    
  -3.96396494      -2.64863706     -0.246999994       156.089691      -1.22414219    
  -3.37107491      -3.37107491     -0.246999994       156.089691      -1.22414219    
  -3.88201594      -3.88201594     -0.157000005       156.089691      -1.22414219    
  -5.07209921      -2.10093188     -0.157000005       109.787506      -1.19448233    
  -4.40452194      -1.82441294     -0.246999994       109.787506      -1.19448233    
  -3.96396494      -2.64863706     -0.246999994       109.787506      -1.19448233    
  -4.56476784      -3.05008101     -0.157000005       109.787506      -1.19448233    
  -5.38451099      -1.07104599     -0.157000005       60.9596672      -1.18618798    
  -4.67581606     -0.930077016     -0.246999994       60.9596672      -1.18618798    
  -4.40452194      -1.82441294     -0.246999994       60.9596672      -1.18618798    
  -5.07209921      -2.10093188     -0.157000005       60.9596672      -1.18618798    
  -5.48999977       0.00000000     -0.157000005       19.1429615      -1.22310650    
  -4.76741982       0.00000000     -0.246999994       19.1429615      -1.22310650    
  -4.67581606     -0.930077016     -0.246999994       19.1429615      -1.22310650    
  -5.38451099      -1.07104599     -0.157000005       19.1429615      -1.22310650    
  -5.38451099       1.07104599     -0.157000005       19.3198032       1.90289021    
  -4.67581606      0.930077016     -0.246999994       19.3198032       1.90289021    
  -4.76741982       0.00000000     -0.246999994       19.3198032       1.90289021    
  -5.48999977       0.00000000     -0.157000005       19.3198032       1.90289021    
  -5.07209921       2.10093188     -0.157000005       61.4999352       1.88894951    
  -4.40452194       1.82441294     -0.246999994       61.4999352       1.88894951    
  -4.67581606      0.930077016     -0.246999994       61.4999352       1.88894951    
  -5.38451099       1.07104599     -0.157000005       61.4999352       1.88894951    
  -4.56476784       3.05008101     -0.157000005       110.118896       1.89013648    
  -3.96396494       2.64863706     -0.246999994       110.118896       1.89013648    
  -4.40452194       1.82441294     -0.246999994       110.118896       1.89013648    
  -5.07209921       2.10093188     -0.157000005       110.118896       1.89013648    
  -3.88201594       3.88201594     -0.157000005       149.103806       1.92704988    
  -3.37107491       3.37107491     -0.246999994       149.103806       1.92704988    
  -3.96396494       2.64863706     -0.246999994       149.103806       1.92704988    
  -4.56476784       3.05008101     -0.157000005       149.103806       1.92704988    
  -3.05008101       4.56476784     -0.157000005       184.803619       1.91183817    
  -2.64863706       3.96396494     -0.246999994       184.803619       1.91183817    
  -3.37107491       3.37107491     -0.246999994       184.803619       1.91183817    
  -3.88201594       3.88201594     -0.157000005       184.803619       1.91183817    
  -2.10093188       5.07209921     -0.157000005       193.697372       1.94845867    
  -1.82441294       4.40452194     -0.246999994       193.697372       1.94845867    
  -2.64863706       3.96396494     -0.246999994       193.697372       1.94845867    
  -3.05008101       4.56476784     -0.157000005       193.697372       1.94845867    
  -1.07104599       5.38451099     -0.157000005       219.609344       1.90940654    
 -0.930077016       4.67581606     -0.246999994       219.609344       1.90940654    
  -1.82441294       4.40452194     -0.246999994       219.609344       1.90940654    
  -2.10093188       5.07209921     -0.157000005       219.609344       1.90940654    
   0.00000000       5.48999977     -0.157000005       223.783630       1.92594516    
   0.00000000       4.76741982     -0.246999994       223.783630       1.92594516    
 -0.930077016       4.67581606     -0.246999994       223.783630       1.92594516    
  -1.07104599       5.38451099     -0.157000005       223.783630       1.92594516    
   1.07104599       5.38451099     -0.157000005       232.006699       1.90016890    
  0.930077016       4.67581606     -0.246999994       232.006699       1.90016890    
   0.00000000       4.76741982     -0.246999994       232.006699       1.90016890    
   0.00000000       5.48999977     -0.157000005       232.006699       1.90016890    
   2.10093188       5.07209921     -0.157000005       211.145813       1.93725991    
   1.82441294       4.40452194     -0.246999994       211.145813       1.93725991    
  0.930077016       4.67581606     -0.246999994       211.145813       1.93725991    
   1.07104599       5.38451099     -0.157000005       211.145813       1.93725991    
   3.05008101       4.56476784     -0.157000005       192.027008       1.95552409    
   2.64863706       3.96396494     -0.246999994       192.027008       1.95552409    
   1.82441294       4.40452194     -0.246999994       192.027008       1.95552409    
   2.10093188       5.07209921     -0.157000005       192.027008       1.95552409    
   3.88201594       3.88201594     -0.157000005       183.812317       1.92054796    
   3.37107491       3.37107491     -0.246999994       183.812317       1.92054796    
   2.64863706       3.96396494     -0.246999994       183.812317       1.92054796    
   3.05008101       4.56476784     -0.157000005       183.812317       1.92054796    
   4.56476784       3.05008101     -0.157000005       152.610580       1.92516959    
   3.96396494       2.64863706     -0.246999994       152.610580       1.92516959    
   3.37107491       3.37107491     -0.246999994       152.610580       1.92516959    
   3.88201594       3.88201594     -0.157000005       152.610580       1.92516959    
   5.07209921       2.10093188     -0.157000005       110.178741       1.91374755    
   4.40452194       1.82441294     -0.246999994       110.178741       1.91374755    
   3.96396494       2.64863706     -0.246999994       110.178741       1.91374755    
   4.56476784       3.05008101     -0.157000005       110.178741       1.91374755    
   5.38451099       1.07104599     -0.157000005       57.9876709       1.95299172    
   4.67581606      0.930077016     -0.246999994       57.9876709       1.95299172    
   4.40452194       1.82441294     -0.246999994       57.9876709       1.95299172    
   5.07209921       2.10093188     -0.157000005       57.9876709       1.95299172    
   5.48999977       0.00000000     -0.157000005       16.5879517       1.94909346    
   4.76741982       0.00000000     -0.246999994       16.5879517       1.94909346    
   4.67581606      0.930077016     -0.246999994       16.5879517       1.94909346    
   5.38451099       1.07104599     -0.157000005       16.5879517       1.94909346    
   5.38451099      -1.07104599     -0.157000005       20.0454216      -1.15491271    
   4.67581606     -0.930077016     -0.246999994       20.0454216      -1.15491271    
   4.76741982       0.00000000     -0.246999994       20.0454216      -1.15491271    
   5.48999977       0.00000000     -0.157000005       20.0454216      -1.15491271    
   5.07209921      -2.10093188     -0.157000005       61.7668343      -1.18888021    
   4.40452194      -1.82441294     -0.246999994       61.7668343      -1.18888021    
   4.67581606     -0.930077016     -0.246999994       61.7668343      -1.18888021    
   5.38451099      -1.07104599     -0.157000005       61.7668343      -1.18888021    
   4.56476784      -3.05008101     -0.157000005       108.622849      -1.20497537    
   3.96396494      -2.64863706     -0.246999994       108.622849      -1.20497537    
   4.40452194      -1.82441294     -0.246999994       108.622849      -1.20497537    
   5.07209921      -2.10093188     -0.157000005       108.622849      -1.20497537    
   3.88201594      -3.88201594     -0.157000005       149.033997      -1.20879054    
   3.37107491      -3.37107491     -0.246999994       149.033997      -1.20879054    
   3.96396494      -2.64863706     -0.246999994       149.033997      -1.20879054    
   4.56476784      -3.05008101     -0.157000005       149.033997      -1.20879054    
   3.05008101      -4.56476784     -0.157000005       180.235260      -1.22821677    
   2.64863706      -3.96396494     -0.246999994       180.235260      -1.22821677    
   3.37107491      -3.37107491     -0.246999994       180.235260      -1.22821677    
   3.88201594      -3.88201594     -0.157000005       180.235260      -1.22821677    
   2.10093188      -5.07209921     -0.157000005       189.650406      -1.19099641    
   1.82441294      -4.40452194     -0.246999994       189.650406      -1.19099641    
   2.64863706      -3.96396494     -0.246999994       189.650406      -1.19099641    
   3.05008101      -4.56476784     -0.157000005       189.650406      -1.19099641    
   1.07104599      -5.38451099     -0.157000005       209.259735      -1.19625342    
  0.930077016      -4.67581606     -0.246999994       209.259735      -1.19625342    
   1.82441294      -4.40452194     -0.246999994       209.259735      -1.19625342    
   2.10093188      -5.07209921     -0.157000005       209.259735      -1.19625342    
   0.00000000      -1.87709999     -0.606999993       11796.4658      -1.56844282    
   0.00000000      -1.36500001     -0.606999993       11796.4658      -1.56844282    
  0.266297996      -1.33877206     -0.606999993       11796.4658      -1.56844282    
  0.366203994      -1.84103203     -0.606999993       11796.4658      -1.56844282    
   0.00000000      -1.87709999     -0.606999993       5176.13672      -1.56754076    
   0.00000000      -2.59967995     -0.517000020       5176.13672      -1.56754076    
 -0.507171988      -2.54972792     -0.517000020       5176.13672      -1.56754076    
 -0.366203994      -1.84103203     -0.606999993       5176.13672      -1.56754076    
 -0.366203994      -1.84103203     -0.606999993       11806.8770      -1.56844115    
 -0.266297996      -1.33877206     -0.606999993       11806.8770      -1.56844115    
   0.00000000      -1.36500001     -0.606999993       11806.8770      -1.56844115    
   0.00000000      -1.87709999     -0.606999993       11806.8770      -1.56844115    
 -0.366203994      -1.84103203     -0.606999993       5059.88965      -1.56758738    
 -0.507171988      -2.54972792     -0.517000020       5059.88965      -1.56758738    
 -0.994853973      -2.40179110     -0.517000020       5059.88965      -1.56758738    
 -0.718334973      -1.73421395     -0.606999993       5059.88965      -1.56758738    
 -0.718334973      -1.73421395     -0.606999993       11420.4756      -1.56844997    
 -0.522363007      -1.26109600     -0.606999993       11420.4756      -1.56844997    
 -0.266297996      -1.33877206     -0.606999993       11420.4756      -1.56844997    
 -0.366203994      -1.84103203     -0.606999993       11420.4756      -1.56844997    
 -0.718334973      -1.73421395     -0.606999993       4777.78760      -1.56764483    
 -0.994853973      -2.40179110     -0.517000020       4777.78760      -1.56764483    
  -1.44430494      -2.16155505     -0.517000020       4777.78760      -1.56764483    
  -1.04286098      -1.56075203     -0.606999993       4777.78760      -1.56764483    
  -1.04286098      -1.56075203     -0.606999993       10611.6191      -1.56846118    
 -0.758352995      -1.13495600     -0.606999993       10611.6191      -1.56846118    
 -0.522363007      -1.26109600     -0.606999993       10611.6191      -1.56846118    
 -0.718334973      -1.73421395     -0.606999993       10611.6191      -1.56846118    
  -1.04286098      -1.56075203     -0.606999993       4270.50488      -1.56766748    
  -1.44430494      -2.16155505     -0.517000020       4270.50488      -1.56766748    
  -1.83825099      -1.83825099     -0.517000020       4270.50488      -1.56766748    
  -1.32730997      -1.32730997     -0.606999993       4270.50488      -1.56766748    
  -1.32730997      -1.32730997     -0.606999993       9357.49121      -1.56846416    
 -0.965201020     -0.965201020     -0.606999993       9357.49121      -1.56846416    
 -0.758352995      -1.13495600     -0.606999993       9357.49121      -1.56846416    
  -1.04286098      -1.56075203     -0.606999993       9357.49121      -1.56846416    
  -1.32730997      -1.32730997     -0.606999993       3507.81299      -1.56763721    
  -1.83825099      -1.83825099     -0.517000020       3507.81299      -1.56763721    
  -2.16155505      -1.44430494     -0.517000020       3507.81299      -1.56763721    
  -1.56075203      -1.04286098     -0.606999993       3507.81299      -1.56763721    
  -1.56075203      -1.04286098     -0.606999993       7680.67041      -1.56845617    
  -1.13495600     -0.758352995     -0.606999993       7680.67041      -1.56845617    
 -0.965201020     -0.965201020     -0.606999993       7680.67041      -1.56845617    
  -1.32730997      -1.32730997     -0.606999993       7680.67041      -1.56845617    
  -1.56075203      -1.04286098     -0.606999993       2535.44116      -1.56755412    
  -2.16155505      -1.44430494     -0.517000020       2535.44116      -1.56755412    
  -2.40179110     -0.994853973     -0.517000020       2535.44116      -1.56755412    
  -1.73421395     -0.718334973     -0.606999993       2535.44116      -1.56755412    
  -1.73421395     -0.718334973     -0.606999993       5668.25342      -1.56843674    
  -1.26109600     -0.522363007     -0.606999993       5668.25342      -1.56843674    
  -1.13495600     -0.758352995     -0.606999993       5668.25342      -1.56843674    
  -1.56075203      -1.04286098     -0.606999993       5668.25342      -1.56843674    
  -1.73421395     -0.718334973     -0.606999993       1489.42712      -1.56744766    
  -2.40179110     -0.994853973     -0.517000020       1489.42712      -1.56744766    
  -2.54972792     -0.507171988     -0.517000020       1489.42712      -1.56744766    
  -1.84103203     -0.366203994     -0.606999993       1489.42712      -1.56744766    
  -1.84103203     -0.366203994     -0.606999993       3453.35889      -1.56841540    
  -1.33877206     -0.266297996     -0.606999993       3453.35889      -1.56841540    
  -1.26109600     -0.522363007     -0.606999993       3453.35889      -1.56841540    
  -1.73421395     -0.718334973     -0.606999993       3453.35889      -1.56841540    
  -1.84103203     -0.366203994     -0.606999993       483.870270      -1.56732929    
  -2.54972792     -0.507171988     -0.517000020       483.870270      -1.56732929    
  -2.59967995       0.00000000     -0.517000020       483.870270      -1.56732929    
  -1.87709999       0.00000000     -0.606999993       483.870270      -1.56732929    
  -1.87709999       0.00000000     -0.606999993       1159.40479      -1.56840539    
  -1.36500001       0.00000000     -0.606999993       1159.40479      -1.56840539    
  -1.33877206     -0.266297996     -0.606999993       1159.40479      -1.56840539    
  -1.84103203     -0.366203994     -0.606999993       1159.40479      -1.56840539    
  -1.87709999       0.00000000     -0.606999993       464.773102       1.57423842    
  -2.59967995       0.00000000     -0.517000020       464.773102       1.57423842    
  -2.54972792      0.507171988     -0.517000020       464.773102       1.57423842    
  -1.84103203      0.366203994     -0.606999993       464.773102       1.57423842    
  -1.84103203      0.366203994     -0.606999993       1135.20691       1.57322145    
  -1.33877206      0.266297996     -0.606999993       1135.20691       1.57322145    
  -1.36500001       0.00000000     -0.606999993       1135.20691       1.57322145    
  -1.87709999       0.00000000     -0.606999993       1135.20691       1.57322145    
  -1.84103203      0.366203994     -0.606999993       1427.36548       1.57419717    
  -2.54972792      0.507171988     -0.517000020       1427.36548       1.57419717    
  -2.40179110      0.994853973     -0.517000020       1427.36548       1.57419717    
  -1.73421395      0.718334973     -0.606999993       1427.36548       1.57419717    
  -1.73421395      0.718334973     -0.606999993       3392.43530       1.57320130    
  -1.26109600      0.522363007     -0.606999993       3392.43530       1.57320130    
  -1.33877206      0.266297996     -0.606999993       3392.43530       1.57320130    
  -1.84103203      0.366203994     -0.606999993       3392.43530       1.57320130    
  -1.73421395      0.718334973     -0.606999993       2427.09253       1.57410586    
  -2.40179110      0.994853973     -0.517000020       2427.09253       1.57410586    
  -2.16155505       1.44430494     -0.517000020       2427.09253       1.57410586    
  -1.56075203       1.04286098     -0.606999993       2427.09253       1.57410586    
  -1.56075203       1.04286098     -0.606999993       5556.47607       1.57318437    
  -1.13495600      0.758352995     -0.606999993       5556.47607       1.57318437    
  -1.26109600      0.522363007     -0.606999993       5556.47607       1.57318437    
  -1.73421395      0.718334973     -0.606999993       5556.47607       1.57318437    
  -1.56075203       1.04286098     -0.606999993       3384.77588       1.57401395    
  -2.16155505       1.44430494     -0.517000020       3384.77588       1.57401395    
  -1.83825099       1.83825099     -0.517000020       3384.77588       1.57401395    
  -1.32730997       1.32730997     -0.606999993       3384.77588       1.57401395    
  -1.32730997       1.32730997     -0.606999993       7527.85547       1.57316566    
 -0.965201020      0.965201020     -0.606999993       7527.85547       1.57316566    
  -1.13495600      0.758352995     -0.606999993       7527.85547       1.57316566    
  -1.56075203       1.04286098     -0.606999993       7527.85547       1.57316566    
  -1.32730997       1.32730997     -0.606999993       4162.82178       1.57397163    
  -1.83825099       1.83825099     -0.517000020       4162.82178       1.57397163    
  -1.44430494       2.16155505     -0.517000020       4162.82178       1.57397163    
  -1.04286098       1.56075203     -0.606999993       4162.82178       1.57397163    
  -1.04286098       1.56075203     -0.606999993       9181.34082       1.57315505    
 -0.758352995       1.13495600     -0.606999993       9181.34082       1.57315505    
 -0.965201020      0.965201020     -0.606999993       9181.34082       1.57315505    
  -1.32730997       1.32730997     -0.606999993       9181.34082       1.57315505    
  -1.04286098       1.56075203     -0.606999993       4690.69727       1.57398653    
  -1.44430494       2.16155505     -0.517000020       4690.69727       1.57398653    
 -0.994853973       2.40179110     -0.517000020       4690.69727       1.57398653    
 -0.718334973       1.73421395     -0.606999993       4690.69727       1.57398653    
 -0.718334973       1.73421395     -0.606999993       10427.8018       1.57315683    
 -0.522363007       1.26109600     -0.606999993       10427.8018       1.57315683    
 -0.758352995       1.13495600     -0.606999993       10427.8018       1.57315683    
  -1.04286098       1.56075203     -0.606999993       10427.8018       1.57315683    
 -0.718334973       1.73421395     -0.606999993       4985.82031       1.57403827    
 -0.994853973       2.40179110     -0.517000020       4985.82031       1.57403827    
 -0.507171988       2.54972792     -0.517000020       4985.82031       1.57403827    
 -0.366203994       1.84103203     -0.606999993       4985.82031       1.57403827    
 -0.366203994       1.84103203     -0.606999993       11237.4092       1.57316673    
 -0.266297996       1.33877206     -0.606999993       11237.4092       1.57316673    
 -0.522363007       1.26109600     -0.606999993       11237.4092       1.57316673    
 -0.718334973       1.73421395     -0.606999993       11237.4092       1.57316673    
 -0.366203994       1.84103203     -0.606999993       5109.58789       1.57408667    
 -0.507171988       2.54972792     -0.517000020       5109.58789       1.57408667    
   0.00000000       2.59967995     -0.517000020       5109.58789       1.57408667    
   0.00000000       1.87709999     -0.606999993       5109.58789       1.57408667    
   0.00000000       1.87709999     -0.606999993       11629.1250       1.57317579    
   0.00000000       1.36500001     -0.606999993       11629.1250       1.57317579    
 -0.266297996       1.33877206     -0.606999993       11629.1250       1.57317579    
 -0.366203994       1.84103203     -0.606999993       11629.1250       1.57317579    
   0.00000000       1.87709999     -0.606999993       5109.94824       1.57408643    
   0.00000000       2.59967995     -0.517000020       5109.94824       1.57408643    
  0.507171988       2.54972792     -0.517000020       5109.94824       1.57408643    
  0.366203994       1.84103203     -0.606999993       5109.94824       1.57408643    
  0.366203994       1.84103203     -0.606999993       11627.0547       1.57317507    
  0.266297996       1.33877206     -0.606999993       11627.0547       1.57317507    
   0.00000000       1.36500001     -0.606999993       11627.0547       1.57317507    
   0.00000000       1.87709999     -0.606999993       11627.0547       1.57317507    
  0.366203994       1.84103203     -0.606999993       4987.26562       1.57403755    
  0.507171988       2.54972792     -0.517000020       4987.26562       1.57403755    
  0.994853973       2.40179110     -0.517000020       4987.26562       1.57403755    
  0.718334973       1.73421395     -0.606999993       4987.26562       1.57403755    
  0.718334973       1.73421395     -0.606999993       11231.9482       1.57316339    
  0.522363007       1.26109600     -0.606999993       11231.9482       1.57316339    
  0.266297996       1.33877206     -0.606999993       11231.9482       1.57316339    
  0.366203994       1.84103203     -0.606999993       11231.9482       1.57316339    
  0.718334973       1.73421395     -0.606999993       4694.29639       1.57398391    
  0.994853973       2.40179110     -0.517000020       4694.29639       1.57398391    
   1.44430494       2.16155505     -0.517000020       4694.29639       1.57398391    
   1.04286098       1.56075203     -0.606999993       4694.29639       1.57398391    
   1.04286098       1.56075203     -0.606999993       10420.7324       1.57315123    
  0.758352995       1.13495600     -0.606999993       10420.7324       1.57315123    
  0.522363007       1.26109600     -0.606999993       10420.7324       1.57315123    
  0.718334973       1.73421395     -0.606999993       10420.7324       1.57315123    
   1.04286098       1.56075203     -0.606999993       4170.04785       1.57397604    
   1.44430494       2.16155505     -0.517000020       4170.04785       1.57397604    
   1.83825099       1.83825099     -0.517000020       4170.04785       1.57397604    
   1.32730997       1.32730997     -0.606999993       4170.04785       1.57397604    
   1.32730997       1.32730997     -0.606999993       9175.85938       1.57314980    
  0.965201020      0.965201020     -0.606999993       9175.85938       1.57314980    
  0.758352995       1.13495600     -0.606999993       9175.85938       1.57314980    
   1.04286098       1.56075203     -0.606999993       9175.85938       1.57314980    
   1.32730997       1.32730997     -0.606999993       3396.55591       1.57401967    
   1.83825099       1.83825099     -0.517000020       3396.55591       1.57401967    
   2.16155505       1.44430494     -0.517000020       3396.55591       1.57401967    
   1.56075203       1.04286098     -0.606999993       3396.55591       1.57401967    
   1.56075203       1.04286098     -0.606999993       7526.77686       1.57315981    
   1.13495600      0.758352995     -0.606999993       7526.77686       1.57315981    
  0.965201020      0.965201020     -0.606999993       7526.77686       1.57315981    
   1.32730997       1.32730997     -0.606999993       7526.77686       1.57315981    
   1.56075203       1.04286098     -0.606999993       2443.45117       1.57411528    
   2.16155505       1.44430494     -0.517000020       2443.45117       1.57411528    
   2.40179110      0.994853973     -0.517000020       2443.45117       1.57411528    
   1.73421395      0.718334973     -0.606999993       2443.45117       1.57411528    
   1.73421395      0.718334973     -0.606999993       5561.00830       1.57318389    
   1.26109600      0.522363007     -0.606999993       5561.00830       1.57318389    
   1.13495600      0.758352995     -0.606999993       5561.00830       1.57318389    
   1.56075203       1.04286098     -0.606999993       5561.00830       1.57318389    
   1.73421395      0.718334973     -0.606999993       1448.26538       1.57421529    
   2.40179110      0.994853973     -0.517000020       1448.26538       1.57421529    
   2.54972792      0.507171988     -0.517000020       1448.26538       1.57421529    
   1.84103203      0.366203994     -0.606999993       1448.26538       1.57421529    
   1.84103203      0.366203994     -0.606999993       3404.90527       1.57321143    
   1.33877206      0.266297996     -0.606999993       3404.90527       1.57321143    
   1.26109600      0.522363007     -0.606999993       3404.90527       1.57321143    
   1.73421395      0.718334973     -0.606999993       3404.90527       1.57321143    
   1.84103203      0.366203994     -0.606999993       490.558929       1.57430136    
   2.54972792      0.507171988     -0.517000020       490.558929       1.57430136    
   2.59967995       0.00000000     -0.517000020       490.558929       1.57430136    
   1.87709999       0.00000000     -0.606999993       490.558929       1.57430136    
   1.87709999       0.00000000     -0.606999993       1158.05688       1.57329071    
   1.36500001       0.00000000     -0.606999993       1158.05688       1.57329071    
   1.33877206      0.266297996     -0.606999993       1158.05688       1.57329071    
   1.84103203      0.366203994     -0.606999993       1158.05688       1.57329071    
   1.87709999       0.00000000     -0.606999993       453.348633      -1.56741500    
   2.59967995       0.00000000     -0.517000020       453.348633      -1.56741500    
   2.54972792     -0.507171988     -0.517000020       453.348633      -1.56741500    
   1.84103203     -0.366203994     -0.606999993       453.348633      -1.56741500    
   1.84103203     -0.366203994     -0.606999993       1125.95996      -1.56853330    
   1.33877206     -0.266297996     -0.606999993       1125.95996      -1.56853330    
   1.36500001       0.00000000     -0.606999993       1125.95996      -1.56853330    
   1.87709999       0.00000000     -0.606999993       1125.95996      -1.56853330    
   1.84103203     -0.366203994     -0.606999993       1455.06055      -1.56748855    
   2.54972792     -0.507171988     -0.517000020       1455.06055      -1.56748855    
   2.40179110     -0.994853973     -0.517000020       1455.06055      -1.56748855    
   1.73421395     -0.718334973     -0.606999993       1455.06055      -1.56748855    
   1.73421395     -0.718334973     -0.606999993       3411.06226      -1.56847072    
   1.26109600     -0.522363007     -0.606999993       3411.06226      -1.56847072    
   1.33877206     -0.266297996     -0.606999993       3411.06226      -1.56847072    
   1.84103203     -0.366203994     -0.606999993       3411.06226      -1.56847072    
   1.73421395     -0.718334973     -0.606999993       2499.00830      -1.56759143    
   2.40179110     -0.994853973     -0.517000020       2499.00830      -1.56759143    
   2.16155505      -1.44430494     -0.517000020       2499.00830      -1.56759143    
   1.56075203      -1.04286098     -0.606999993       2499.00830      -1.56759143    
   1.56075203      -1.04286098     -0.606999993       5620.50244      -1.56847727    
   1.13495600     -0.758352995     -0.606999993       5620.50244      -1.56847727    
   1.26109600     -0.522363007     -0.606999993       5620.50244      -1.56847727    