 VARIABLES="X" "Y" "Z" "abs(p) (Pa)" "angle(p) (rad)"
ZONE N=   2709,E =    2358, F=FEPOINT, ET=QUADRILATERAL
   0.00000000      -5.48999977     -0.157000005       4777.70801      -1.61420608    
   0.00000000      -4.76741982     -0.246999994       4777.70801      -1.61420608    
  0.930077016      -4.67581606     -0.246999994       4777.70801      -1.61420608    
   1.07104599      -5.38451099     -0.157000005       4777.70801      -1.61420608    
  -1.07104599      -5.38451099     -0.157000005       4783.69971      -1.61446536    
 -0.930077016      -4.67581606     -0.246999994       4783.69971      -1.61446536    
   0.00000000      -4.76741982     -0.246999994       4783.69971      -1.61446536    
   0.00000000      -5.48999977     -0.157000005       4783.69971      -1.61446536    
  -2.10093188      -5.07209921     -0.157000005       4661.66797      -1.61035347    
  -1.82441294      -4.40452194     -0.246999994       4661.66797      -1.61035347    
 -0.930077016      -4.67581606     -0.246999994       4661.66797      -1.61035347    
  -1.07104599      -5.38451099     -0.157000005       4661.66797      -1.61035347    
  -3.05008101      -4.56476784     -0.157000005       4246.08984      -1.61437678    
  -2.64863706      -3.96396494     -0.246999994       4246.08984      -1.61437678    
  -1.82441294      -4.40452194     -0.246999994       4246.08984      -1.61437678    
  -2.10093188      -5.07209921     -0.157000005       4246.08984      -1.61437678    
  -3.88201594      -3.88201594     -0.157000005       3712.11304      -1.61456394    
  -3.37107491      -3.37107491     -0.246999994       3712.11304      -1.61456394    
  -2.64863706      -3.96396494     -0.246999994       3712.11304      -1.61456394    
  -3.05008101      -4.56476784     -0.157000005       3712.11304      -1.61456394    
  -4.56476784      -3.05008101     -0.157000005       3082.65112      -1.60957229    
  -3.96396494      -2.64863706     -0.246999994       3082.65112      -1.60957229    
  -3.37107491      -3.37107491     -0.246999994       3082.65112      -1.60957229    
  -3.88201594      -3.88201594     -0.157000005       3082.65112      -1.60957229    
  -5.07209921      -2.10093188     -0.157000005       2263.47754      -1.61273623    
  -4.40452194      -1.82441294     -0.246999994       2263.47754      -1.61273623    
  -3.96396494      -2.64863706     -0.246999994       2263.47754      -1.61273623    
  -4.56476784      -3.05008101     -0.157000005       2263.47754      -1.61273623    
  -5.38451099      -1.07104599     -0.157000005       1391.49146      -1.61546206    
  -4.67581606     -0.930077016     -0.246999994       1391.49146      -1.61546206    
  -4.40452194      -1.82441294     -0.246999994       1391.49146      -1.61546206    
  -5.07209921      -2.10093188     -0.157000005       1391.49146      -1.61546206    
  -5.48999977       0.00000000     -0.157000005       472.565582      -1.61527455    
  -4.76741982       0.00000000     -0.246999994       472.565582      -1.61527455    
  -4.67581606     -0.930077016     -0.246999994       472.565582      -1.61527455    
  -5.38451099      -1.07104599     -0.157000005       472.565582      -1.61527455    
  -5.38451099       1.07104599     -0.157000005       482.839386       1.53149581    
  -4.67581606      0.930077016     -0.246999994       482.839386       1.53149581    
  -4.76741982       0.00000000     -0.246999994       482.839386       1.53149581    
  -5.48999977       0.00000000     -0.157000005       482.839386       1.53149581    
  -5.07209921       2.10093188     -0.157000005       1422.46863       1.53164458    
  -4.40452194       1.82441294     -0.246999994       1422.46863       1.53164458    
  -4.67581606      0.930077016     -0.246999994       1422.46863       1.53164458    
  -5.38451099       1.07104599     -0.157000005       1422.46863       1.53164458    
  -4.56476784       3.05008101     -0.157000005       2305.18042       1.53222442    
  -3.96396494       2.64863706     -0.246999994       2305.18042       1.53222442    
  -4.40452194       1.82441294     -0.246999994       2305.18042       1.53222442    
  -5.07209921       2.10093188     -0.157000005       2305.18042       1.53222442    
  -3.88201594       3.88201594     -0.157000005       3059.08228       1.52765369    
  -3.37107491       3.37107491     -0.246999994       3059.08228       1.52765369    
  -3.96396494       2.64863706     -0.246999994       3059.08228       1.52765369    
  -4.56476784       3.05008101     -0.157000005       3059.08228       1.52765369    
  -3.05008101       4.56476784     -0.157000005       3768.71484       1.53133595    
  -2.64863706       3.96396494     -0.246999994       3768.71484       1.53133595    
  -3.37107491       3.37107491     -0.246999994       3768.71484       1.53133595    
  -3.88201594       3.88201594     -0.157000005       3768.71484       1.53133595    
  -2.10093188       5.07209921     -0.157000005       4249.98340       1.52779710    
  -1.82441294       4.40452194     -0.246999994       4249.98340       1.52779710    
  -2.64863706       3.96396494     -0.246999994       4249.98340       1.52779710    
  -3.05008101       4.56476784     -0.157000005       4249.98340       1.52779710    
  -1.07104599       5.38451099     -0.157000005       4666.35400       1.53157318    
 -0.930077016       4.67581606     -0.246999994       4666.35400       1.53157318    
  -1.82441294       4.40452194     -0.246999994       4666.35400       1.53157318    
  -2.10093188       5.07209921     -0.157000005       4666.35400       1.53157318    
   0.00000000       5.48999977     -0.157000005       4795.30713       1.52718866    
   0.00000000       4.76741982     -0.246999994       4795.30713       1.52718866    
 -0.930077016       4.67581606     -0.246999994       4795.30713       1.52718866    
  -1.07104599       5.38451099     -0.157000005       4795.30713       1.52718866    
   1.07104599       5.38451099     -0.157000005       4847.02783       1.53129649    
  0.930077016       4.67581606     -0.246999994       4847.02783       1.53129649    
   0.00000000       4.76741982     -0.246999994       4847.02783       1.53129649    
   0.00000000       5.48999977     -0.157000005       4847.02783       1.53129649    
   2.10093188       5.07209921     -0.157000005       4607.85547       1.52800214    
   1.82441294       4.40452194     -0.246999994       4607.85547       1.52800214    
  0.930077016       4.67581606     -0.246999994       4607.85547       1.52800214    
   1.07104599       5.38451099     -0.157000005       4607.85547       1.52800214    
   3.05008101       4.56476784     -0.157000005       4242.31250       1.52701354    
   2.64863706       3.96396494     -0.246999994       4242.31250       1.52701354    
   1.82441294       4.40452194     -0.246999994       4242.31250       1.52701354    
   2.10093188       5.07209921     -0.157000005       4242.31250       1.52701354    
   3.88201594       3.88201594     -0.157000005       3761.21118       1.53083479    
   3.37107491       3.37107491     -0.246999994       3761.21118       1.53083479    
   2.64863706       3.96396494     -0.246999994       3761.21118       1.53083479    
   3.05008101       4.56476784     -0.157000005       3761.21118       1.53083479    
   4.56476784       3.05008101     -0.157000005       3067.91064       1.53041744    
   3.96396494       2.64863706     -0.246999994       3067.91064       1.53041744    
   3.37107491       3.37107491     -0.246999994       3067.91064       1.53041744    
   3.88201594       3.88201594     -0.157000005       3067.91064       1.53041744    
   5.07209921       2.10093188     -0.157000005       2290.63110       1.53299367    
   4.40452194       1.82441294     -0.246999994       2290.63110       1.53299367    
   3.96396494       2.64863706     -0.246999994       2290.63110       1.53299367    
   4.56476784       3.05008101     -0.157000005       2290.63110       1.53299367    
   5.38451099       1.07104599     -0.157000005       1393.67810       1.52572930    
   4.67581606      0.930077016     -0.246999994       1393.67810       1.52572930    
   4.40452194       1.82441294     -0.246999994       1393.67810       1.52572930    
   5.07209921       2.10093188     -0.157000005       1393.67810       1.52572930    
   5.48999977       0.00000000     -0.157000005       470.383881       1.52209878    
   4.76741982       0.00000000     -0.246999994       470.383881       1.52209878    
   4.67581606      0.930077016     -0.246999994       470.383881       1.52209878    
   5.38451099       1.07104599     -0.157000005       470.383881       1.52209878    
   5.38451099      -1.07104599     -0.157000005       471.501251      -1.61921024    
   4.67581606     -0.930077016     -0.246999994       471.501251      -1.61921024    
   4.76741982       0.00000000     -0.246999994       471.501251      -1.61921024    
   5.48999977       0.00000000     -0.157000005       471.501251      -1.61921024    
   5.07209921      -2.10093188     -0.157000005       1396.25488      -1.61494768    
   4.40452194      -1.82441294     -0.246999994       1396.25488      -1.61494768    
   4.67581606     -0.930077016     -0.246999994       1396.25488      -1.61494768    
   5.38451099      -1.07104599     -0.157000005       1396.25488      -1.61494768    
   4.56476784      -3.05008101     -0.157000005       2266.19946      -1.61301672    
   3.96396494      -2.64863706     -0.246999994       2266.19946      -1.61301672    
   4.40452194      -1.82441294     -0.246999994       2266.19946      -1.61301672    
   5.07209921      -2.10093188     -0.157000005       2266.19946      -1.61301672    
   3.88201594      -3.88201594     -0.157000005       3052.06860      -1.61398101    
   3.37107491      -3.37107491     -0.246999994       3052.06860      -1.61398101    
   3.96396494      -2.64863706     -0.246999994       3052.06860      -1.61398101    
   4.56476784      -3.05008101     -0.157000005       3052.06860      -1.61398101    
   3.05008101      -4.56476784     -0.157000005       3768.03979      -1.61072886    
   2.64863706      -3.96396494     -0.246999994       3768.03979      -1.61072886    
   3.37107491      -3.37107491     -0.246999994       3768.03979      -1.61072886    
   3.88201594      -3.88201594     -0.157000005       3768.03979      -1.61072886    
   2.10093188      -5.07209921     -0.157000005       4245.38184      -1.61428940    
   1.82441294      -4.40452194     -0.246999994       4245.38184      -1.61428940    
   2.64863706      -3.96396494     -0.246999994       4245.38184      -1.61428940    
   3.05008101      -4.56476784     -0.157000005       4245.38184      -1.61428940    
   1.07104599      -5.38451099     -0.157000005       4596.63574      -1.61393571    
  0.930077016      -4.67581606     -0.246999994       4596.63574      -1.61393571    
   1.82441294      -4.40452194     -0.246999994       4596.63574      -1.61393571    
   2.10093188      -5.07209921     -0.157000005       4596.63574      -1.61393571    
   0.00000000      -1.87709999     -0.606999993       3273.56274      -1.57373095    
   0.00000000      -1.36500001     -0.606999993       3273.56274      -1.57373095    
  0.266297996      -1.33877206     -0.606999993       3273.56274      -1.57373095    
  0.366203994      -1.84103203     -0.606999993       3273.56274      -1.57373095    
   0.00000000      -1.87709999     -0.606999993       2338.20752      -1.57439172    
   0.00000000      -2.59967995     -0.517000020       2338.20752      -1.57439172    
 -0.507171988      -2.54972792     -0.517000020       2338.20752      -1.57439172    
 -0.366203994      -1.84103203     -0.606999993       2338.20752      -1.57439172    
 -0.366203994      -1.84103203     -0.606999993       3273.46289      -1.57372391    
 -0.266297996      -1.33877206     -0.606999993       3273.46289      -1.57372391    
   0.00000000      -1.36500001     -0.606999993       3273.46289      -1.57372391    
   0.00000000      -1.87709999     -0.606999993       3273.46289      -1.57372391    
 -0.366203994      -1.84103203     -0.606999993       2243.15405      -1.57439160    
 -0.507171988      -2.54972792     -0.517000020       2243.15405      -1.57439160    
 -0.994853973      -2.40179110     -0.517000020       2243.15405      -1.57439160    
 -0.718334973      -1.73421395     -0.606999993       2243.15405      -1.57439160    
 -0.718334973      -1.73421395     -0.606999993       3145.38525      -1.57374144    
 -0.522363007      -1.26109600     -0.606999993       3145.38525      -1.57374144    
 -0.266297996      -1.33877206     -0.606999993       3145.38525      -1.57374144    
 -0.366203994      -1.84103203     -0.606999993       3145.38525      -1.57374144    
 -0.718334973      -1.73421395     -0.606999993       2063.74390      -1.57439542    
 -0.994853973      -2.40179110     -0.517000020       2063.74390      -1.57439542    
  -1.44430494      -2.16155505     -0.517000020       2063.74390      -1.57439542    
  -1.04286098      -1.56075203     -0.606999993       2063.74390      -1.57439542    
  -1.04286098      -1.56075203     -0.606999993       2897.13110      -1.57375538    
 -0.758352995      -1.13495600     -0.606999993       2897.13110      -1.57375538    
 -0.522363007      -1.26109600     -0.606999993       2897.13110      -1.57375538    
 -0.718334973      -1.73421395     -0.606999993       2897.13110      -1.57375538    
  -1.04286098      -1.56075203     -0.606999993       1810.56934      -1.57441545    
  -1.44430494      -2.16155505     -0.517000020       1810.56934      -1.57441545    
  -1.83825099      -1.83825099     -0.517000020       1810.56934      -1.57441545    
  -1.32730997      -1.32730997     -0.606999993       1810.56934      -1.57441545    
  -1.32730997      -1.32730997     -0.606999993       2539.60498      -1.57377946    
 -0.965201020     -0.965201020     -0.606999993       2539.60498      -1.57377946    
 -0.758352995      -1.13495600     -0.606999993       2539.60498      -1.57377946    
  -1.04286098      -1.56075203     -0.606999993       2539.60498      -1.57377946    
  -1.32730997      -1.32730997     -0.606999993       1489.83350      -1.57442880    
  -1.83825099      -1.83825099     -0.517000020       1489.83350      -1.57442880    
  -2.16155505      -1.44430494     -0.517000020       1489.83350      -1.57442880    
  -1.56075203      -1.04286098     -0.606999993       1489.83350      -1.57442880    
  -1.56075203      -1.04286098     -0.606999993       2085.25928      -1.57379055    
  -1.13495600     -0.758352995     -0.606999993       2085.25928      -1.57379055    
 -0.965201020     -0.965201020     -0.606999993       2085.25928      -1.57379055    
  -1.32730997      -1.32730997     -0.606999993       2085.25928      -1.57379055    
  -1.56075203      -1.04286098     -0.606999993       1108.76233      -1.57442522    
  -2.16155505      -1.44430494     -0.517000020       1108.76233      -1.57442522    
  -2.40179110     -0.994853973     -0.517000020       1108.76233      -1.57442522    
  -1.73421395     -0.718334973     -0.606999993       1108.76233      -1.57442522    
  -1.73421395     -0.718334973     -0.606999993       1549.56299      -1.57381034    
  -1.26109600     -0.522363007     -0.606999993       1549.56299      -1.57381034    
  -1.13495600     -0.758352995     -0.606999993       1549.56299      -1.57381034    
  -1.56075203      -1.04286098     -0.606999993       1549.56299      -1.57381034    
  -1.73421395     -0.718334973     -0.606999993       681.605469      -1.57441187    
  -2.40179110     -0.994853973     -0.517000020       681.605469      -1.57441187    
  -2.54972792     -0.507171988     -0.517000020       681.605469      -1.57441187    
  -1.84103203     -0.366203994     -0.606999993       681.605469      -1.57441187    
  -1.84103203     -0.366203994     -0.606999993       952.508972      -1.57385111    
  -1.33877206     -0.266297996     -0.606999993       952.508972      -1.57385111    
  -1.26109600     -0.522363007     -0.606999993       952.508972      -1.57385111    
  -1.73421395     -0.718334973     -0.606999993       952.508972      -1.57385111    
  -1.84103203     -0.366203994     -0.606999993       228.725708      -1.57455933    
  -2.54972792     -0.507171988     -0.517000020       228.725708      -1.57455933    
  -2.59967995       0.00000000     -0.517000020       228.725708      -1.57455933    
  -1.87709999       0.00000000     -0.606999993       228.725708      -1.57455933    
  -1.87709999       0.00000000     -0.606999993       318.179138      -1.57416356    
  -1.36500001       0.00000000     -0.606999993       318.179138      -1.57416356    
  -1.33877206     -0.266297996     -0.606999993       318.179138      -1.57416356    
  -1.84103203     -0.366203994     -0.606999993       318.179138      -1.57416356    
  -1.87709999       0.00000000     -0.606999993       231.238846       1.56755257    
  -2.59967995       0.00000000     -0.517000020       231.238846       1.56755257    
  -2.54972792      0.507171988     -0.517000020       231.238846       1.56755257    
  -1.84103203      0.366203994     -0.606999993       231.238846       1.56755257    
  -1.84103203      0.366203994     -0.606999993       328.156281       1.56842887    
  -1.33877206      0.266297996     -0.606999993       328.156281       1.56842887    
  -1.36500001       0.00000000     -0.606999993       328.156281       1.56842887    
  -1.87709999       0.00000000     -0.606999993       328.156281       1.56842887    
  -1.84103203      0.366203994     -0.606999993       683.574585       1.56736100    
  -2.54972792      0.507171988     -0.517000020       683.574585       1.56736100    
  -2.40179110      0.994853973     -0.517000020       683.574585       1.56736100    
  -1.73421395      0.718334973     -0.606999993       683.574585       1.56736100    
  -1.73421395      0.718334973     -0.606999993       961.954041       1.56808925    
  -1.26109600      0.522363007     -0.606999993       961.954041       1.56808925    
  -1.33877206      0.266297996     -0.606999993       961.954041       1.56808925    
  -1.84103203      0.366203994     -0.606999993       961.954041       1.56808925    
  -1.73421395      0.718334973     -0.606999993       1110.94238       1.56727231    
  -2.40179110      0.994853973     -0.517000020       1110.94238       1.56727231    
  -2.16155505       1.44430494     -0.517000020       1110.94238       1.56727231    
  -1.56075203       1.04286098     -0.606999993       1110.94238       1.56727231    
  -1.56075203       1.04286098     -0.606999993       1558.54993       1.56800926    
  -1.13495600      0.758352995     -0.606999993       1558.54993       1.56800926    
  -1.26109600      0.522363007     -0.606999993       1558.54993       1.56800926    
  -1.73421395      0.718334973     -0.606999993       1558.54993       1.56800926    
  -1.56075203       1.04286098     -0.606999993       1492.89856       1.56724429    
  -2.16155505       1.44430494     -0.517000020       1492.89856       1.56724429    
  -1.83825099       1.83825099     -0.517000020       1492.89856       1.56724429    
  -1.32730997       1.32730997     -0.606999993       1492.89856       1.56724429    
  -1.32730997       1.32730997     -0.606999993       2093.85254       1.56797695    
 -0.965201020      0.965201020     -0.606999993       2093.85254       1.56797695    
  -1.13495600      0.758352995     -0.606999993       2093.85254       1.56797695    
  -1.56075203       1.04286098     -0.606999993       2093.85254       1.56797695    
  -1.32730997       1.32730997     -0.606999993       1814.10962       1.56724024    
  -1.83825099       1.83825099     -0.517000020       1814.10962       1.56724024    
  -1.44430494       2.16155505     -0.517000020       1814.10962       1.56724024    
  -1.04286098       1.56075203     -0.606999993       1814.10962       1.56724024    
  -1.04286098       1.56075203     -0.606999993       2547.47388       1.56796062    
 -0.758352995       1.13495600     -0.606999993       2547.47388       1.56796062    
 -0.965201020      0.965201020     -0.606999993       2547.47388       1.56796062    
  -1.32730997       1.32730997     -0.606999993       2547.47388       1.56796062    
  -1.04286098       1.56075203     -0.606999993       2067.09863       1.56725490    
  -1.44430494       2.16155505     -0.517000020       2067.09863       1.56725490    
 -0.994853973       2.40179110     -0.517000020       2067.09863       1.56725490    
 -0.718334973       1.73421395     -0.606999993       2067.09863       1.56725490    
 -0.718334973       1.73421395     -0.606999993       2904.09424       1.56796908    
 -0.522363007       1.26109600     -0.606999993       2904.09424       1.56796908    
 -0.758352995       1.13495600     -0.606999993       2904.09424       1.56796908    
  -1.04286098       1.56075203     -0.606999993       2904.09424       1.56796908    
 -0.718334973       1.73421395     -0.606999993       2246.06226       1.56725883    
 -0.994853973       2.40179110     -0.517000020       2246.06226       1.56725883    
 -0.507171988       2.54972792     -0.517000020       2246.06226       1.56725883    
 -0.366203994       1.84103203     -0.606999993       2246.06226       1.56725883    
 -0.366203994       1.84103203     -0.606999993       3151.41626       1.56797624    
 -0.266297996       1.33877206     -0.606999993       3151.41626       1.56797624    
 -0.522363007       1.26109600     -0.606999993       3151.41626       1.56797624    
 -0.718334973       1.73421395     -0.606999993       3151.41626       1.56797624    
 -0.366203994       1.84103203     -0.606999993       2340.83325       1.56726599    
 -0.507171988       2.54972792     -0.517000020       2340.83325       1.56726599    
   0.00000000       2.59967995     -0.517000020       2340.83325       1.56726599    
   0.00000000       1.87709999     -0.606999993       2340.83325       1.56726599    
   0.00000000       1.87709999     -0.606999993       3278.46973       1.56798851    
   0.00000000       1.36500001     -0.606999993       3278.46973       1.56798851    
 -0.266297996       1.33877206     -0.606999993       3278.46973       1.56798851    
 -0.366203994       1.84103203     -0.606999993       3278.46973       1.56798851    
   0.00000000       1.87709999     -0.606999993       2340.65479       1.56726909    
   0.00000000       2.59967995     -0.517000020       2340.65479       1.56726909    
  0.507171988       2.54972792     -0.517000020       2340.65479       1.56726909    
  0.366203994       1.84103203     -0.606999993       2340.65479       1.56726909    
  0.366203994       1.84103203     -0.606999993       3277.58765       1.56798744    
  0.266297996       1.33877206     -0.606999993       3277.58765       1.56798744    
   0.00000000       1.36500001     -0.606999993       3277.58765       1.56798744    
   0.00000000       1.87709999     -0.606999993       3277.58765       1.56798744    
  0.366203994       1.84103203     -0.606999993       2245.56860       1.56727326    
  0.507171988       2.54972792     -0.517000020       2245.56860       1.56727326    
  0.994853973       2.40179110     -0.517000020       2245.56860       1.56727326    
  0.718334973       1.73421395     -0.606999993       2245.56860       1.56727326    
  0.718334973       1.73421395     -0.606999993       3148.93115       1.56797695    
  0.522363007       1.26109600     -0.606999993       3148.93115       1.56797695    
  0.266297996       1.33877206     -0.606999993       3148.93115       1.56797695    
  0.366203994       1.84103203     -0.606999993       3148.93115       1.56797695    
  0.718334973       1.73421395     -0.606999993       2066.42993       1.56727779    
  0.994853973       2.40179110     -0.517000020       2066.42993       1.56727779    
   1.44430494       2.16155505     -0.517000020       2066.42993       1.56727779    
   1.04286098       1.56075203     -0.606999993       2066.42993       1.56727779    
   1.04286098       1.56075203     -0.606999993       2900.32129       1.56798315    
  0.758352995       1.13495600     -0.606999993       2900.32129       1.56798315    
  0.522363007       1.26109600     -0.606999993       2900.32129       1.56798315    
  0.718334973       1.73421395     -0.606999993       2900.32129       1.56798315    
   1.04286098       1.56075203     -0.606999993       1813.43958       1.56727374    
   1.44430494       2.16155505     -0.517000020       1813.43958       1.56727374    
   1.83825099       1.83825099     -0.517000020       1813.43958       1.56727374    
   1.32730997       1.32730997     -0.606999993       1813.43958       1.56727374    
   1.32730997       1.32730997     -0.606999993       2542.73364       1.56799197    
  0.965201020      0.965201020     -0.606999993       2542.73364       1.56799197    
  0.758352995       1.13495600     -0.606999993       2542.73364       1.56799197    
   1.04286098       1.56075203     -0.606999993       2542.73364       1.56799197    
   1.32730997       1.32730997     -0.606999993       1492.20154       1.56729734    
   1.83825099       1.83825099     -0.517000020       1492.20154       1.56729734    
   2.16155505       1.44430494     -0.517000020       1492.20154       1.56729734    
   1.56075203       1.04286098     -0.606999993       1492.20154       1.56729734    
   1.56075203       1.04286098     -0.606999993       2088.32227       1.56800318    
   1.13495600      0.758352995     -0.606999993       2088.32227       1.56800318    
  0.965201020      0.965201020     -0.606999993       2088.32227       1.56800318    
   1.32730997       1.32730997     -0.606999993       2088.32227       1.56800318    
   1.56075203       1.04286098     -0.606999993       1110.07568       1.56735718    
   2.16155505       1.44430494     -0.517000020       1110.07568       1.56735718    
   2.40179110      0.994853973     -0.517000020       1110.07568       1.56735718    
   1.73421395      0.718334973     -0.606999993       1110.07568       1.56735718    
   1.73421395      0.718334973     -0.606999993       1551.90735       1.56806028    
   1.26109600      0.522363007     -0.606999993       1551.90735       1.56806028    
   1.13495600      0.758352995     -0.606999993       1551.90735       1.56806028    
   1.56075203       1.04286098     -0.606999993       1551.90735       1.56806028    
   1.73421395      0.718334973     -0.606999993       682.427490       1.56747794    
   2.40179110      0.994853973     -0.517000020       682.427490       1.56747794    
   2.54972792      0.507171988     -0.517000020       682.427490       1.56747794    
   1.84103203      0.366203994     -0.606999993       682.427490       1.56747794    
   1.84103203      0.366203994     -0.606999993       954.184448       1.56816792    
   1.33877206      0.266297996     -0.606999993       954.184448       1.56816792    
   1.26109600      0.522363007     -0.606999993       954.184448       1.56816792    
   1.73421395      0.718334973     -0.606999993       954.184448       1.56816792    
   1.84103203      0.366203994     -0.606999993       229.980545       1.56792808    
   2.54972792      0.507171988     -0.517000020       229.980545       1.56792808    
   2.59967995       0.00000000     -0.517000020       229.980545       1.56792808    
   1.87709999       0.00000000     -0.606999993       229.980545       1.56792808    
   1.87709999       0.00000000     -0.606999993       319.900360       1.56865919    
   1.36500001       0.00000000     -0.606999993       319.900360       1.56865919    
   1.33877206      0.266297996     -0.606999993       319.900360       1.56865919    
   1.84103203      0.366203994     -0.606999993       319.900360       1.56865919    
   1.87709999       0.00000000     -0.606999993       229.881638      -1.57492793    
   2.59967995       0.00000000     -0.517000020       229.881638      -1.57492793    
   2.54972792     -0.507171988     -0.517000020       229.881638      -1.57492793    
   1.84103203     -0.366203994     -0.606999993       229.881638      -1.57492793    
   1.84103203     -0.366203994     -0.606999993       326.225159      -1.57436037    
   1.33877206     -0.266297996     -0.606999993       326.225159      -1.57436037    
   1.36500001       0.00000000     -0.606999993       326.225159      -1.57436037    
   1.87709999       0.00000000     -0.606999993       326.225159      -1.57436037    
   1.84103203     -0.366203994     -0.606999993       682.442993      -1.57454228    
   2.54972792     -0.507171988     -0.517000020       682.442993      -1.57454228    
   2.40179110     -0.994853973     -0.517000020       682.442993      -1.57454228    
   1.73421395     -0.718334973     -0.606999993       682.442993      -1.57454228    
   1.73421395     -0.718334973     -0.606999993       959.746765      -1.57390797    
   1.26109600     -0.522363007     -0.606999993       959.746765      -1.57390797    
   1.33877206     -0.266297996     -0.606999993       959.746765      -1.57390797    
   1.84103203     -0.366203994     -0.606999993       959.746765      -1.57390797    
   1.73421395     -0.718334973     -0.606999993       1109.10864      -1.57450879    
   2.40179110     -0.994853973     -0.517000020       1109.10864      -1.57450879    
   2.16155505      -1.44430494     -0.517000020       1109.10864      -1.57450879    
   1.56075203      -1.04286098     -0.606999993       1109.10864      -1.57450879    
   1.56075203      -1.04286098     -0.606999993       1555.55969      -1.57383454    
   1.13495600     -0.758352995     -0.606999993       1555.55969      -1.57383454    
   1.26109600     -0.522363007     -0.606999993       1555.55969      -1.57383454    