 VARIABLES="X" "Y" "Z" "abs(p) (Pa)" "angle(p) (rad)"
ZONE N=   2709,E =    2358, F=FEPOINT, ET=QUADRILATERAL
   0.00000000      -5.48999977     -0.157000005       1235.17419     -0.376934141    
   0.00000000      -4.76741982     -0.246999994       1235.17419     -0.376934141    
  0.930077016      -4.67581606     -0.246999994       1235.17419     -0.376934141    
   1.07104599      -5.38451099     -0.157000005       1235.17419     -0.376934141    
  -1.07104599      -5.38451099     -0.157000005       1234.68054     -0.377475291    
 -0.930077016      -4.67581606     -0.246999994       1234.68054     -0.377475291    
   0.00000000      -4.76741982     -0.246999994       1234.68054     -0.377475291    
   0.00000000      -5.48999977     -0.157000005       1234.68054     -0.377475291    
  -2.10093188      -5.07209921     -0.157000005       1180.32874     -0.384144843    
  -1.82441294      -4.40452194     -0.246999994       1180.32874     -0.384144843    
 -0.930077016      -4.67581606     -0.246999994       1180.32874     -0.384144843    
  -1.07104599      -5.38451099     -0.157000005       1180.32874     -0.384144843    
  -3.05008101      -4.56476784     -0.157000005       1097.50830     -0.380325466    
  -2.64863706      -3.96396494     -0.246999994       1097.50830     -0.380325466    
  -1.82441294      -4.40452194     -0.246999994       1097.50830     -0.380325466    
  -2.10093188      -5.07209921     -0.157000005       1097.50830     -0.380325466    
  -3.88201594      -3.88201594     -0.157000005       967.546631     -0.388338387    
  -3.37107491      -3.37107491     -0.246999994       967.546631     -0.388338387    
  -2.64863706      -3.96396494     -0.246999994       967.546631     -0.388338387    
  -3.05008101      -4.56476784     -0.157000005       967.546631     -0.388338387    
  -4.56476784      -3.05008101     -0.157000005       792.132263     -0.403664500    
  -3.96396494      -2.64863706     -0.246999994       792.132263     -0.403664500    
  -3.37107491      -3.37107491     -0.246999994       792.132263     -0.403664500    
  -3.88201594      -3.88201594     -0.157000005       792.132263     -0.403664500    
  -5.07209921      -2.10093188     -0.157000005       596.190552     -0.397253901    
  -4.40452194      -1.82441294     -0.246999994       596.190552     -0.397253901    
  -3.96396494      -2.64863706     -0.246999994       596.190552     -0.397253901    
  -4.56476784      -3.05008101     -0.157000005       596.190552     -0.397253901    
  -5.38451099      -1.07104599     -0.157000005       371.459229     -0.389538616    
  -4.67581606     -0.930077016     -0.246999994       371.459229     -0.389538616    
  -4.40452194      -1.82441294     -0.246999994       371.459229     -0.389538616    
  -5.07209921      -2.10093188     -0.157000005       371.459229     -0.389538616    
  -5.48999977       0.00000000     -0.157000005       131.609100     -0.402609438    
  -4.76741982       0.00000000     -0.246999994       131.609100     -0.402609438    
  -4.67581606     -0.930077016     -0.246999994       131.609100     -0.402609438    
  -5.38451099      -1.07104599     -0.157000005       131.609100     -0.402609438    
  -5.38451099       1.07104599     -0.157000005       110.499100       2.80118442    
  -4.67581606      0.930077016     -0.246999994       110.499100       2.80118442    
  -4.76741982       0.00000000     -0.246999994       110.499100       2.80118442    
  -5.48999977       0.00000000     -0.157000005       110.499100       2.80118442    
  -5.07209921       2.10093188     -0.157000005       350.108337       2.76820064    
  -4.40452194       1.82441294     -0.246999994       350.108337       2.76820064    
  -4.67581606      0.930077016     -0.246999994       350.108337       2.76820064    
  -5.38451099       1.07104599     -0.157000005       350.108337       2.76820064    
  -4.56476784       3.05008101     -0.157000005       580.181030       2.75171900    
  -3.96396494       2.64863706     -0.246999994       580.181030       2.75171900    
  -4.40452194       1.82441294     -0.246999994       580.181030       2.75171900    
  -5.07209921       2.10093188     -0.157000005       580.181030       2.75171900    
  -3.88201594       3.88201594     -0.157000005       793.434570       2.74971366    
  -3.37107491       3.37107491     -0.246999994       793.434570       2.74971366    
  -3.96396494       2.64863706     -0.246999994       793.434570       2.74971366    
  -4.56476784       3.05008101     -0.157000005       793.434570       2.74971366    
  -3.05008101       4.56476784     -0.157000005       962.755127       2.74688721    
  -2.64863706       3.96396494     -0.246999994       962.755127       2.74688721    
  -3.37107491       3.37107491     -0.246999994       962.755127       2.74688721    
  -3.88201594       3.88201594     -0.157000005       962.755127       2.74688721    
  -2.10093188       5.07209921     -0.157000005       1103.91003       2.75965881    
  -1.82441294       4.40452194     -0.246999994       1103.91003       2.75965881    
  -2.64863706       3.96396494     -0.246999994       1103.91003       2.75965881    
  -3.05008101       4.56476784     -0.157000005       1103.91003       2.75965881    
  -1.07104599       5.38451099     -0.157000005       1190.77881       2.75682473    
 -0.930077016       4.67581606     -0.246999994       1190.77881       2.75682473    
  -1.82441294       4.40452194     -0.246999994       1190.77881       2.75682473    
  -2.10093188       5.07209921     -0.157000005       1190.77881       2.75682473    
   0.00000000       5.48999977     -0.157000005       1247.07202       2.76224542    
   0.00000000       4.76741982     -0.246999994       1247.07202       2.76224542    
 -0.930077016       4.67581606     -0.246999994       1247.07202       2.76224542    
  -1.07104599       5.38451099     -0.157000005       1247.07202       2.76224542    
   1.07104599       5.38451099     -0.157000005       1239.94031       2.75724554    
  0.930077016       4.67581606     -0.246999994       1239.94031       2.75724554    
   0.00000000       4.76741982     -0.246999994       1239.94031       2.75724554    
   0.00000000       5.48999977     -0.157000005       1239.94031       2.75724554    
   2.10093188       5.07209921     -0.157000005       1200.73718       2.76193476    
   1.82441294       4.40452194     -0.246999994       1200.73718       2.76193476    
  0.930077016       4.67581606     -0.246999994       1200.73718       2.76193476    
   1.07104599       5.38451099     -0.157000005       1200.73718       2.76193476    
   3.05008101       4.56476784     -0.157000005       1107.35986       2.75966620    
   2.64863706       3.96396494     -0.246999994       1107.35986       2.75966620    
   1.82441294       4.40452194     -0.246999994       1107.35986       2.75966620    
   2.10093188       5.07209921     -0.157000005       1107.35986       2.75966620    
   3.88201594       3.88201594     -0.157000005       964.781372       2.74528527    
   3.37107491       3.37107491     -0.246999994       964.781372       2.74528527    
   2.64863706       3.96396494     -0.246999994       964.781372       2.74528527    
   3.05008101       4.56476784     -0.157000005       964.781372       2.74528527    
   4.56476784       3.05008101     -0.157000005       791.440186       2.74339485    
   3.96396494       2.64863706     -0.246999994       791.440186       2.74339485    
   3.37107491       3.37107491     -0.246999994       791.440186       2.74339485    
   3.88201594       3.88201594     -0.157000005       791.440186       2.74339485    
   5.07209921       2.10093188     -0.157000005       582.840393       2.74942136    
   4.40452194       1.82441294     -0.246999994       582.840393       2.74942136    
   3.96396494       2.64863706     -0.246999994       582.840393       2.74942136    
   4.56476784       3.05008101     -0.157000005       582.840393       2.74942136    
   5.38451099       1.07104599     -0.157000005       357.839661       2.77354193    
   4.67581606      0.930077016     -0.246999994       357.839661       2.77354193    
   4.40452194       1.82441294     -0.246999994       357.839661       2.77354193    
   5.07209921       2.10093188     -0.157000005       357.839661       2.77354193    
   5.48999977       0.00000000     -0.157000005       117.494461       2.81113625    
   4.76741982       0.00000000     -0.246999994       117.494461       2.81113625    
   4.67581606      0.930077016     -0.246999994       117.494461       2.81113625    
   5.38451099       1.07104599     -0.157000005       117.494461       2.81113625    
   5.38451099      -1.07104599     -0.157000005       126.806488     -0.404561311    
   4.67581606     -0.930077016     -0.246999994       126.806488     -0.404561311    
   4.76741982       0.00000000     -0.246999994       126.806488     -0.404561311    
   5.48999977       0.00000000     -0.157000005       126.806488     -0.404561311    
   5.07209921      -2.10093188     -0.157000005       367.078949     -0.390203446    
   4.40452194      -1.82441294     -0.246999994       367.078949     -0.390203446    
   4.67581606     -0.930077016     -0.246999994       367.078949     -0.390203446    
   5.38451099      -1.07104599     -0.157000005       367.078949     -0.390203446    
   4.56476784      -3.05008101     -0.157000005       594.643616     -0.395228148    
   3.96396494      -2.64863706     -0.246999994       594.643616     -0.395228148    
   4.40452194      -1.82441294     -0.246999994       594.643616     -0.395228148    
   5.07209921      -2.10093188     -0.157000005       594.643616     -0.395228148    
   3.88201594      -3.88201594     -0.157000005       797.210144     -0.395957977    
   3.37107491      -3.37107491     -0.246999994       797.210144     -0.395957977    
   3.96396494      -2.64863706     -0.246999994       797.210144     -0.395957977    
   4.56476784      -3.05008101     -0.157000005       797.210144     -0.395957977    
   3.05008101      -4.56476784     -0.157000005       959.044739     -0.393790573    
   2.64863706      -3.96396494     -0.246999994       959.044739     -0.393790573    
   3.37107491      -3.37107491     -0.246999994       959.044739     -0.393790573    
   3.88201594      -3.88201594     -0.157000005       959.044739     -0.393790573    
   2.10093188      -5.07209921     -0.157000005       1096.26428     -0.379954755    
   1.82441294      -4.40452194     -0.246999994       1096.26428     -0.379954755    
   2.64863706      -3.96396494     -0.246999994       1096.26428     -0.379954755    
   3.05008101      -4.56476784     -0.157000005       1096.26428     -0.379954755    
   1.07104599      -5.38451099     -0.157000005       1188.64856     -0.377862930    
  0.930077016      -4.67581606     -0.246999994       1188.64856     -0.377862930    
   1.82441294      -4.40452194     -0.246999994       1188.64856     -0.377862930    
   2.10093188      -5.07209921     -0.157000005       1188.64856     -0.377862930    
   0.00000000      -1.87709999     -0.606999993       10052.9219      -1.54799557    
   0.00000000      -1.36500001     -0.606999993       10052.9219      -1.54799557    
  0.266297996      -1.33877206     -0.606999993       10052.9219      -1.54799557    
  0.366203994      -1.84103203     -0.606999993       10052.9219      -1.54799557    
   0.00000000      -1.87709999     -0.606999993       5340.10645      -1.51516426    
   0.00000000      -2.59967995     -0.517000020       5340.10645      -1.51516426    
 -0.507171988      -2.54972792     -0.517000020       5340.10645      -1.51516426    
 -0.366203994      -1.84103203     -0.606999993       5340.10645      -1.51516426    
 -0.366203994      -1.84103203     -0.606999993       10060.2285      -1.54799116    
 -0.266297996      -1.33877206     -0.606999993       10060.2285      -1.54799116    
   0.00000000      -1.36500001     -0.606999993       10060.2285      -1.54799116    
   0.00000000      -1.87709999     -0.606999993       10060.2285      -1.54799116    
 -0.366203994      -1.84103203     -0.606999993       5190.10840      -1.51564598    
 -0.507171988      -2.54972792     -0.517000020       5190.10840      -1.51564598    
 -0.994853973      -2.40179110     -0.517000020       5190.10840      -1.51564598    
 -0.718334973      -1.73421395     -0.606999993       5190.10840      -1.51564598    
 -0.718334973      -1.73421395     -0.606999993       9719.64160      -1.54800904    
 -0.522363007      -1.26109600     -0.606999993       9719.64160      -1.54800904    
 -0.266297996      -1.33877206     -0.606999993       9719.64160      -1.54800904    
 -0.366203994      -1.84103203     -0.606999993       9719.64160      -1.54800904    
 -0.718334973      -1.73421395     -0.606999993       4863.80078      -1.51630390    
 -0.994853973      -2.40179110     -0.517000020       4863.80078      -1.51630390    
  -1.44430494      -2.16155505     -0.517000020       4863.80078      -1.51630390    
  -1.04286098      -1.56075203     -0.606999993       4863.80078      -1.51630390    
  -1.04286098      -1.56075203     -0.606999993       9020.58594      -1.54802191    
 -0.758352995      -1.13495600     -0.606999993       9020.58594      -1.54802191    
 -0.522363007      -1.26109600     -0.606999993       9020.58594      -1.54802191    
 -0.718334973      -1.73421395     -0.606999993       9020.58594      -1.54802191    
  -1.04286098      -1.56075203     -0.606999993       4328.85498      -1.51676643    
  -1.44430494      -2.16155505     -0.517000020       4328.85498      -1.51676643    
  -1.83825099      -1.83825099     -0.517000020       4328.85498      -1.51676643    
  -1.32730997      -1.32730997     -0.606999993       4328.85498      -1.51676643    
  -1.32730997      -1.32730997     -0.606999993       7956.39404      -1.54798818    
 -0.965201020     -0.965201020     -0.606999993       7956.39404      -1.54798818    
 -0.758352995      -1.13495600     -0.606999993       7956.39404      -1.54798818    
  -1.04286098      -1.56075203     -0.606999993       7956.39404      -1.54798818    
  -1.32730997      -1.32730997     -0.606999993       3569.58423      -1.51672268    
  -1.83825099      -1.83825099     -0.517000020       3569.58423      -1.51672268    
  -2.16155505      -1.44430494     -0.517000020       3569.58423      -1.51672268    
  -1.56075203      -1.04286098     -0.606999993       3569.58423      -1.51672268    
  -1.56075203      -1.04286098     -0.606999993       6549.70996      -1.54789376    
  -1.13495600     -0.758352995     -0.606999993       6549.70996      -1.54789376    
 -0.965201020     -0.965201020     -0.606999993       6549.70996      -1.54789376    
  -1.32730997      -1.32730997     -0.606999993       6549.70996      -1.54789376    
  -1.56075203      -1.04286098     -0.606999993       2621.91455      -1.51601350    
  -2.16155505      -1.44430494     -0.517000020       2621.91455      -1.51601350    
  -2.40179110     -0.994853973     -0.517000020       2621.91455      -1.51601350    
  -1.73421395     -0.718334973     -0.606999993       2621.91455      -1.51601350    
  -1.73421395     -0.718334973     -0.606999993       4866.55664      -1.54774463    
  -1.26109600     -0.522363007     -0.606999993       4866.55664      -1.54774463    
  -1.13495600     -0.758352995     -0.606999993       4866.55664      -1.54774463    
  -1.56075203      -1.04286098     -0.606999993       4866.55664      -1.54774463    
  -1.73421395     -0.718334973     -0.606999993       1585.78809      -1.51493835    
  -2.40179110     -0.994853973     -0.517000020       1585.78809      -1.51493835    
  -2.54972792     -0.507171988     -0.517000020       1585.78809      -1.51493835    
  -1.84103203     -0.366203994     -0.606999993       1585.78809      -1.51493835    
  -1.84103203     -0.366203994     -0.606999993       3004.21704      -1.54751086    
  -1.33877206     -0.266297996     -0.606999993       3004.21704      -1.54751086    
  -1.26109600     -0.522363007     -0.606999993       3004.21704      -1.54751086    
  -1.73421395     -0.718334973     -0.606999993       3004.21704      -1.54751086    
  -1.84103203     -0.366203994     -0.606999993       551.610229      -1.51446855    
  -2.54972792     -0.507171988     -0.517000020       551.610229      -1.51446855    
  -2.59967995       0.00000000     -0.517000020       551.610229      -1.51446855    
  -1.87709999       0.00000000     -0.606999993       551.610229      -1.51446855    
  -1.87709999       0.00000000     -0.606999993       1057.65210      -1.54674661    
  -1.36500001       0.00000000     -0.606999993       1057.65210      -1.54674661    
  -1.33877206     -0.266297996     -0.606999993       1057.65210      -1.54674661    
  -1.84103203     -0.366203994     -0.606999993       1057.65210      -1.54674661    
  -1.87709999       0.00000000     -0.606999993       454.730713       1.62984312    
  -2.59967995       0.00000000     -0.517000020       454.730713       1.62984312    
  -2.54972792      0.507171988     -0.517000020       454.730713       1.62984312    
  -1.84103203      0.366203994     -0.606999993       454.730713       1.62984312    
  -1.84103203      0.366203994     -0.606999993       904.682556       1.59264982    
  -1.33877206      0.266297996     -0.606999993       904.682556       1.59264982    
  -1.36500001       0.00000000     -0.606999993       904.682556       1.59264982    
  -1.87709999       0.00000000     -0.606999993       904.682556       1.59264982    
  -1.84103203      0.366203994     -0.606999993       1466.31750       1.62833893    
  -2.54972792      0.507171988     -0.517000020       1466.31750       1.62833893    
  -2.40179110      0.994853973     -0.517000020       1466.31750       1.62833893    
  -1.73421395      0.718334973     -0.606999993       1466.31750       1.62833893    
  -1.73421395      0.718334973     -0.606999993       2839.70166       1.59350753    
  -1.26109600      0.522363007     -0.606999993       2839.70166       1.59350753    
  -1.33877206      0.266297996     -0.606999993       2839.70166       1.59350753    
  -1.84103203      0.366203994     -0.606999993       2839.70166       1.59350753    
  -1.73421395      0.718334973     -0.606999993       2483.44116       1.62714005    
  -2.40179110      0.994853973     -0.517000020       2483.44116       1.62714005    
  -2.16155505       1.44430494     -0.517000020       2483.44116       1.62714005    
  -1.56075203       1.04286098     -0.606999993       2483.44116       1.62714005    
  -1.56075203       1.04286098     -0.606999993       4692.16211       1.59366751    
  -1.13495600      0.758352995     -0.606999993       4692.16211       1.59366751    
  -1.26109600      0.522363007     -0.606999993       4692.16211       1.59366751    
  -1.73421395      0.718334973     -0.606999993       4692.16211       1.59366751    
  -1.56075203       1.04286098     -0.606999993       3437.21411       1.62620437    
  -2.16155505       1.44430494     -0.517000020       3437.21411       1.62620437    
  -1.83825099       1.83825099     -0.517000020       3437.21411       1.62620437    
  -1.32730997       1.32730997     -0.606999993       3437.21411       1.62620437    
  -1.32730997       1.32730997     -0.606999993       6379.24707       1.59372020    
 -0.965201020      0.965201020     -0.606999993       6379.24707       1.59372020    
  -1.13495600      0.758352995     -0.606999993       6379.24707       1.59372020    
  -1.56075203       1.04286098     -0.606999993       6379.24707       1.59372020    
  -1.32730997       1.32730997     -0.606999993       4224.33057       1.62590325    
  -1.83825099       1.83825099     -0.517000020       4224.33057       1.62590325    
  -1.44430494       2.16155505     -0.517000020       4224.33057       1.62590325    
  -1.04286098       1.56075203     -0.606999993       4224.33057       1.62590325    
  -1.04286098       1.56075203     -0.606999993       7803.88477       1.59375441    
 -0.758352995       1.13495600     -0.606999993       7803.88477       1.59375441    
 -0.965201020      0.965201020     -0.606999993       7803.88477       1.59375441    
  -1.32730997       1.32730997     -0.606999993       7803.88477       1.59375441    
  -1.04286098       1.56075203     -0.606999993       4790.29883       1.62617743    
  -1.44430494       2.16155505     -0.517000020       4790.29883       1.62617743    
 -0.994853973       2.40179110     -0.517000020       4790.29883       1.62617743    
 -0.718334973       1.73421395     -0.606999993       4790.29883       1.62617743    
 -0.718334973       1.73421395     -0.606999993       8895.26855       1.59380019    
 -0.522363007       1.26109600     -0.606999993       8895.26855       1.59380019    
 -0.758352995       1.13495600     -0.606999993       8895.26855       1.59380019    
  -1.04286098       1.56075203     -0.606999993       8895.26855       1.59380019    
 -0.718334973       1.73421395     -0.606999993       5140.23828       1.62672055    
 -0.994853973       2.40179110     -0.517000020       5140.23828       1.62672055    
 -0.507171988       2.54972792     -0.517000020       5140.23828       1.62672055    
 -0.366203994       1.84103203     -0.606999993       5140.23828       1.62672055    
 -0.366203994       1.84103203     -0.606999993       9622.21973       1.59385848    
 -0.266297996       1.33877206     -0.606999993       9622.21973       1.59385848    
 -0.522363007       1.26109600     -0.606999993       9622.21973       1.59385848    
 -0.718334973       1.73421395     -0.606999993       9622.21973       1.59385848    
 -0.366203994       1.84103203     -0.606999993       5306.21191       1.62712514    
 -0.507171988       2.54972792     -0.517000020       5306.21191       1.62712514    
   0.00000000       2.59967995     -0.517000020       5306.21191       1.62712514    
   0.00000000       1.87709999     -0.606999993       5306.21191       1.62712514    
   0.00000000       1.87709999     -0.606999993       9986.11035       1.59389544    
   0.00000000       1.36500001     -0.606999993       9986.11035       1.59389544    
 -0.266297996       1.33877206     -0.606999993       9986.11035       1.59389544    
 -0.366203994       1.84103203     -0.606999993       9986.11035       1.59389544    
   0.00000000       1.87709999     -0.606999993       5311.66504       1.62708151    
   0.00000000       2.59967995     -0.517000020       5311.66504       1.62708151    
  0.507171988       2.54972792     -0.517000020       5311.66504       1.62708151    
  0.366203994       1.84103203     -0.606999993       5311.66504       1.62708151    
  0.366203994       1.84103203     -0.606999993       9994.91406       1.59388518    
  0.266297996       1.33877206     -0.606999993       9994.91406       1.59388518    
   0.00000000       1.36500001     -0.606999993       9994.91406       1.59388518    
   0.00000000       1.87709999     -0.606999993       9994.91406       1.59388518    
  0.366203994       1.84103203     -0.606999993       5156.43604       1.62659037    
  0.507171988       2.54972792     -0.517000020       5156.43604       1.62659037    
  0.994853973       2.40179110     -0.517000020       5156.43604       1.62659037    
  0.718334973       1.73421395     -0.606999993       5156.43604       1.62659037    
  0.718334973       1.73421395     -0.606999993       9648.30859       1.59382546    
  0.522363007       1.26109600     -0.606999993       9648.30859       1.59382546    
  0.266297996       1.33877206     -0.606999993       9648.30859       1.59382546    
  0.366203994       1.84103203     -0.606999993       9648.30859       1.59382546    
  0.718334973       1.73421395     -0.606999993       4816.84229       1.62594891    
  0.994853973       2.40179110     -0.517000020       4816.84229       1.62594891    
   1.44430494       2.16155505     -0.517000020       4816.84229       1.62594891    
   1.04286098       1.56075203     -0.606999993       4816.84229       1.62594891    
   1.04286098       1.56075203     -0.606999993       8937.29980       1.59374368    
  0.758352995       1.13495600     -0.606999993       8937.29980       1.59374368    
  0.522363007       1.26109600     -0.606999993       8937.29980       1.59374368    
  0.718334973       1.73421395     -0.606999993       8937.29980       1.59374368    
   1.04286098       1.56075203     -0.606999993       4260.38037       1.62555420    
   1.44430494       2.16155505     -0.517000020       4260.38037       1.62555420    
   1.83825099       1.83825099     -0.517000020       4260.38037       1.62555420    
   1.32730997       1.32730997     -0.606999993       4260.38037       1.62555420    
   1.32730997       1.32730997     -0.606999993       7860.22852       1.59367371    
  0.965201020      0.965201020     -0.606999993       7860.22852       1.59367371    
  0.758352995       1.13495600     -0.606999993       7860.22852       1.59367371    
   1.04286098       1.56075203     -0.606999993       7860.22852       1.59367371    
   1.32730997       1.32730997     -0.606999993       3480.99292       1.62569666    
   1.83825099       1.83825099     -0.517000020       3480.99292       1.62569666    
   2.16155505       1.44430494     -0.517000020       3480.99292       1.62569666    
   1.56075203       1.04286098     -0.606999993       3480.99292       1.62569666    
   1.56075203       1.04286098     -0.606999993       6446.75684       1.59361708    
   1.13495600      0.758352995     -0.606999993       6446.75684       1.59361708    
  0.965201020      0.965201020     -0.606999993       6446.75684       1.59361708    
   1.32730997       1.32730997     -0.606999993       6446.75684       1.59361708    
   1.56075203       1.04286098     -0.606999993       2532.12256       1.62637913    
   2.16155505       1.44430494     -0.517000020       2532.12256       1.62637913    
   2.40179110      0.994853973     -0.517000020       2532.12256       1.62637913    
   1.73421395      0.718334973     -0.606999993       2532.12256       1.62637913    
   1.73421395      0.718334973     -0.606999993       4765.66016       1.59354758    
   1.26109600      0.522363007     -0.606999993       4765.66016       1.59354758    
   1.13495600      0.758352995     -0.606999993       4765.66016       1.59354758    
   1.56075203       1.04286098     -0.606999993       4765.66016       1.59354758    
   1.73421395      0.718334973     -0.606999993       1517.14331       1.62704396    
   2.40179110      0.994853973     -0.517000020       1517.14331       1.62704396    
   2.54972792      0.507171988     -0.517000020       1517.14331       1.62704396    
   1.84103203      0.366203994     -0.606999993       1517.14331       1.62704396    
   1.84103203      0.366203994     -0.606999993       2915.51123       1.59336650    
   1.33877206      0.266297996     -0.606999993       2915.51123       1.59336650    
   1.26109600      0.522363007     -0.606999993       2915.51123       1.59336650    
   1.73421395      0.718334973     -0.606999993       2915.51123       1.59336650    
   1.84103203      0.366203994     -0.606999993       505.702759       1.62599266    
   2.54972792      0.507171988     -0.517000020       505.702759       1.62599266    
   2.59967995       0.00000000     -0.517000020       505.702759       1.62599266    
   1.87709999       0.00000000     -0.606999993       505.702759       1.62599266    
   1.87709999       0.00000000     -0.606999993       980.424561       1.59244502    
   1.36500001       0.00000000     -0.606999993       980.424561       1.59244502    
   1.33877206      0.266297996     -0.606999993       980.424561       1.59244502    
   1.84103203      0.366203994     -0.606999993       980.424561       1.59244502    
   1.87709999       0.00000000     -0.606999993       502.047211      -1.51108694    
   2.59967995       0.00000000     -0.517000020       502.047211      -1.51108694    
   2.54972792     -0.507171988     -0.517000020       502.047211      -1.51108694    
   1.84103203     -0.366203994     -0.606999993       502.047211      -1.51108694    
   1.84103203     -0.366203994     -0.606999993       984.767151      -1.54655147    
   1.33877206     -0.266297996     -0.606999993       984.767151      -1.54655147    
   1.36500001       0.00000000     -0.606999993       984.767151      -1.54655147    
   1.87709999       0.00000000     -0.606999993       984.767151      -1.54655147    
   1.84103203     -0.366203994     -0.606999993       1539.00024      -1.51392853    
   2.54972792     -0.507171988     -0.517000020       1539.00024      -1.51392853    
   2.40179110     -0.994853973     -0.517000020       1539.00024      -1.51392853    
   1.73421395     -0.718334973     -0.606999993       1539.00024      -1.51392853    
   1.73421395     -0.718334973     -0.606999993       2936.75830      -1.54751980    
   1.26109600     -0.522363007     -0.606999993       2936.75830      -1.54751980    
   1.33877206     -0.266297996     -0.606999993       2936.75830      -1.54751980    
   1.84103203     -0.366203994     -0.606999993       2936.75830      -1.54751980    
   1.73421395     -0.718334973     -0.606999993       2579.29590      -1.51548135    
   2.40179110     -0.994853973     -0.517000020       2579.29590      -1.51548135    
   2.16155505      -1.44430494     -0.517000020       2579.29590      -1.51548135    
   1.56075203      -1.04286098     -0.606999993       2579.29590      -1.51548135    
   1.56075203      -1.04286098     -0.606999993       4807.03711      -1.54778576    
   1.13495600     -0.758352995     -0.606999993       4807.03711      -1.54778576    
   1.26109600     -0.522363007     -0.606999993       4807.03711      -1.54778576    