 VARIABLES="X" "Y" "Z" "abs(p) (Pa)" "angle(p) (rad)"
ZONE N=   2709,E =    2358, F=FEPOINT, ET=QUADRILATERAL
   0.00000000      -5.48999977     -0.157000005       1.65198243       1.61999714    
   0.00000000      -4.76741982     -0.246999994       1.65198243       1.61999714    
  0.930077016      -4.67581606     -0.246999994       1.65198243       1.61999714    
   1.07104599      -5.38451099     -0.157000005       1.65198243       1.61999714    
  -1.07104599      -5.38451099     -0.157000005       1.77127004       1.72351825    
 -0.930077016      -4.67581606     -0.246999994       1.77127004       1.72351825    
   0.00000000      -4.76741982     -0.246999994       1.77127004       1.72351825    
   0.00000000      -5.48999977     -0.157000005       1.77127004       1.72351825    
  -2.10093188      -5.07209921     -0.157000005       3.18421221       1.71823609    
  -1.82441294      -4.40452194     -0.246999994       3.18421221       1.71823609    
 -0.930077016      -4.67581606     -0.246999994       3.18421221       1.71823609    
  -1.07104599      -5.38451099     -0.157000005       3.18421221       1.71823609    
  -3.05008101      -4.56476784     -0.157000005       2.28819656       1.83623254    
  -2.64863706      -3.96396494     -0.246999994       2.28819656       1.83623254    
  -1.82441294      -4.40452194     -0.246999994       2.28819656       1.83623254    
  -2.10093188      -5.07209921     -0.157000005       2.28819656       1.83623254    
  -3.88201594      -3.88201594     -0.157000005       2.52068019       1.79795206    
  -3.37107491      -3.37107491     -0.246999994       2.52068019       1.79795206    
  -2.64863706      -3.96396494     -0.246999994       2.52068019       1.79795206    
  -3.05008101      -4.56476784     -0.157000005       2.52068019       1.79795206    
  -4.56476784      -3.05008101     -0.157000005      0.415851295       2.65168428    
  -3.96396494      -2.64863706     -0.246999994      0.415851295       2.65168428    
  -3.37107491      -3.37107491     -0.246999994      0.415851295       2.65168428    
  -3.88201594      -3.88201594     -0.157000005      0.415851295       2.65168428    
  -5.07209921      -2.10093188     -0.157000005       1.03751886       1.66682136    
  -4.40452194      -1.82441294     -0.246999994       1.03751886       1.66682136    
  -3.96396494      -2.64863706     -0.246999994       1.03751886       1.66682136    
  -4.56476784      -3.05008101     -0.157000005       1.03751886       1.66682136    
  -5.38451099      -1.07104599     -0.157000005       1.59540069       1.47951794    
  -4.67581606     -0.930077016     -0.246999994       1.59540069       1.47951794    
  -4.40452194      -1.82441294     -0.246999994       1.59540069       1.47951794    
  -5.07209921      -2.10093188     -0.157000005       1.59540069       1.47951794    
  -5.48999977       0.00000000     -0.157000005       3.26369667       1.48768747    
  -4.76741982       0.00000000     -0.246999994       3.26369667       1.48768747    
  -4.67581606     -0.930077016     -0.246999994       3.26369667       1.48768747    
  -5.38451099      -1.07104599     -0.157000005       3.26369667       1.48768747    
  -5.38451099       1.07104599     -0.157000005       3.62675333       1.49753487    
  -4.67581606      0.930077016     -0.246999994       3.62675333       1.49753487    
  -4.76741982       0.00000000     -0.246999994       3.62675333       1.49753487    
  -5.48999977       0.00000000     -0.157000005       3.62675333       1.49753487    
  -5.07209921       2.10093188     -0.157000005       3.73318696       1.52559769    
  -4.40452194       1.82441294     -0.246999994       3.73318696       1.52559769    
  -4.67581606      0.930077016     -0.246999994       3.73318696       1.52559769    
  -5.38451099       1.07104599     -0.157000005       3.73318696       1.52559769    
  -4.56476784       3.05008101     -0.157000005       3.64940739       1.55674326    
  -3.96396494       2.64863706     -0.246999994       3.64940739       1.55674326    
  -4.40452194       1.82441294     -0.246999994       3.64940739       1.55674326    
  -5.07209921       2.10093188     -0.157000005       3.64940739       1.55674326    
  -3.88201594       3.88201594     -0.157000005       2.32052016       1.58430314    
  -3.37107491       3.37107491     -0.246999994       2.32052016       1.58430314    
  -3.96396494       2.64863706     -0.246999994       2.32052016       1.58430314    
  -4.56476784       3.05008101     -0.157000005       2.32052016       1.58430314    
  -3.05008101       4.56476784     -0.157000005       3.34315586       1.58953285    
  -2.64863706       3.96396494     -0.246999994       3.34315586       1.58953285    
  -3.37107491       3.37107491     -0.246999994       3.34315586       1.58953285    
  -3.88201594       3.88201594     -0.157000005       3.34315586       1.58953285    
  -2.10093188       5.07209921     -0.157000005       2.11877346       1.60450840    
  -1.82441294       4.40452194     -0.246999994       2.11877346       1.60450840    
  -2.64863706       3.96396494     -0.246999994       2.11877346       1.60450840    
  -3.05008101       4.56476784     -0.157000005       2.11877346       1.60450840    
  -1.07104599       5.38451099     -0.157000005       3.17204309       1.59927142    
 -0.930077016       4.67581606     -0.246999994       3.17204309       1.59927142    
  -1.82441294       4.40452194     -0.246999994       3.17204309       1.59927142    
  -2.10093188       5.07209921     -0.157000005       3.17204309       1.59927142    
   0.00000000       5.48999977     -0.157000005       2.05316305       1.63887024    
   0.00000000       4.76741982     -0.246999994       2.05316305       1.63887024    
 -0.930077016       4.67581606     -0.246999994       2.05316305       1.63887024    
  -1.07104599       5.38451099     -0.157000005       2.05316305       1.63887024    
   1.07104599       5.38451099     -0.157000005       3.25520873       1.62930536    
  0.930077016       4.67581606     -0.246999994       3.25520873       1.62930536    
   0.00000000       4.76741982     -0.246999994       3.25520873       1.62930536    
   0.00000000       5.48999977     -0.157000005       3.25520873       1.62930536    
   2.10093188       5.07209921     -0.157000005       2.17973232       1.66541243    
   1.82441294       4.40452194     -0.246999994       2.17973232       1.66541243    
  0.930077016       4.67581606     -0.246999994       2.17973232       1.66541243    
   1.07104599       5.38451099     -0.157000005       2.17973232       1.66541243    
   3.05008101       4.56476784     -0.157000005       2.24552059       1.63194287    
   2.64863706       3.96396494     -0.246999994       2.24552059       1.63194287    
   1.82441294       4.40452194     -0.246999994       2.24552059       1.63194287    
   2.10093188       5.07209921     -0.157000005       2.24552059       1.63194287    
   3.88201594       3.88201594     -0.157000005       3.61330843       1.56852663    
   3.37107491       3.37107491     -0.246999994       3.61330843       1.56852663    
   2.64863706       3.96396494     -0.246999994       3.61330843       1.56852663    
   3.05008101       4.56476784     -0.157000005       3.61330843       1.56852663    
   4.56476784       3.05008101     -0.157000005       2.50343132       1.50152445    
   3.96396494       2.64863706     -0.246999994       2.50343132       1.50152445    
   3.37107491       3.37107491     -0.246999994       2.50343132       1.50152445    
   3.88201594       3.88201594     -0.157000005       2.50343132       1.50152445    
   5.07209921       2.10093188     -0.157000005       2.75849795       1.47031379    
   4.40452194       1.82441294     -0.246999994       2.75849795       1.47031379    
   3.96396494       2.64863706     -0.246999994       2.75849795       1.47031379    
   4.56476784       3.05008101     -0.157000005       2.75849795       1.47031379    
   5.38451099       1.07104599     -0.157000005       1.77905333       1.41809034    
   4.67581606      0.930077016     -0.246999994       1.77905333       1.41809034    
   4.40452194       1.82441294     -0.246999994       1.77905333       1.41809034    
   5.07209921       2.10093188     -0.157000005       1.77905333       1.41809034    
   5.48999977       0.00000000     -0.157000005       1.84445238       1.49516809    
   4.76741982       0.00000000     -0.246999994       1.84445238       1.49516809    
   4.67581606      0.930077016     -0.246999994       1.84445238       1.49516809    
   5.38451099       1.07104599     -0.157000005       1.84445238       1.49516809    
   5.38451099      -1.07104599     -0.157000005       1.97986054       1.59670794    
   4.67581606     -0.930077016     -0.246999994       1.97986054       1.59670794    
   4.76741982       0.00000000     -0.246999994       1.97986054       1.59670794    
   5.48999977       0.00000000     -0.157000005       1.97986054       1.59670794    
   5.07209921      -2.10093188     -0.157000005       2.02335501       1.67610848    
   4.40452194      -1.82441294     -0.246999994       2.02335501       1.67610848    
   4.67581606     -0.930077016     -0.246999994       2.02335501       1.67610848    
   5.38451099      -1.07104599     -0.157000005       2.02335501       1.67610848    
   4.56476784      -3.05008101     -0.157000005       1.99176395       1.71079421    
   3.96396494      -2.64863706     -0.246999994       1.99176395       1.71079421    
   4.40452194      -1.82441294     -0.246999994       1.99176395       1.71079421    
   5.07209921      -2.10093188     -0.157000005       1.99176395       1.71079421    
   3.88201594      -3.88201594     -0.157000005       2.00955534       1.68691719    
   3.37107491      -3.37107491     -0.246999994       2.00955534       1.68691719    
   3.96396494      -2.64863706     -0.246999994       2.00955534       1.68691719    
   4.56476784      -3.05008101     -0.157000005       2.00955534       1.68691719    
   3.05008101      -4.56476784     -0.157000005       3.19892311       1.60776329    
   2.64863706      -3.96396494     -0.246999994       3.19892311       1.60776329    
   3.37107491      -3.37107491     -0.246999994       3.19892311       1.60776329    
   3.88201594      -3.88201594     -0.157000005       3.19892311       1.60776329    
   2.10093188      -5.07209921     -0.157000005       1.91194332       1.57787061    
   1.82441294      -4.40452194     -0.246999994       1.91194332       1.57787061    
   2.64863706      -3.96396494     -0.246999994       1.91194332       1.57787061    
   3.05008101      -4.56476784     -0.157000005       1.91194332       1.57787061    
   1.07104599      -5.38451099     -0.157000005       1.69615519       1.56406999    
  0.930077016      -4.67581606     -0.246999994       1.69615519       1.56406999    
   1.82441294      -4.40452194     -0.246999994       1.69615519       1.56406999    
   2.10093188      -5.07209921     -0.157000005       1.69615519       1.56406999    
   0.00000000      -1.87709999     -0.606999993       1.53042305      -1.62700307    
   0.00000000      -1.36500001     -0.606999993       1.53042305      -1.62700307    
  0.266297996      -1.33877206     -0.606999993       1.53042305      -1.62700307    
  0.366203994      -1.84103203     -0.606999993       1.53042305      -1.62700307    
   0.00000000      -1.87709999     -0.606999993      0.358214170      -1.78768122    
   0.00000000      -2.59967995     -0.517000020      0.358214170      -1.78768122    
 -0.507171988      -2.54972792     -0.517000020      0.358214170      -1.78768122    
 -0.366203994      -1.84103203     -0.606999993      0.358214170      -1.78768122    
 -0.366203994      -1.84103203     -0.606999993       1.58940315      -1.62907159    
 -0.266297996      -1.33877206     -0.606999993       1.58940315      -1.62907159    
   0.00000000      -1.36500001     -0.606999993       1.58940315      -1.62907159    
   0.00000000      -1.87709999     -0.606999993       1.58940315      -1.62907159    
 -0.366203994      -1.84103203     -0.606999993      0.382381856      -1.78734565    
 -0.507171988      -2.54972792     -0.517000020      0.382381856      -1.78734565    
 -0.994853973      -2.40179110     -0.517000020      0.382381856      -1.78734565    
 -0.718334973      -1.73421395     -0.606999993      0.382381856      -1.78734565    
 -0.718334973      -1.73421395     -0.606999993       1.64786589      -1.62697792    
 -0.522363007      -1.26109600     -0.606999993       1.64786589      -1.62697792    
 -0.266297996      -1.33877206     -0.606999993       1.64786589      -1.62697792    
 -0.366203994      -1.84103203     -0.606999993       1.64786589      -1.62697792    
 -0.718334973      -1.73421395     -0.606999993      0.405039519      -1.77006459    
 -0.994853973      -2.40179110     -0.517000020      0.405039519      -1.77006459    
  -1.44430494      -2.16155505     -0.517000020      0.405039519      -1.77006459    
  -1.04286098      -1.56075203     -0.606999993      0.405039519      -1.77006459    
  -1.04286098      -1.56075203     -0.606999993       1.70270598      -1.62064540    
 -0.758352995      -1.13495600     -0.606999993       1.70270598      -1.62064540    
 -0.522363007      -1.26109600     -0.606999993       1.70270598      -1.62064540    
 -0.718334973      -1.73421395     -0.606999993       1.70270598      -1.62064540    
  -1.04286098      -1.56075203     -0.606999993      0.422673643      -1.73682785    
  -1.44430494      -2.16155505     -0.517000020      0.422673643      -1.73682785    
  -1.83825099      -1.83825099     -0.517000020      0.422673643      -1.73682785    
  -1.32730997      -1.32730997     -0.606999993      0.422673643      -1.73682785    
  -1.32730997      -1.32730997     -0.606999993       1.74512494      -1.61080384    
 -0.965201020     -0.965201020     -0.606999993       1.74512494      -1.61080384    
 -0.758352995      -1.13495600     -0.606999993       1.74512494      -1.61080384    
  -1.04286098      -1.56075203     -0.606999993       1.74512494      -1.61080384    
  -1.32730997      -1.32730997     -0.606999993      0.429785967      -1.69242311    
  -1.83825099      -1.83825099     -0.517000020      0.429785967      -1.69242311    
  -2.16155505      -1.44430494     -0.517000020      0.429785967      -1.69242311    
  -1.56075203      -1.04286098     -0.606999993      0.429785967      -1.69242311    
  -1.56075203      -1.04286098     -0.606999993       1.76451659      -1.59870291    
  -1.13495600     -0.758352995     -0.606999993       1.76451659      -1.59870291    
 -0.965201020     -0.965201020     -0.606999993       1.76451659      -1.59870291    
  -1.32730997      -1.32730997     -0.606999993       1.76451659      -1.59870291    
  -1.56075203      -1.04286098     -0.606999993      0.416696936      -1.64395845    
  -2.16155505      -1.44430494     -0.517000020      0.416696936      -1.64395845    
  -2.40179110     -0.994853973     -0.517000020      0.416696936      -1.64395845    
  -1.73421395     -0.718334973     -0.606999993      0.416696936      -1.64395845    
  -1.73421395     -0.718334973     -0.606999993       1.74452114      -1.58600402    
  -1.26109600     -0.522363007     -0.606999993       1.74452114      -1.58600402    
  -1.13495600     -0.758352995     -0.606999993       1.74452114      -1.58600402    
  -1.56075203      -1.04286098     -0.606999993       1.74452114      -1.58600402    
  -1.73421395     -0.718334973     -0.606999993      0.383715689      -1.59589946    
  -2.40179110     -0.994853973     -0.517000020      0.383715689      -1.59589946    
  -2.54972792     -0.507171988     -0.517000020      0.383715689      -1.59589946    
  -1.84103203     -0.366203994     -0.606999993      0.383715689      -1.59589946    
  -1.84103203     -0.366203994     -0.606999993       1.69580591      -1.57407904    
  -1.33877206     -0.266297996     -0.606999993       1.69580591      -1.57407904    
  -1.26109600     -0.522363007     -0.606999993       1.69580591      -1.57407904    
  -1.73421395     -0.718334973     -0.606999993       1.69580591      -1.57407904    
  -1.84103203     -0.366203994     -0.606999993      0.338086873      -1.55337608    
  -2.54972792     -0.507171988     -0.517000020      0.338086873      -1.55337608    
  -2.59967995       0.00000000     -0.517000020      0.338086873      -1.55337608    
  -1.87709999       0.00000000     -0.606999993      0.338086873      -1.55337608    
  -1.87709999       0.00000000     -0.606999993       1.63090670      -1.56466031    
  -1.36500001       0.00000000     -0.606999993       1.63090670      -1.56466031    
  -1.33877206     -0.266297996     -0.606999993       1.63090670      -1.56466031    
  -1.84103203     -0.366203994     -0.606999993       1.63090670      -1.56466031    
  -1.87709999       0.00000000     -0.606999993      0.290851295      -1.52390862    
  -2.59967995       0.00000000     -0.517000020      0.290851295      -1.52390862    
  -2.54972792      0.507171988     -0.517000020      0.290851295      -1.52390862    
  -1.84103203      0.366203994     -0.606999993      0.290851295      -1.52390862    
  -1.84103203      0.366203994     -0.606999993       1.56000364      -1.55937076    
  -1.33877206      0.266297996     -0.606999993       1.56000364      -1.55937076    
  -1.36500001       0.00000000     -0.606999993       1.56000364      -1.55937076    
  -1.87709999       0.00000000     -0.606999993       1.56000364      -1.55937076    
  -1.84103203      0.366203994     -0.606999993      0.250486314      -1.51669908    
  -2.54972792      0.507171988     -0.517000020      0.250486314      -1.51669908    
  -2.40179110      0.994853973     -0.517000020      0.250486314      -1.51669908    
  -1.73421395      0.718334973     -0.606999993      0.250486314      -1.51669908    
  -1.73421395      0.718334973     -0.606999993       1.49209452      -1.55928719    
  -1.26109600      0.522363007     -0.606999993       1.49209452      -1.55928719    
  -1.33877206      0.266297996     -0.606999993       1.49209452      -1.55928719    
  -1.84103203      0.366203994     -0.606999993       1.49209452      -1.55928719    
  -1.73421395      0.718334973     -0.606999993      0.221578375      -1.53788221    
  -2.40179110      0.994853973     -0.517000020      0.221578375      -1.53788221    
  -2.16155505       1.44430494     -0.517000020      0.221578375      -1.53788221    
  -1.56075203       1.04286098     -0.606999993      0.221578375      -1.53788221    
  -1.56075203       1.04286098     -0.606999993       1.43520927      -1.56447947    
  -1.13495600      0.758352995     -0.606999993       1.43520927      -1.56447947    
  -1.26109600      0.522363007     -0.606999993       1.43520927      -1.56447947    
  -1.73421395      0.718334973     -0.606999993       1.43520927      -1.56447947    
  -1.56075203       1.04286098     -0.606999993      0.204346851      -1.58379996    
  -2.16155505       1.44430494     -0.517000020      0.204346851      -1.58379996    
  -1.83825099       1.83825099     -0.517000020      0.204346851      -1.58379996    
  -1.32730997       1.32730997     -0.606999993      0.204346851      -1.58379996    
  -1.32730997       1.32730997     -0.606999993       1.39522648      -1.57391155    
 -0.965201020      0.965201020     -0.606999993       1.39522648      -1.57391155    
  -1.13495600      0.758352995     -0.606999993       1.39522648      -1.57391155    
  -1.56075203       1.04286098     -0.606999993       1.39522648      -1.57391155    
  -1.32730997       1.32730997     -0.606999993      0.200116411      -1.63977170    
  -1.83825099       1.83825099     -0.517000020      0.200116411      -1.63977170    
  -1.44430494       2.16155505     -0.517000020      0.200116411      -1.63977170    
  -1.04286098       1.56075203     -0.606999993      0.200116411      -1.63977170    
  -1.04286098       1.56075203     -0.606999993       1.37588835      -1.58551741    
 -0.758352995       1.13495600     -0.606999993       1.37588835      -1.58551741    
 -0.965201020      0.965201020     -0.606999993       1.37588835      -1.58551741    
  -1.32730997       1.32730997     -0.606999993       1.37588835      -1.58551741    
  -1.04286098       1.56075203     -0.606999993      0.206417978      -1.68826020    
  -1.44430494       2.16155505     -0.517000020      0.206417978      -1.68826020    
 -0.994853973       2.40179110     -0.517000020      0.206417978      -1.68826020    
 -0.718334973       1.73421395     -0.606999993      0.206417978      -1.68826020    
 -0.718334973       1.73421395     -0.606999993       1.37972105      -1.59665406    
 -0.522363007       1.26109600     -0.606999993       1.37972105      -1.59665406    
 -0.758352995       1.13495600     -0.606999993       1.37972105      -1.59665406    
  -1.04286098       1.56075203     -0.606999993       1.37972105      -1.59665406    
 -0.718334973       1.73421395     -0.606999993      0.222700730      -1.71664405    
 -0.994853973       2.40179110     -0.517000020      0.222700730      -1.71664405    
 -0.507171988       2.54972792     -0.517000020      0.222700730      -1.71664405    
 -0.366203994       1.84103203     -0.606999993      0.222700730      -1.71664405    
 -0.366203994       1.84103203     -0.606999993       1.40369260      -1.60492241    
 -0.266297996       1.33877206     -0.606999993       1.40369260      -1.60492241    
 -0.522363007       1.26109600     -0.606999993       1.40369260      -1.60492241    
 -0.718334973       1.73421395     -0.606999993       1.40369260      -1.60492241    
 -0.366203994       1.84103203     -0.606999993      0.245386496      -1.72260261    
 -0.507171988       2.54972792     -0.517000020      0.245386496      -1.72260261    
   0.00000000       2.59967995     -0.517000020      0.245386496      -1.72260261    
   0.00000000       1.87709999     -0.606999993      0.245386496      -1.72260261    
   0.00000000       1.87709999     -0.606999993       1.44617498      -1.60882604    
   0.00000000       1.36500001     -0.606999993       1.44617498      -1.60882604    
 -0.266297996       1.33877206     -0.606999993       1.44617498      -1.60882604    
 -0.366203994       1.84103203     -0.606999993       1.44617498      -1.60882604    
   0.00000000       1.87709999     -0.606999993      0.269386202      -1.70976865    
   0.00000000       2.59967995     -0.517000020      0.269386202      -1.70976865    
  0.507171988       2.54972792     -0.517000020      0.269386202      -1.70976865    
  0.366203994       1.84103203     -0.606999993      0.269386202      -1.70976865    
  0.366203994       1.84103203     -0.606999993       1.49813569      -1.60792744    
  0.266297996       1.33877206     -0.606999993       1.49813569      -1.60792744    
   0.00000000       1.36500001     -0.606999993       1.49813569      -1.60792744    
   0.00000000       1.87709999     -0.606999993       1.49813569      -1.60792744    
  0.366203994       1.84103203     -0.606999993      0.294365078      -1.68129444    
  0.507171988       2.54972792     -0.517000020      0.294365078      -1.68129444    
  0.994853973       2.40179110     -0.517000020      0.294365078      -1.68129444    
  0.718334973       1.73421395     -0.606999993      0.294365078      -1.68129444    
  0.718334973       1.73421395     -0.606999993       1.55526400      -1.60275483    
  0.522363007       1.26109600     -0.606999993       1.55526400      -1.60275483    
  0.266297996       1.33877206     -0.606999993       1.55526400      -1.60275483    
  0.366203994       1.84103203     -0.606999993       1.55526400      -1.60275483    
  0.718334973       1.73421395     -0.606999993      0.321085095      -1.64276421    
  0.994853973       2.40179110     -0.517000020      0.321085095      -1.64276421    
   1.44430494       2.16155505     -0.517000020      0.321085095      -1.64276421    
   1.04286098       1.56075203     -0.606999993      0.321085095      -1.64276421    
   1.04286098       1.56075203     -0.606999993       1.61536908      -1.59449470    
  0.758352995       1.13495600     -0.606999993       1.61536908      -1.59449470    
  0.522363007       1.26109600     -0.606999993       1.61536908      -1.59449470    
  0.718334973       1.73421395     -0.606999993       1.61536908      -1.59449470    
   1.04286098       1.56075203     -0.606999993      0.348086119      -1.60243380    
   1.44430494       2.16155505     -0.517000020      0.348086119      -1.60243380    
   1.83825099       1.83825099     -0.517000020      0.348086119      -1.60243380    
   1.32730997       1.32730997     -0.606999993      0.348086119      -1.60243380    
   1.32730997       1.32730997     -0.606999993       1.67087042      -1.58484757    
  0.965201020      0.965201020     -0.606999993       1.67087042      -1.58484757    
  0.758352995       1.13495600     -0.606999993       1.67087042      -1.58484757    
   1.04286098       1.56075203     -0.606999993       1.67087042      -1.58484757    
   1.32730997       1.32730997     -0.606999993      0.372883320      -1.56862152    
   1.83825099       1.83825099     -0.517000020      0.372883320      -1.56862152    
   2.16155505       1.44430494     -0.517000020      0.372883320      -1.56862152    
   1.56075203       1.04286098     -0.606999993      0.372883320      -1.56862152    
   1.56075203       1.04286098     -0.606999993       1.71314621      -1.57557654    
   1.13495600      0.758352995     -0.606999993       1.71314621      -1.57557654    
  0.965201020      0.965201020     -0.606999993       1.71314621      -1.57557654    
   1.32730997       1.32730997     -0.606999993       1.71314621      -1.57557654    
   1.56075203       1.04286098     -0.606999993      0.383683562      -1.54689646    
   2.16155505       1.44430494     -0.517000020      0.383683562      -1.54689646    
   2.40179110      0.994853973     -0.517000020      0.383683562      -1.54689646    
   1.73421395      0.718334973     -0.606999993      0.383683562      -1.54689646    
   1.73421395      0.718334973     -0.606999993       1.72340000      -1.56809163    
   1.26109600      0.522363007     -0.606999993       1.72340000      -1.56809163    
   1.13495600      0.758352995     -0.606999993       1.72340000      -1.56809163    
   1.56075203       1.04286098     -0.606999993       1.72340000      -1.56809163    
   1.73421395      0.718334973     -0.606999993      0.376377136      -1.53938925    
   2.40179110      0.994853973     -0.517000020      0.376377136      -1.53938925    
   2.54972792      0.507171988     -0.517000020      0.376377136      -1.53938925    
   1.84103203      0.366203994     -0.606999993      0.376377136      -1.53938925    
   1.84103203      0.366203994     -0.606999993       1.68718541      -1.56324077    
   1.33877206      0.266297996     -0.606999993       1.68718541      -1.56324077    
   1.26109600      0.522363007     -0.606999993       1.68718541      -1.56324077    
   1.73421395      0.718334973     -0.606999993       1.68718541      -1.56324077    
   1.84103203      0.366203994     -0.606999993      0.354757845      -1.54720426    
   2.54972792      0.507171988     -0.517000020      0.354757845      -1.54720426    
   2.59967995       0.00000000     -0.517000020      0.354757845      -1.54720426    
   1.87709999       0.00000000     -0.606999993      0.354757845      -1.54720426    
   1.87709999       0.00000000     -0.606999993       1.62910545      -1.56171119    
   1.36500001       0.00000000     -0.606999993       1.62910545      -1.56171119    
   1.33877206      0.266297996     -0.606999993       1.62910545      -1.56171119    
   1.84103203      0.366203994     -0.606999993       1.62910545      -1.56171119    
   1.87709999       0.00000000     -0.606999993      0.328031063      -1.57016146    
   2.59967995       0.00000000     -0.517000020      0.328031063      -1.57016146    
   2.54972792     -0.507171988     -0.517000020      0.328031063      -1.57016146    
   1.84103203     -0.366203994     -0.606999993      0.328031063      -1.57016146    
   1.84103203     -0.366203994     -0.606999993       1.56662214      -1.56394398    
   1.33877206     -0.266297996     -0.606999993       1.56662214      -1.56394398    
   1.36500001       0.00000000     -0.606999993       1.56662214      -1.56394398    
   1.87709999       0.00000000     -0.606999993       1.56662214      -1.56394398    
   1.84103203     -0.366203994     -0.606999993      0.302921861      -1.60528922    
   2.54972792     -0.507171988     -0.517000020      0.302921861      -1.60528922    
   2.40179110     -0.994853973     -0.517000020      0.302921861      -1.60528922    
   1.73421395     -0.718334973     -0.606999993      0.302921861      -1.60528922    
   1.73421395     -0.718334973     -0.606999993       1.50899971      -1.56985915    
   1.26109600     -0.522363007     -0.606999993       1.50899971      -1.56985915    
   1.33877206     -0.266297996     -0.606999993       1.50899971      -1.56985915    
   1.84103203     -0.366203994     -0.606999993       1.50899971      -1.56985915    
   1.73421395     -0.718334973     -0.606999993      0.283496499      -1.64591789    
   2.40179110     -0.994853973     -0.517000020      0.283496499      -1.64591789    
   2.16155505      -1.44430494     -0.517000020      0.283496499      -1.64591789    
   1.56075203      -1.04286098     -0.606999993      0.283496499      -1.64591789    
   1.56075203      -1.04286098     -0.606999993       1.46304142      -1.57889152    
   1.13495600     -0.758352995     -0.606999993       1.46304142      -1.57889152    
   1.26109600     -0.522363007     -0.606999993       1.46304142      -1.57889152    