 VARIABLES="X" "Y" "Z" "abs(p) (Pa)" "angle(p) (rad)"
ZONE N=   2709,E =    2358, F=FEPOINT, ET=QUADRILATERAL
   0.00000000      -5.48999977     -0.157000005       9.10721397      -1.57503986    
   0.00000000      -4.76741982     -0.246999994       9.10721397      -1.57503986    
  0.930077016      -4.67581606     -0.246999994       9.10721397      -1.57503986    
   1.07104599      -5.38451099     -0.157000005       9.10721397      -1.57503986    
  -1.07104599      -5.38451099     -0.157000005       9.36560822       1.56682265    
 -0.930077016      -4.67581606     -0.246999994       9.36560822       1.56682265    
   0.00000000      -4.76741982     -0.246999994       9.36560822       1.56682265    
   0.00000000      -5.48999977     -0.157000005       9.36560822       1.56682265    
  -2.10093188      -5.07209921     -0.157000005       27.6359406       1.57085490    
  -1.82441294      -4.40452194     -0.246999994       27.6359406       1.57085490    
 -0.930077016      -4.67581606     -0.246999994       27.6359406       1.57085490    
  -1.07104599      -5.38451099     -0.157000005       27.6359406       1.57085490    
  -3.05008101      -4.56476784     -0.157000005       41.5743675       1.56526792    
  -2.64863706      -3.96396494     -0.246999994       41.5743675       1.56526792    
  -1.82441294      -4.40452194     -0.246999994       41.5743675       1.56526792    
  -2.10093188      -5.07209921     -0.157000005       41.5743675       1.56526792    
  -3.88201594      -3.88201594     -0.157000005       55.4123116       1.56542337    
  -3.37107491      -3.37107491     -0.246999994       55.4123116       1.56542337    
  -2.64863706      -3.96396494     -0.246999994       55.4123116       1.56542337    
  -3.05008101      -4.56476784     -0.157000005       55.4123116       1.56542337    
  -4.56476784      -3.05008101     -0.157000005       69.0819092       1.56842780    
  -3.96396494      -2.64863706     -0.246999994       69.0819092       1.56842780    
  -3.37107491      -3.37107491     -0.246999994       69.0819092       1.56842780    
  -3.88201594      -3.88201594     -0.157000005       69.0819092       1.56842780    
  -5.07209921      -2.10093188     -0.157000005       77.9211273       1.56545508    
  -4.40452194      -1.82441294     -0.246999994       77.9211273       1.56545508    
  -3.96396494      -2.64863706     -0.246999994       77.9211273       1.56545508    
  -4.56476784      -3.05008101     -0.157000005       77.9211273       1.56545508    
  -5.38451099      -1.07104599     -0.157000005       85.1204224       1.56561625    
  -4.67581606     -0.930077016     -0.246999994       85.1204224       1.56561625    
  -4.40452194      -1.82441294     -0.246999994       85.1204224       1.56561625    
  -5.07209921      -2.10093188     -0.157000005       85.1204224       1.56561625    
  -5.48999977       0.00000000     -0.157000005       89.9905624       1.56982160    
  -4.76741982       0.00000000     -0.246999994       89.9905624       1.56982160    
  -4.67581606     -0.930077016     -0.246999994       89.9905624       1.56982160    
  -5.38451099      -1.07104599     -0.157000005       89.9905624       1.56982160    
  -5.38451099       1.07104599     -0.157000005       90.3571396       1.56976712    
  -4.67581606      0.930077016     -0.246999994       90.3571396       1.56976712    
  -4.76741982       0.00000000     -0.246999994       90.3571396       1.56976712    
  -5.48999977       0.00000000     -0.157000005       90.3571396       1.56976712    
  -5.07209921       2.10093188     -0.157000005       88.0974045       1.57053232    
  -4.40452194       1.82441294     -0.246999994       88.0974045       1.57053232    
  -4.67581606      0.930077016     -0.246999994       88.0974045       1.57053232    
  -5.38451099       1.07104599     -0.157000005       88.0974045       1.57053232    
  -4.56476784       3.05008101     -0.157000005       80.8602905       1.57001746    
  -3.96396494       2.64863706     -0.246999994       80.8602905       1.57001746    
  -4.40452194       1.82441294     -0.246999994       80.8602905       1.57001746    
  -5.07209921       2.10093188     -0.157000005       80.8602905       1.57001746    
  -3.88201594       3.88201594     -0.157000005       68.5758667       1.56557941    
  -3.37107491       3.37107491     -0.246999994       68.5758667       1.56557941    
  -3.96396494       2.64863706     -0.246999994       68.5758667       1.56557941    
  -4.56476784       3.05008101     -0.157000005       68.5758667       1.56557941    
  -3.05008101       4.56476784     -0.157000005       57.0817451       1.57026076    
  -2.64863706       3.96396494     -0.246999994       57.0817451       1.57026076    
  -3.37107491       3.37107491     -0.246999994       57.0817451       1.57026076    
  -3.88201594       3.88201594     -0.157000005       57.0817451       1.57026076    
  -2.10093188       5.07209921     -0.157000005       41.5138474       1.56539178    
  -1.82441294       4.40452194     -0.246999994       41.5138474       1.56539178    
  -2.64863706       3.96396494     -0.246999994       41.5138474       1.56539178    
  -3.05008101       4.56476784     -0.157000005       41.5138474       1.56539178    
  -1.07104599       5.38451099     -0.157000005       27.1153297       1.56999958    
 -0.930077016       4.67581606     -0.246999994       27.1153297       1.56999958    
  -1.82441294       4.40452194     -0.246999994       27.1153297       1.56999958    
  -2.10093188       5.07209921     -0.157000005       27.1153297       1.56999958    
   0.00000000       5.48999977     -0.157000005       9.13299179       1.56870520    
   0.00000000       4.76741982     -0.246999994       9.13299179       1.56870520    
 -0.930077016       4.67581606     -0.246999994       9.13299179       1.56870520    
  -1.07104599       5.38451099     -0.157000005       9.13299179       1.56870520    
   1.07104599       5.38451099     -0.157000005       9.64523029      -1.56519711    
  0.930077016       4.67581606     -0.246999994       9.64523029      -1.56519711    
   0.00000000       4.76741982     -0.246999994       9.64523029      -1.56519711    
   0.00000000       5.48999977     -0.157000005       9.64523029      -1.56519711    
   2.10093188       5.07209921     -0.157000005       26.7507896      -1.57616484    
   1.82441294       4.40452194     -0.246999994       26.7507896      -1.57616484    
  0.930077016       4.67581606     -0.246999994       26.7507896      -1.57616484    
   1.07104599       5.38451099     -0.157000005       26.7507896      -1.57616484    
   3.05008101       4.56476784     -0.157000005       41.5899162      -1.57618380    
   2.64863706       3.96396494     -0.246999994       41.5899162      -1.57618380    
   1.82441294       4.40452194     -0.246999994       41.5899162      -1.57618380    
   2.10093188       5.07209921     -0.157000005       41.5899162      -1.57618380    
   3.88201594       3.88201594     -0.157000005       57.4369698      -1.57084835    
   3.37107491       3.37107491     -0.246999994       57.4369698      -1.57084835    
   2.64863706       3.96396494     -0.246999994       57.4369698      -1.57084835    
   3.05008101       4.56476784     -0.157000005       57.4369698      -1.57084835    
   4.56476784       3.05008101     -0.157000005       69.4349136      -1.57573330    
   3.96396494       2.64863706     -0.246999994       69.4349136      -1.57573330    
   3.37107491       3.37107491     -0.246999994       69.4349136      -1.57573330    
   3.88201594       3.88201594     -0.157000005       69.4349136      -1.57573330    
   5.07209921       2.10093188     -0.157000005       80.8725433      -1.57152891    
   4.40452194       1.82441294     -0.246999994       80.8725433      -1.57152891    
   3.96396494       2.64863706     -0.246999994       80.8725433      -1.57152891    
   4.56476784       3.05008101     -0.157000005       80.8725433      -1.57152891    
   5.38451099       1.07104599     -0.157000005       85.8846741      -1.57588685    
   4.67581606      0.930077016     -0.246999994       85.8846741      -1.57588685    
   4.40452194       1.82441294     -0.246999994       85.8846741      -1.57588685    
   5.07209921       2.10093188     -0.157000005       85.8846741      -1.57588685    
   5.48999977       0.00000000     -0.157000005       87.8815994      -1.57654989    
   4.76741982       0.00000000     -0.246999994       87.8815994      -1.57654989    
   4.67581606      0.930077016     -0.246999994       87.8815994      -1.57654989    
   5.38451099       1.07104599     -0.157000005       87.8815994      -1.57654989    
   5.38451099      -1.07104599     -0.157000005       87.6005096      -1.57623613    
   4.67581606     -0.930077016     -0.246999994       87.6005096      -1.57623613    
   4.76741982       0.00000000     -0.246999994       87.6005096      -1.57623613    
   5.48999977       0.00000000     -0.157000005       87.6005096      -1.57623613    
   5.07209921      -2.10093188     -0.157000005       84.9782867      -1.57626557    
   4.40452194      -1.82441294     -0.246999994       84.9782867      -1.57626557    
   4.67581606     -0.930077016     -0.246999994       84.9782867      -1.57626557    
   5.38451099      -1.07104599     -0.157000005       84.9782867      -1.57626557    
   4.56476784      -3.05008101     -0.157000005       77.7426758      -1.57630301    
   3.96396494      -2.64863706     -0.246999994       77.7426758      -1.57630301    
   4.40452194      -1.82441294     -0.246999994       77.7426758      -1.57630301    
   5.07209921      -2.10093188     -0.157000005       77.7426758      -1.57630301    
   3.88201594      -3.88201594     -0.157000005       67.5768204      -1.57632828    
   3.37107491      -3.37107491     -0.246999994       67.5768204      -1.57632828    
   3.96396494      -2.64863706     -0.246999994       67.5768204      -1.57632828    
   4.56476784      -3.05008101     -0.157000005       67.5768204      -1.57632828    
   3.05008101      -4.56476784     -0.157000005       56.5391159      -1.57217574    
   2.64863706      -3.96396494     -0.246999994       56.5391159      -1.57217574    
   3.37107491      -3.37107491     -0.246999994       56.5391159      -1.57217574    
   3.88201594      -3.88201594     -0.157000005       56.5391159      -1.57217574    
   2.10093188      -5.07209921     -0.157000005       41.4528999      -1.57606745    
   1.82441294      -4.40452194     -0.246999994       41.4528999      -1.57606745    
   2.64863706      -3.96396494     -0.246999994       41.4528999      -1.57606745    
   3.05008101      -4.56476784     -0.157000005       41.4528999      -1.57606745    
   1.07104599      -5.38451099     -0.157000005       26.6415501      -1.57600689    
  0.930077016      -4.67581606     -0.246999994       26.6415501      -1.57600689    
   1.82441294      -4.40452194     -0.246999994       26.6415501      -1.57600689    
   2.10093188      -5.07209921     -0.157000005       26.6415501      -1.57600689    
   0.00000000      -1.87709999     -0.606999993       159.225052      -1.57138991    
   0.00000000      -1.36500001     -0.606999993       159.225052      -1.57138991    
  0.266297996      -1.33877206     -0.606999993       159.225052      -1.57138991    
  0.366203994      -1.84103203     -0.606999993       159.225052      -1.57138991    
   0.00000000      -1.87709999     -0.606999993       54.4718475       1.57029593    
   0.00000000      -2.59967995     -0.517000020       54.4718475       1.57029593    
 -0.507171988      -2.54972792     -0.517000020       54.4718475       1.57029593    
 -0.366203994      -1.84103203     -0.606999993       54.4718475       1.57029593    
 -0.366203994      -1.84103203     -0.606999993       160.980789       1.57031596    
 -0.266297996      -1.33877206     -0.606999993       160.980789       1.57031596    
   0.00000000      -1.36500001     -0.606999993       160.980789       1.57031596    
   0.00000000      -1.87709999     -0.606999993       160.980789       1.57031596    
 -0.366203994      -1.84103203     -0.606999993       153.375275       1.57043946    
 -0.507171988      -2.54972792     -0.517000020       153.375275       1.57043946    
 -0.994853973      -2.40179110     -0.517000020       153.375275       1.57043946    
 -0.718334973      -1.73421395     -0.606999993       153.375275       1.57043946    
 -0.718334973      -1.73421395     -0.606999993       469.497375       1.57034564    
 -0.522363007      -1.26109600     -0.606999993       469.497375       1.57034564    
 -0.266297996      -1.33877206     -0.606999993       469.497375       1.57034564    
 -0.366203994      -1.84103203     -0.606999993       469.497375       1.57034564    
 -0.718334973      -1.73421395     -0.606999993       226.424866       1.57069218    
 -0.994853973      -2.40179110     -0.517000020       226.424866       1.57069218    
  -1.44430494      -2.16155505     -0.517000020       226.424866       1.57069218    
  -1.04286098      -1.56075203     -0.606999993       226.424866       1.57069218    
  -1.04286098      -1.56075203     -0.606999993       747.716797       1.57044530    
 -0.758352995      -1.13495600     -0.606999993       747.716797       1.57044530    
 -0.522363007      -1.26109600     -0.606999993       747.716797       1.57044530    
 -0.718334973      -1.73421395     -0.606999993       747.716797       1.57044530    
  -1.04286098      -1.56075203     -0.606999993       282.346527       1.57093239    
  -1.44430494      -2.16155505     -0.517000020       282.346527       1.57093239    
  -1.83825099      -1.83825099     -0.517000020       282.346527       1.57093239    
  -1.32730997      -1.32730997     -0.606999993       282.346527       1.57093239    
  -1.32730997      -1.32730997     -0.606999993       989.809326       1.57054508    
 -0.965201020     -0.965201020     -0.606999993       989.809326       1.57054508    
 -0.758352995      -1.13495600     -0.606999993       989.809326       1.57054508    
  -1.04286098      -1.56075203     -0.606999993       989.809326       1.57054508    
  -1.32730997      -1.32730997     -0.606999993       333.587769       1.57104456    
  -1.83825099      -1.83825099     -0.517000020       333.587769       1.57104456    
  -2.16155505      -1.44430494     -0.517000020       333.587769       1.57104456    
  -1.56075203      -1.04286098     -0.606999993       333.587769       1.57104456    
  -1.56075203      -1.04286098     -0.606999993       1195.94067       1.57060742    
  -1.13495600     -0.758352995     -0.606999993       1195.94067       1.57060742    
 -0.965201020     -0.965201020     -0.606999993       1195.94067       1.57060742    
  -1.32730997      -1.32730997     -0.606999993       1195.94067       1.57060742    
  -1.56075203      -1.04286098     -0.606999993       386.158844       1.57102597    
  -2.16155505      -1.44430494     -0.517000020       386.158844       1.57102597    
  -2.40179110     -0.994853973     -0.517000020       386.158844       1.57102597    
  -1.73421395     -0.718334973     -0.606999993       386.158844       1.57102597    
  -1.73421395     -0.718334973     -0.606999993       1365.49158       1.57061958    
  -1.26109600     -0.522363007     -0.606999993       1365.49158       1.57061958    
  -1.13495600     -0.758352995     -0.606999993       1365.49158       1.57061958    
  -1.56075203      -1.04286098     -0.606999993       1365.49158       1.57061958    
  -1.73421395     -0.718334973     -0.606999993       431.984375       1.57096088    
  -2.40179110     -0.994853973     -0.517000020       431.984375       1.57096088    
  -2.54972792     -0.507171988     -0.517000020       431.984375       1.57096088    
  -1.84103203     -0.366203994     -0.606999993       431.984375       1.57096088    
  -1.84103203     -0.366203994     -0.606999993       1489.85693       1.57059848    
  -1.33877206     -0.266297996     -0.606999993       1489.85693       1.57059848    
  -1.26109600     -0.522363007     -0.606999993       1489.85693       1.57059848    
  -1.73421395     -0.718334973     -0.606999993       1489.85693       1.57059848    
  -1.84103203     -0.366203994     -0.606999993       459.704193       1.57090437    
  -2.54972792     -0.507171988     -0.517000020       459.704193       1.57090437    
  -2.59967995       0.00000000     -0.517000020       459.704193       1.57090437    
  -1.87709999       0.00000000     -0.606999993       459.704193       1.57090437    
  -1.87709999       0.00000000     -0.606999993       1557.30151       1.57056665    
  -1.36500001       0.00000000     -0.606999993       1557.30151       1.57056665    
  -1.33877206     -0.266297996     -0.606999993       1557.30151       1.57056665    
  -1.84103203     -0.366203994     -0.606999993       1557.30151       1.57056665    
  -1.87709999       0.00000000     -0.606999993       461.248108       1.57087207    
  -2.59967995       0.00000000     -0.517000020       461.248108       1.57087207    
  -2.54972792      0.507171988     -0.517000020       461.248108       1.57087207    
  -1.84103203      0.366203994     -0.606999993       461.248108       1.57087207    
  -1.84103203      0.366203994     -0.606999993       1558.80066       1.57054484    
  -1.33877206      0.266297996     -0.606999993       1558.80066       1.57054484    
  -1.36500001       0.00000000     -0.606999993       1558.80066       1.57054484    
  -1.87709999       0.00000000     -0.606999993       1558.80066       1.57054484    
  -1.84103203      0.366203994     -0.606999993       435.561157       1.57086754    
  -2.54972792      0.507171988     -0.517000020       435.561157       1.57086754    
  -2.40179110      0.994853973     -0.517000020       435.561157       1.57086754    
  -1.73421395      0.718334973     -0.606999993       435.561157       1.57086754    
  -1.73421395      0.718334973     -0.606999993       1493.34644       1.57053971    
  -1.26109600      0.522363007     -0.606999993       1493.34644       1.57053971    
  -1.33877206      0.266297996     -0.606999993       1493.34644       1.57053971    
  -1.84103203      0.366203994     -0.606999993       1493.34644       1.57053971    
  -1.73421395      0.718334973     -0.606999993       389.066711       1.57089388    
  -2.40179110      0.994853973     -0.517000020       389.066711       1.57089388    
  -2.16155505       1.44430494     -0.517000020       389.066711       1.57089388    
  -1.56075203       1.04286098     -0.606999993       389.066711       1.57089388    
  -1.56075203       1.04286098     -0.606999993       1368.78247       1.57054305    
  -1.13495600      0.758352995     -0.606999993       1368.78247       1.57054305    
  -1.26109600      0.522363007     -0.606999993       1368.78247       1.57054305    
  -1.73421395      0.718334973     -0.606999993       1368.78247       1.57054305    
  -1.56075203       1.04286098     -0.606999993       333.728027       1.57092810    
  -2.16155505       1.44430494     -0.517000020       333.728027       1.57092810    
  -1.83825099       1.83825099     -0.517000020       333.728027       1.57092810    
  -1.32730997       1.32730997     -0.606999993       333.728027       1.57092810    
  -1.32730997       1.32730997     -0.606999993       1197.03943       1.57054067    
 -0.965201020      0.965201020     -0.606999993       1197.03943       1.57054067    
  -1.13495600      0.758352995     -0.606999993       1197.03943       1.57054067    
  -1.56075203       1.04286098     -0.606999993       1197.03943       1.57054067    
  -1.32730997       1.32730997     -0.606999993       280.018555       1.57089782    
  -1.83825099       1.83825099     -0.517000020       280.018555       1.57089782    
  -1.44430494       2.16155505     -0.517000020       280.018555       1.57089782    
  -1.04286098       1.56075203     -0.606999993       280.018555       1.57089782    
  -1.04286098       1.56075203     -0.606999993       988.129150       1.57051432    
 -0.758352995       1.13495600     -0.606999993       988.129150       1.57051432    
 -0.965201020      0.965201020     -0.606999993       988.129150       1.57051432    
  -1.32730997       1.32730997     -0.606999993       988.129150       1.57051432    
  -1.04286098       1.56075203     -0.606999993       223.549026       1.57077014    
  -1.44430494       2.16155505     -0.517000020       223.549026       1.57077014    
 -0.994853973       2.40179110     -0.517000020       223.549026       1.57077014    
 -0.718334973       1.73421395     -0.606999993       223.549026       1.57077014    
 -0.718334973       1.73421395     -0.606999993       744.340454       1.57046354    
 -0.522363007       1.26109600     -0.606999993       744.340454       1.57046354    
 -0.758352995       1.13495600     -0.606999993       744.340454       1.57046354    
  -1.04286098       1.56075203     -0.606999993       744.340454       1.57046354    
 -0.718334973       1.73421395     -0.606999993       151.718628       1.57061207    
 -0.994853973       2.40179110     -0.517000020       151.718628       1.57061207    
 -0.507171988       2.54972792     -0.517000020       151.718628       1.57061207    
 -0.366203994       1.84103203     -0.606999993       151.718628       1.57061207    
 -0.366203994       1.84103203     -0.606999993       466.215851       1.57040560    
 -0.266297996       1.33877206     -0.606999993       466.215851       1.57040560    
 -0.522363007       1.26109600     -0.606999993       466.215851       1.57040560    
 -0.718334973       1.73421395     -0.606999993       466.215851       1.57040560    
 -0.366203994       1.84103203     -0.606999993       54.9218788       1.57055092    
 -0.507171988       2.54972792     -0.517000020       54.9218788       1.57055092    
   0.00000000       2.59967995     -0.517000020       54.9218788       1.57055092    
   0.00000000       1.87709999     -0.606999993       54.9218788       1.57055092    
   0.00000000       1.87709999     -0.606999993       159.047943       1.57035613    
   0.00000000       1.36500001     -0.606999993       159.047943       1.57035613    
 -0.266297996       1.33877206     -0.606999993       159.047943       1.57035613    
 -0.366203994       1.84103203     -0.606999993       159.047943       1.57035613    
   0.00000000       1.87709999     -0.606999993       52.9877434      -1.57116318    
   0.00000000       2.59967995     -0.517000020       52.9877434      -1.57116318    
  0.507171988       2.54972792     -0.517000020       52.9877434      -1.57116318    
  0.366203994       1.84103203     -0.606999993       52.9877434      -1.57116318    
  0.366203994       1.84103203     -0.606999993       159.433060      -1.57119620    
  0.266297996       1.33877206     -0.606999993       159.433060      -1.57119620    
   0.00000000       1.36500001     -0.606999993       159.433060      -1.57119620    
   0.00000000       1.87709999     -0.606999993       159.433060      -1.57119620    
  0.366203994       1.84103203     -0.606999993       150.096008      -1.57100976    
  0.507171988       2.54972792     -0.517000020       150.096008      -1.57100976    
  0.994853973       2.40179110     -0.517000020       150.096008      -1.57100976    
  0.718334973       1.73421395     -0.606999993       150.096008      -1.57100976    
  0.718334973       1.73421395     -0.606999993       466.967896      -1.57117033    
  0.522363007       1.26109600     -0.606999993       466.967896      -1.57117033    
  0.266297996       1.33877206     -0.606999993       466.967896      -1.57117033    
  0.366203994       1.84103203     -0.606999993       466.967896      -1.57117033    
  0.718334973       1.73421395     -0.606999993       222.422119      -1.57082844    
  0.994853973       2.40179110     -0.517000020       222.422119      -1.57082844    
   1.44430494       2.16155505     -0.517000020       222.422119      -1.57082844    
   1.04286098       1.56075203     -0.606999993       222.422119      -1.57082844    
   1.04286098       1.56075203     -0.606999993       745.793518      -1.57111502    
  0.758352995       1.13495600     -0.606999993       745.793518      -1.57111502    
  0.522363007       1.26109600     -0.606999993       745.793518      -1.57111502    
  0.718334973       1.73421395     -0.606999993       745.793518      -1.57111502    
   1.04286098       1.56075203     -0.606999993       279.494049      -1.57069170    
   1.44430494       2.16155505     -0.517000020       279.494049      -1.57069170    
   1.83825099       1.83825099     -0.517000020       279.494049      -1.57069170    
   1.32730997       1.32730997     -0.606999993       279.494049      -1.57069170    
   1.32730997       1.32730997     -0.606999993       990.354980      -1.57106602    
  0.965201020      0.965201020     -0.606999993       990.354980      -1.57106602    
  0.758352995       1.13495600     -0.606999993       990.354980      -1.57106602    
   1.04286098       1.56075203     -0.606999993       990.354980      -1.57106602    
   1.32730997       1.32730997     -0.606999993       333.728455      -1.57066059    
   1.83825099       1.83825099     -0.517000020       333.728455      -1.57066059    
   2.16155505       1.44430494     -0.517000020       333.728455      -1.57066059    
   1.56075203       1.04286098     -0.606999993       333.728455      -1.57066059    
   1.56075203       1.04286098     -0.606999993       1199.83423      -1.57104349    
   1.13495600      0.758352995     -0.606999993       1199.83423      -1.57104349    
  0.965201020      0.965201020     -0.606999993       1199.83423      -1.57104349    
   1.32730997       1.32730997     -0.606999993       1199.83423      -1.57104349    
   1.56075203       1.04286098     -0.606999993       389.352356      -1.57069933    
   2.16155505       1.44430494     -0.517000020       389.352356      -1.57069933    
   2.40179110      0.994853973     -0.517000020       389.352356      -1.57069933    
   1.73421395      0.718334973     -0.606999993       389.352356      -1.57069933    
   1.73421395      0.718334973     -0.606999993       1371.35815      -1.57104397    
   1.26109600      0.522363007     -0.606999993       1371.35815      -1.57104397    
   1.13495600      0.758352995     -0.606999993       1371.35815      -1.57104397    
   1.56075203       1.04286098     -0.606999993       1371.35815      -1.57104397    
   1.73421395      0.718334973     -0.606999993       435.904785      -1.57073128    
   2.40179110      0.994853973     -0.517000020       435.904785      -1.57073128    
   2.54972792      0.507171988     -0.517000020       435.904785      -1.57073128    
   1.84103203      0.366203994     -0.606999993       435.904785      -1.57073128    
   1.84103203      0.366203994     -0.606999993       1495.27197      -1.57105207    
   1.33877206      0.266297996     -0.606999993       1495.27197      -1.57105207    
   1.26109600      0.522363007     -0.606999993       1495.27197      -1.57105207    
   1.73421395      0.718334973     -0.606999993       1495.27197      -1.57105207    
   1.84103203      0.366203994     -0.606999993       461.528076      -1.57072973    
   2.54972792      0.507171988     -0.517000020       461.528076      -1.57072973    
   2.59967995       0.00000000     -0.517000020       461.528076      -1.57072973    
   1.87709999       0.00000000     -0.606999993       461.528076      -1.57072973    
   1.87709999       0.00000000     -0.606999993       1559.90869      -1.57105029    
   1.36500001       0.00000000     -0.606999993       1559.90869      -1.57105029    
   1.33877206      0.266297996     -0.606999993       1559.90869      -1.57105029    
   1.84103203      0.366203994     -0.606999993       1559.90869      -1.57105029    
   1.87709999       0.00000000     -0.606999993       459.885010      -1.57070136    
   2.59967995       0.00000000     -0.517000020       459.885010      -1.57070136    
   2.54972792     -0.507171988     -0.517000020       459.885010      -1.57070136    
   1.84103203     -0.366203994     -0.606999993       459.885010      -1.57070136    
   1.84103203     -0.366203994     -0.606999993       1557.49817      -1.57103157    
   1.33877206     -0.266297996     -0.606999993       1557.49817      -1.57103157    
   1.36500001       0.00000000     -0.606999993       1557.49817      -1.57103157    
   1.87709999       0.00000000     -0.606999993       1557.49817      -1.57103157    
   1.84103203     -0.366203994     -0.606999993       432.140930      -1.57064724    
   2.54972792     -0.507171988     -0.517000020       432.140930      -1.57064724    
   2.40179110     -0.994853973     -0.517000020       432.140930      -1.57064724    
   1.73421395     -0.718334973     -0.606999993       432.140930      -1.57064724    
   1.73421395     -0.718334973     -0.606999993       1489.37073      -1.57100296    
   1.26109600     -0.522363007     -0.606999993       1489.37073      -1.57100296    
   1.33877206     -0.266297996     -0.606999993       1489.37073      -1.57100296    
   1.84103203     -0.366203994     -0.606999993       1489.37073      -1.57100296    
   1.73421395     -0.718334973     -0.606999993       386.413910      -1.57058251    
   2.40179110     -0.994853973     -0.517000020       386.413910      -1.57058251    
   2.16155505      -1.44430494     -0.517000020       386.413910      -1.57058251    
   1.56075203      -1.04286098     -0.606999993       386.413910      -1.57058251    
   1.56075203      -1.04286098     -0.606999993       1364.80042      -1.57098496    
   1.13495600     -0.758352995     -0.606999993       1364.80042      -1.57098496    
   1.26109600     -0.522363007     -0.606999993       1364.80042      -1.57098496    