 VARIABLES="X" "Y" "Z" "abs(p) (Pa)" "angle(p) (rad)"
ZONE N=   2709,E =    2358, F=FEPOINT, ET=QUADRILATERAL
   0.00000000      -5.48999977     -0.157000005       4557.80176      -1.28462505    
   0.00000000      -4.76741982     -0.246999994       4557.80176      -1.28462505    
  0.930077016      -4.67581606     -0.246999994       4557.80176      -1.28462505    
   1.07104599      -5.38451099     -0.157000005       4557.80176      -1.28462505    
  -1.07104599      -5.38451099     -0.157000005       4560.90576      -1.28495502    
 -0.930077016      -4.67581606     -0.246999994       4560.90576      -1.28495502    
   0.00000000      -4.76741982     -0.246999994       4560.90576      -1.28495502    
   0.00000000      -5.48999977     -0.157000005       4560.90576      -1.28495502    
  -2.10093188      -5.07209921     -0.157000005       4415.26514      -1.28847897    
  -1.82441294      -4.40452194     -0.246999994       4415.26514      -1.28847897    
 -0.930077016      -4.67581606     -0.246999994       4415.26514      -1.28847897    
  -1.07104599      -5.38451099     -0.157000005       4415.26514      -1.28847897    
  -3.05008101      -4.56476784     -0.157000005       4044.55493      -1.28531480    
  -2.64863706      -3.96396494     -0.246999994       4044.55493      -1.28531480    
  -1.82441294      -4.40452194     -0.246999994       4044.55493      -1.28531480    
  -2.10093188      -5.07209921     -0.157000005       4044.55493      -1.28531480    
  -3.88201594      -3.88201594     -0.157000005       3546.38916      -1.28539896    
  -3.37107491      -3.37107491     -0.246999994       3546.38916      -1.28539896    
  -2.64863706      -3.96396494     -0.246999994       3546.38916      -1.28539896    
  -3.05008101      -4.56476784     -0.157000005       3546.38916      -1.28539896    
  -4.56476784      -3.05008101     -0.157000005       2937.92041      -1.29020452    
  -3.96396494      -2.64863706     -0.246999994       2937.92041      -1.29020452    
  -3.37107491      -3.37107491     -0.246999994       2937.92041      -1.29020452    
  -3.88201594      -3.88201594     -0.157000005       2937.92041      -1.29020452    
  -5.07209921      -2.10093188     -0.157000005       2166.90381      -1.28657150    
  -4.40452194      -1.82441294     -0.246999994       2166.90381      -1.28657150    
  -3.96396494      -2.64863706     -0.246999994       2166.90381      -1.28657150    
  -4.56476784      -3.05008101     -0.157000005       2166.90381      -1.28657150    
  -5.38451099      -1.07104599     -0.157000005       1328.75647      -1.28506970    
  -4.67581606     -0.930077016     -0.246999994       1328.75647      -1.28506970    
  -4.40452194      -1.82441294     -0.246999994       1328.75647      -1.28506970    
  -5.07209921      -2.10093188     -0.157000005       1328.75647      -1.28506970    
  -5.48999977       0.00000000     -0.157000005       446.459473      -1.28578782    
  -4.76741982       0.00000000     -0.246999994       446.459473      -1.28578782    
  -4.67581606     -0.930077016     -0.246999994       446.459473      -1.28578782    
  -5.38451099      -1.07104599     -0.157000005       446.459473      -1.28578782    
  -5.38451099       1.07104599     -0.157000005       460.058289       1.84943938    
  -4.67581606      0.930077016     -0.246999994       460.058289       1.84943938    
  -4.76741982       0.00000000     -0.246999994       460.058289       1.84943938    
  -5.48999977       0.00000000     -0.157000005       460.058289       1.84943938    
  -5.07209921       2.10093188     -0.157000005       1349.97510       1.85140395    
  -4.40452194       1.82441294     -0.246999994       1349.97510       1.85140395    
  -4.67581606      0.930077016     -0.246999994       1349.97510       1.85140395    
  -5.38451099       1.07104599     -0.157000005       1349.97510       1.85140395    
  -4.56476784       3.05008101     -0.157000005       2186.42188       1.85244286    
  -3.96396494       2.64863706     -0.246999994       2186.42188       1.85244286    
  -4.40452194       1.82441294     -0.246999994       2186.42188       1.85244286    
  -5.07209921       2.10093188     -0.157000005       2186.42188       1.85244286    
  -3.88201594       3.88201594     -0.157000005       2920.23560       1.85626984    
  -3.37107491       3.37107491     -0.246999994       2920.23560       1.85626984    
  -3.96396494       2.64863706     -0.246999994       2920.23560       1.85626984    
  -4.56476784       3.05008101     -0.157000005       2920.23560       1.85626984    
  -3.05008101       4.56476784     -0.157000005       3577.15649       1.85335362    
  -2.64863706       3.96396494     -0.246999994       3577.15649       1.85335362    
  -3.37107491       3.37107491     -0.246999994       3577.15649       1.85335362    
  -3.88201594       3.88201594     -0.157000005       3577.15649       1.85335362    
  -2.10093188       5.07209921     -0.157000005       4054.49292       1.85660195    
  -1.82441294       4.40452194     -0.246999994       4054.49292       1.85660195    
  -2.64863706       3.96396494     -0.246999994       4054.49292       1.85660195    
  -3.05008101       4.56476784     -0.157000005       4054.49292       1.85660195    
  -1.07104599       5.38451099     -0.157000005       4423.83496       1.85367537    
 -0.930077016       4.67581606     -0.246999994       4423.83496       1.85367537    
  -1.82441294       4.40452194     -0.246999994       4423.83496       1.85367537    
  -2.10093188       5.07209921     -0.157000005       4423.83496       1.85367537    
   0.00000000       5.48999977     -0.157000005       4573.10547       1.85685372    
   0.00000000       4.76741982     -0.246999994       4573.10547       1.85685372    
 -0.930077016       4.67581606     -0.246999994       4573.10547       1.85685372    
  -1.07104599       5.38451099     -0.157000005       4573.10547       1.85685372    
   1.07104599       5.38451099     -0.157000005       4598.72168       1.85395813    
  0.930077016       4.67581606     -0.246999994       4598.72168       1.85395813    
   0.00000000       4.76741982     -0.246999994       4598.72168       1.85395813    
   0.00000000       5.48999977     -0.157000005       4598.72168       1.85395813    
   2.10093188       5.07209921     -0.157000005       4394.14209       1.85734677    
   1.82441294       4.40452194     -0.246999994       4394.14209       1.85734677    
  0.930077016       4.67581606     -0.246999994       4394.14209       1.85734677    
   1.07104599       5.38451099     -0.157000005       4394.14209       1.85734677    
   3.05008101       4.56476784     -0.157000005       4049.41211       1.85749757    
   2.64863706       3.96396494     -0.246999994       4049.41211       1.85749757    
   1.82441294       4.40452194     -0.246999994       4049.41211       1.85749757    
   2.10093188       5.07209921     -0.157000005       4049.41211       1.85749757    
   3.88201594       3.88201594     -0.157000005       3578.44189       1.85348046    
   3.37107491       3.37107491     -0.246999994       3578.44189       1.85348046    
   2.64863706       3.96396494     -0.246999994       3578.44189       1.85348046    
   3.05008101       4.56476784     -0.157000005       3578.44189       1.85348046    
   4.56476784       3.05008101     -0.157000005       2937.35571       1.85369241    
   3.96396494       2.64863706     -0.246999994       2937.35571       1.85369241    
   3.37107491       3.37107491     -0.246999994       2937.35571       1.85369241    
   3.88201594       3.88201594     -0.157000005       2937.35571       1.85369241    
   5.07209921       2.10093188     -0.157000005       2188.02246       1.85271919    
   4.40452194       1.82441294     -0.246999994       2188.02246       1.85271919    
   3.96396494       2.64863706     -0.246999994       2188.02246       1.85271919    
   4.56476784       3.05008101     -0.157000005       2188.02246       1.85271919    
   5.38451099       1.07104599     -0.157000005       1336.26208       1.85786474    
   4.67581606      0.930077016     -0.246999994       1336.26208       1.85786474    
   4.40452194       1.82441294     -0.246999994       1336.26208       1.85786474    
   5.07209921       2.10093188     -0.157000005       1336.26208       1.85786474    
   5.48999977       0.00000000     -0.157000005       449.781616       1.86454761    
   4.76741982       0.00000000     -0.246999994       449.781616       1.86454761    
   4.67581606      0.930077016     -0.246999994       449.781616       1.86454761    
   5.38451099       1.07104599     -0.157000005       449.781616       1.86454761    
   5.38451099      -1.07104599     -0.157000005       449.870148      -1.29284942    
   4.67581606     -0.930077016     -0.246999994       449.870148      -1.29284942    
   4.76741982       0.00000000     -0.246999994       449.870148      -1.29284942    
   5.48999977       0.00000000     -0.157000005       449.870148      -1.29284942    
   5.07209921      -2.10093188     -0.157000005       1331.70264      -1.28727376    
   4.40452194      -1.82441294     -0.246999994       1331.70264      -1.28727376    
   4.67581606     -0.930077016     -0.246999994       1331.70264      -1.28727376    
   5.38451099      -1.07104599     -0.157000005       1331.70264      -1.28727376    
   4.56476784      -3.05008101     -0.157000005       2162.60034      -1.28612554    
   3.96396494      -2.64863706     -0.246999994       2162.60034      -1.28612554    
   4.40452194      -1.82441294     -0.246999994       2162.60034      -1.28612554    
   5.07209921      -2.10093188     -0.157000005       2162.60034      -1.28612554    
   3.88201594      -3.88201594     -0.157000005       2912.20142      -1.28603125    
   3.37107491      -3.37107491     -0.246999994       2912.20142      -1.28603125    
   3.96396494      -2.64863706     -0.246999994       2912.20142      -1.28603125    
   4.56476784      -3.05008101     -0.157000005       2912.20142      -1.28603125    
   3.05008101      -4.56476784     -0.157000005       3570.49707      -1.28917682    
   2.64863706      -3.96396494     -0.246999994       3570.49707      -1.28917682    
   3.37107491      -3.37107491     -0.246999994       3570.49707      -1.28917682    
   3.88201594      -3.88201594     -0.157000005       3570.49707      -1.28917682    
   2.10093188      -5.07209921     -0.157000005       4044.11694      -1.28541589    
   1.82441294      -4.40452194     -0.246999994       4044.11694      -1.28541589    
   2.64863706      -3.96396494     -0.246999994       4044.11694      -1.28541589    
   3.05008101      -4.56476784     -0.157000005       4044.11694      -1.28541589    
   1.07104599      -5.38451099     -0.157000005       4383.08936      -1.28473830    
  0.930077016      -4.67581606     -0.246999994       4383.08936      -1.28473830    
   1.82441294      -4.40452194     -0.246999994       4383.08936      -1.28473830    
   2.10093188      -5.07209921     -0.157000005       4383.08936      -1.28473830    
   0.00000000      -1.87709999     -0.606999993       3035.51270      -1.47129440    
   0.00000000      -1.36500001     -0.606999993       3035.51270      -1.47129440    
  0.266297996      -1.33877206     -0.606999993       3035.51270      -1.47129440    
  0.366203994      -1.84103203     -0.606999993       3035.51270      -1.47129440    
   0.00000000      -1.87709999     -0.606999993       3775.95581      -1.45673275    
   0.00000000      -2.59967995     -0.517000020       3775.95581      -1.45673275    
 -0.507171988      -2.54972792     -0.517000020       3775.95581      -1.45673275    
 -0.366203994      -1.84103203     -0.606999993       3775.95581      -1.45673275    
 -0.366203994      -1.84103203     -0.606999993       3037.34912      -1.47126317    
 -0.266297996      -1.33877206     -0.606999993       3037.34912      -1.47126317    
   0.00000000      -1.36500001     -0.606999993       3037.34912      -1.47126317    
   0.00000000      -1.87709999     -0.606999993       3037.34912      -1.47126317    
 -0.366203994      -1.84103203     -0.606999993       3622.29614      -1.45624852    
 -0.507171988      -2.54972792     -0.517000020       3622.29614      -1.45624852    
 -0.994853973      -2.40179110     -0.517000020       3622.29614      -1.45624852    
 -0.718334973      -1.73421395     -0.606999993       3622.29614      -1.45624852    
 -0.718334973      -1.73421395     -0.606999993       2918.60718      -1.47083342    
 -0.522363007      -1.26109600     -0.606999993       2918.60718      -1.47083342    
 -0.266297996      -1.33877206     -0.606999993       2918.60718      -1.47083342    
 -0.366203994      -1.84103203     -0.606999993       2918.60718      -1.47083342    
 -0.718334973      -1.73421395     -0.606999993       3332.14404      -1.45557153    
 -0.994853973      -2.40179110     -0.517000020       3332.14404      -1.45557153    
  -1.44430494      -2.16155505     -0.517000020       3332.14404      -1.45557153    
  -1.04286098      -1.56075203     -0.606999993       3332.14404      -1.45557153    
  -1.04286098      -1.56075203     -0.606999993       2688.48364      -1.47023666    
 -0.758352995      -1.13495600     -0.606999993       2688.48364      -1.47023666    
 -0.522363007      -1.26109600     -0.606999993       2688.48364      -1.47023666    
 -0.718334973      -1.73421395     -0.606999993       2688.48364      -1.47023666    
  -1.04286098      -1.56075203     -0.606999993       2923.15674      -1.45509899    
  -1.44430494      -2.16155505     -0.517000020       2923.15674      -1.45509899    
  -1.83825099      -1.83825099     -0.517000020       2923.15674      -1.45509899    
  -1.32730997      -1.32730997     -0.606999993       2923.15674      -1.45509899    
  -1.32730997      -1.32730997     -0.606999993       2358.60400      -1.46978104    
 -0.965201020     -0.965201020     -0.606999993       2358.60400      -1.46978104    
 -0.758352995      -1.13495600     -0.606999993       2358.60400      -1.46978104    
  -1.04286098      -1.56075203     -0.606999993       2358.60400      -1.46978104    
  -1.32730997      -1.32730997     -0.606999993       2405.59399      -1.45517349    
  -1.83825099      -1.83825099     -0.517000020       2405.59399      -1.45517349    
  -2.16155505      -1.44430494     -0.517000020       2405.59399      -1.45517349    
  -1.56075203      -1.04286098     -0.606999993       2405.59399      -1.45517349    
  -1.56075203      -1.04286098     -0.606999993       1939.61975      -1.46971786    
  -1.13495600     -0.758352995     -0.606999993       1939.61975      -1.46971786    
 -0.965201020     -0.965201020     -0.606999993       1939.61975      -1.46971786    
  -1.32730997      -1.32730997     -0.606999993       1939.61975      -1.46971786    
  -1.56075203      -1.04286098     -0.606999993       1790.65137      -1.45593715    
  -2.16155505      -1.44430494     -0.517000020       1790.65137      -1.45593715    
  -2.40179110     -0.994853973     -0.517000020       1790.65137      -1.45593715    
  -1.73421395     -0.718334973     -0.606999993       1790.65137      -1.45593715    
  -1.73421395     -0.718334973     -0.606999993       1443.77844      -1.47008348    
  -1.26109600     -0.522363007     -0.606999993       1443.77844      -1.47008348    
  -1.13495600     -0.758352995     -0.606999993       1443.77844      -1.47008348    
  -1.56075203      -1.04286098     -0.606999993       1443.77844      -1.47008348    
  -1.73421395     -0.718334973     -0.606999993       1100.67639      -1.45702052    
  -2.40179110     -0.994853973     -0.517000020       1100.67639      -1.45702052    
  -2.54972792     -0.507171988     -0.517000020       1100.67639      -1.45702052    
  -1.84103203     -0.366203994     -0.606999993       1100.67639      -1.45702052    
  -1.84103203     -0.366203994     -0.606999993       889.096497      -1.47053826    
  -1.33877206     -0.266297996     -0.606999993       889.096497      -1.47053826    
  -1.26109600     -0.522363007     -0.606999993       889.096497      -1.47053826    
  -1.73421395     -0.718334973     -0.606999993       889.096497      -1.47053826    
  -1.84103203     -0.366203994     -0.606999993       368.266541      -1.45776188    
  -2.54972792     -0.507171988     -0.517000020       368.266541      -1.45776188    
  -2.59967995       0.00000000     -0.517000020       368.266541      -1.45776188    
  -1.87709999       0.00000000     -0.606999993       368.266541      -1.45776188    
  -1.87709999       0.00000000     -0.606999993       298.923767      -1.46971643    
  -1.36500001       0.00000000     -0.606999993       298.923767      -1.46971643    
  -1.33877206     -0.266297996     -0.606999993       298.923767      -1.46971643    
  -1.84103203     -0.366203994     -0.606999993       298.923767      -1.46971643    
  -1.87709999       0.00000000     -0.606999993       376.273560       1.68292475    
  -2.59967995       0.00000000     -0.517000020       376.273560       1.68292475    
  -2.54972792      0.507171988     -0.517000020       376.273560       1.68292475    
  -1.84103203      0.366203994     -0.606999993       376.273560       1.68292475    
  -1.84103203      0.366203994     -0.606999993       302.771271       1.66735590    
  -1.33877206      0.266297996     -0.606999993       302.771271       1.66735590    
  -1.36500001       0.00000000     -0.606999993       302.771271       1.66735590    
  -1.87709999       0.00000000     -0.606999993       302.771271       1.66735590    
  -1.84103203      0.366203994     -0.606999993       1108.38745       1.68376184    
  -2.54972792      0.507171988     -0.517000020       1108.38745       1.68376184    
  -2.40179110      0.994853973     -0.517000020       1108.38745       1.68376184    
  -1.73421395      0.718334973     -0.606999993       1108.38745       1.68376184    
  -1.73421395      0.718334973     -0.606999993       893.051514       1.66913486    
  -1.26109600      0.522363007     -0.606999993       893.051514       1.66913486    
  -1.33877206      0.266297996     -0.606999993       893.051514       1.66913486    
  -1.84103203      0.366203994     -0.606999993       893.051514       1.66913486    
  -1.73421395      0.718334973     -0.606999993       1799.64429       1.68485689    
  -2.40179110      0.994853973     -0.517000020       1799.64429       1.68485689    
  -2.16155505       1.44430494     -0.517000020       1799.64429       1.68485689    
  -1.56075203       1.04286098     -0.606999993       1799.64429       1.68485689    
  -1.56075203       1.04286098     -0.606999993       1448.64514       1.67005694    
  -1.13495600      0.758352995     -0.606999993       1448.64514       1.67005694    
  -1.26109600      0.522363007     -0.606999993       1448.64514       1.67005694    
  -1.73421395      0.718334973     -0.606999993       1448.64514       1.67005694    
  -1.56075203       1.04286098     -0.606999993       2417.12793       1.68583560    
  -2.16155505       1.44430494     -0.517000020       2417.12793       1.68583560    
  -1.83825099       1.83825099     -0.517000020       2417.12793       1.68583560    
  -1.32730997       1.32730997     -0.606999993       2417.12793       1.68583560    
  -1.32730997       1.32730997     -0.606999993       1946.43335       1.67075610    
 -0.965201020      0.965201020     -0.606999993       1946.43335       1.67075610    
  -1.13495600      0.758352995     -0.606999993       1946.43335       1.67075610    
  -1.56075203       1.04286098     -0.606999993       1946.43335       1.67075610    
  -1.32730997       1.32730997     -0.606999993       2936.50269       1.68621123    
  -1.83825099       1.83825099     -0.517000020       2936.50269       1.68621123    
  -1.44430494       2.16155505     -0.517000020       2936.50269       1.68621123    
  -1.04286098       1.56075203     -0.606999993       2936.50269       1.68621123    
  -1.04286098       1.56075203     -0.606999993       2367.83960       1.67102993    
 -0.758352995       1.13495600     -0.606999993       2367.83960       1.67102993    
 -0.965201020      0.965201020     -0.606999993       2367.83960       1.67102993    
  -1.32730997       1.32730997     -0.606999993       2367.83960       1.67102993    
  -1.04286098       1.56075203     -0.606999993       3346.05542       1.68597746    
  -1.44430494       2.16155505     -0.517000020       3346.05542       1.68597746    
 -0.994853973       2.40179110     -0.517000020       3346.05542       1.68597746    
 -0.718334973       1.73421395     -0.606999993       3346.05542       1.68597746    
 -0.718334973       1.73421395     -0.606999993       2700.03516       1.67087603    
 -0.522363007       1.26109600     -0.606999993       2700.03516       1.67087603    
 -0.758352995       1.13495600     -0.606999993       2700.03516       1.67087603    
  -1.04286098       1.56075203     -0.606999993       2700.03516       1.67087603    
 -0.718334973       1.73421395     -0.606999993       3636.29956       1.68543780    
 -0.994853973       2.40179110     -0.517000020       3636.29956       1.68543780    
 -0.507171988       2.54972792     -0.517000020       3636.29956       1.68543780    
 -0.366203994       1.84103203     -0.606999993       3636.29956       1.68543780    
 -0.366203994       1.84103203     -0.606999993       2932.37354       1.67049801    
 -0.266297996       1.33877206     -0.606999993       2932.37354       1.67049801    
 -0.522363007       1.26109600     -0.606999993       2932.37354       1.67049801    
 -0.718334973       1.73421395     -0.606999993       2932.37354       1.67049801    
 -0.366203994       1.84103203     -0.606999993       3790.42114       1.68501532    
 -0.507171988       2.54972792     -0.517000020       3790.42114       1.68501532    
   0.00000000       2.59967995     -0.517000020       3790.42114       1.68501532    
   0.00000000       1.87709999     -0.606999993       3790.42114       1.68501532    
   0.00000000       1.87709999     -0.606999993       3053.37744       1.67020571    
   0.00000000       1.36500001     -0.606999993       3053.37744       1.67020571    
 -0.266297996       1.33877206     -0.606999993       3053.37744       1.67020571    
 -0.366203994       1.84103203     -0.606999993       3053.37744       1.67020571    
   0.00000000       1.87709999     -0.606999993       3790.60254       1.68502927    
   0.00000000       2.59967995     -0.517000020       3790.60254       1.68502927    
  0.507171988       2.54972792     -0.517000020       3790.60254       1.68502927    
  0.366203994       1.84103203     -0.606999993       3790.60254       1.68502927    
  0.366203994       1.84103203     -0.606999993       3053.90601       1.67022491    
  0.266297996       1.33877206     -0.606999993       3053.90601       1.67022491    
   0.00000000       1.36500001     -0.606999993       3053.90601       1.67022491    
   0.00000000       1.87709999     -0.606999993       3053.90601       1.67022491    
  0.366203994       1.84103203     -0.606999993       3637.00317       1.68547511    
  0.507171988       2.54972792     -0.517000020       3637.00317       1.68547511    
  0.994853973       2.40179110     -0.517000020       3637.00317       1.68547511    
  0.718334973       1.73421395     -0.606999993       3637.00317       1.68547511    
  0.718334973       1.73421395     -0.606999993       2934.10938       1.67056084    
  0.522363007       1.26109600     -0.606999993       2934.10938       1.67056084    
  0.266297996       1.33877206     -0.606999993       2934.10938       1.67056084    
  0.366203994       1.84103203     -0.606999993       2934.10938       1.67056084    
  0.718334973       1.73421395     -0.606999993       3347.28809       1.68603361    
  0.994853973       2.40179110     -0.517000020       3347.28809       1.68603361    
   1.44430494       2.16155505     -0.517000020       3347.28809       1.68603361    
   1.04286098       1.56075203     -0.606999993       3347.28809       1.68603361    
   1.04286098       1.56075203     -0.606999993       2703.13623       1.67097747    
  0.758352995       1.13495600     -0.606999993       2703.13623       1.67097747    
  0.522363007       1.26109600     -0.606999993       2703.13623       1.67097747    
  0.718334973       1.73421395     -0.606999993       2703.13623       1.67097747    
   1.04286098       1.56075203     -0.606999993       2938.42090       1.68628943    
   1.44430494       2.16155505     -0.517000020       2938.42090       1.68628943    
   1.83825099       1.83825099     -0.517000020       2938.42090       1.68628943    
   1.32730997       1.32730997     -0.606999993       2938.42090       1.68628943    
   1.32730997       1.32730997     -0.606999993       2372.39966       1.67118609    
  0.965201020      0.965201020     -0.606999993       2372.39966       1.67118609    
  0.758352995       1.13495600     -0.606999993       2372.39966       1.67118609    
   1.04286098       1.56075203     -0.606999993       2372.39966       1.67118609    
   1.32730997       1.32730997     -0.606999993       2419.75171       1.68594360    
   1.83825099       1.83825099     -0.517000020       2419.75171       1.68594360    
   2.16155505       1.44430494     -0.517000020       2419.75171       1.68594360    
   1.56075203       1.04286098     -0.606999993       2419.75171       1.68594360    
   1.56075203       1.04286098     -0.606999993       1952.53235       1.67099440    
   1.13495600      0.758352995     -0.606999993       1952.53235       1.67099440    
  0.965201020      0.965201020     -0.606999993       1952.53235       1.67099440    
   1.32730997       1.32730997     -0.606999993       1952.53235       1.67099440    
   1.56075203       1.04286098     -0.606999993       1802.91370       1.68504095    
   2.16155505       1.44430494     -0.517000020       1802.91370       1.68504095    
   2.40179110      0.994853973     -0.517000020       1802.91370       1.68504095    
   1.73421395      0.718334973     -0.606999993       1802.91370       1.68504095    
   1.73421395      0.718334973     -0.606999993       1456.31689       1.67045486    
   1.26109600      0.522363007     -0.606999993       1456.31689       1.67045486    
   1.13495600      0.758352995     -0.606999993       1456.31689       1.67045486    
   1.56075203       1.04286098     -0.606999993       1456.31689       1.67045486    
   1.73421395      0.718334973     -0.606999993       1112.20032       1.68412983    
   2.40179110      0.994853973     -0.517000020       1112.20032       1.68412983    
   2.54972792      0.507171988     -0.517000020       1112.20032       1.68412983    
   1.84103203      0.366203994     -0.606999993       1112.20032       1.68412983    
   1.84103203      0.366203994     -0.606999993       902.141235       1.66989529    
   1.33877206      0.266297996     -0.606999993       902.141235       1.66989529    
   1.26109600      0.522363007     -0.606999993       902.141235       1.66989529    
   1.73421395      0.718334973     -0.606999993       902.141235       1.66989529    
   1.84103203      0.366203994     -0.606999993       380.622223       1.68410516    
   2.54972792      0.507171988     -0.517000020       380.622223       1.68410516    
   2.59967995       0.00000000     -0.517000020       380.622223       1.68410516    
   1.87709999       0.00000000     -0.606999993       380.622223       1.68410516    
   1.87709999       0.00000000     -0.606999993       313.078613       1.66979706    
   1.36500001       0.00000000     -0.606999993       313.078613       1.66979706    
   1.33877206      0.266297996     -0.606999993       313.078613       1.66979706    
   1.84103203      0.366203994     -0.606999993       313.078613       1.66979706    
   1.87709999       0.00000000     -0.606999993       363.411530      -1.45896649    
   2.59967995       0.00000000     -0.517000020       363.411530      -1.45896649    
   2.54972792     -0.507171988     -0.517000020       363.411530      -1.45896649    
   1.84103203     -0.366203994     -0.606999993       363.411530      -1.45896649    
   1.84103203     -0.366203994     -0.606999993       287.569977      -1.47231460    
   1.33877206     -0.266297996     -0.606999993       287.569977      -1.47231460    
   1.36500001       0.00000000     -0.606999993       287.569977      -1.47231460    
   1.87709999       0.00000000     -0.606999993       287.569977      -1.47231460    
   1.84103203     -0.366203994     -0.606999993       1095.39404      -1.45736635    
   2.54972792     -0.507171988     -0.517000020       1095.39404      -1.45736635    
   2.40179110     -0.994853973     -0.517000020       1095.39404      -1.45736635    
   1.73421395     -0.718334973     -0.606999993       1095.39404      -1.45736635    
   1.73421395     -0.718334973     -0.606999993       877.022949      -1.47139180    
   1.26109600     -0.522363007     -0.606999993       877.022949      -1.47139180    
   1.33877206     -0.266297996     -0.606999993       877.022949      -1.47139180    
   1.84103203     -0.366203994     -0.606999993       877.022949      -1.47139180    
   1.73421395     -0.718334973     -0.606999993       1785.11047      -1.45610344    
   2.40179110     -0.994853973     -0.517000020       1785.11047      -1.45610344    
   2.16155505      -1.44430494     -0.517000020       1785.11047      -1.45610344    
   1.56075203      -1.04286098     -0.606999993       1785.11047      -1.45610344    
   1.56075203      -1.04286098     -0.606999993       1431.39478      -1.47057772    
   1.13495600     -0.758352995     -0.606999993       1431.39478      -1.47057772    
   1.26109600     -0.522363007     -0.606999993       1431.39478      -1.47057772    