 VARIABLES="X" "Y" "Z" "abs(p) (Pa)" "angle(p) (rad)"
ZONE N=   2709,E =    2358, F=FEPOINT, ET=QUADRILATERAL
   0.00000000      -5.48999977     -0.157000005       4493.83252      -1.27390516    
   0.00000000      -4.76741982     -0.246999994       4493.83252      -1.27390516    
  0.930077016      -4.67581606     -0.246999994       4493.83252      -1.27390516    
   1.07104599      -5.38451099     -0.157000005       4493.83252      -1.27390516    
  -1.07104599      -5.38451099     -0.157000005       4622.86328       1.34262693    
 -0.930077016      -4.67581606     -0.246999994       4622.86328       1.34262693    
   0.00000000      -4.76741982     -0.246999994       4622.86328       1.34262693    
   0.00000000      -5.48999977     -0.157000005       4622.86328       1.34262693    
  -2.10093188      -5.07209921     -0.157000005       4938.97021      -2.26710606    
  -1.82441294      -4.40452194     -0.246999994       4938.97021      -2.26710606    
 -0.930077016      -4.67581606     -0.246999994       4938.97021      -2.26710606    
  -1.07104599      -5.38451099     -0.157000005       4938.97021      -2.26710606    
  -3.05008101      -4.56476784     -0.157000005       5410.37109      0.599310458    
  -2.64863706      -3.96396494     -0.246999994       5410.37109      0.599310458    
  -1.82441294      -4.40452194     -0.246999994       5410.37109      0.599310458    
  -2.10093188      -5.07209921     -0.157000005       5410.37109      0.599310458    
  -3.88201594      -3.88201594     -0.157000005       6009.51025      -2.49630117    
  -3.37107491      -3.37107491     -0.246999994       6009.51025      -2.49630117    
  -2.64863706      -3.96396494     -0.246999994       6009.51025      -2.49630117    
  -3.05008101      -4.56476784     -0.157000005       6009.51025      -2.49630117    
  -4.56476784      -3.05008101     -0.157000005       6478.40625       1.08778989    
  -3.96396494      -2.64863706     -0.246999994       6478.40625       1.08778989    
  -3.37107491      -3.37107491     -0.246999994       6478.40625       1.08778989    
  -3.88201594      -3.88201594     -0.157000005       6478.40625       1.08778989    
  -5.07209921      -2.10093188     -0.157000005       6337.61084      -1.07305849    
  -4.40452194      -1.82441294     -0.246999994       6337.61084      -1.07305849    
  -3.96396494      -2.64863706     -0.246999994       6337.61084      -1.07305849    
  -4.56476784      -3.05008101     -0.157000005       6337.61084      -1.07305849    
  -5.38451099      -1.07104599     -0.157000005       5483.86475      -2.50127959    
  -4.67581606     -0.930077016     -0.246999994       5483.86475      -2.50127959    
  -4.40452194      -1.82441294     -0.246999994       5483.86475      -2.50127959    
  -5.07209921      -2.10093188     -0.157000005       5483.86475      -2.50127959    
  -5.48999977       0.00000000     -0.157000005       5417.86963       3.09876919    
  -4.76741982       0.00000000     -0.246999994       5417.86963       3.09876919    
  -4.67581606     -0.930077016     -0.246999994       5417.86963       3.09876919    
  -5.38451099      -1.07104599     -0.157000005       5417.86963       3.09876919    
  -5.38451099       1.07104599     -0.157000005       5446.89307       3.09442163    
  -4.67581606      0.930077016     -0.246999994       5446.89307       3.09442163    
  -4.76741982       0.00000000     -0.246999994       5446.89307       3.09442163    
  -5.48999977       0.00000000     -0.157000005       5446.89307       3.09442163    
  -5.07209921       2.10093188     -0.157000005       5487.30420      -2.50293779    
  -4.40452194       1.82441294     -0.246999994       5487.30420      -2.50293779    
  -4.67581606      0.930077016     -0.246999994       5487.30420      -2.50293779    
  -5.38451099       1.07104599     -0.157000005       5487.30420      -2.50293779    
  -4.56476784       3.05008101     -0.157000005       6343.55566      -1.08730531    
  -3.96396494       2.64863706     -0.246999994       6343.55566      -1.08730531    
  -4.40452194       1.82441294     -0.246999994       6343.55566      -1.08730531    
  -5.07209921       2.10093188     -0.157000005       6343.55566      -1.08730531    
  -3.88201594       3.88201594     -0.157000005       6582.81152       1.07937205    
  -3.37107491       3.37107491     -0.246999994       6582.81152       1.07937205    
  -3.96396494       2.64863706     -0.246999994       6582.81152       1.07937205    
  -4.56476784       3.05008101     -0.157000005       6582.81152       1.07937205    
  -3.05008101       4.56476784     -0.157000005       6161.42334      -2.51841092    
  -2.64863706       3.96396494     -0.246999994       6161.42334      -2.51841092    
  -3.37107491       3.37107491     -0.246999994       6161.42334      -2.51841092    
  -3.88201594       3.88201594     -0.157000005       6161.42334      -2.51841092    
  -2.10093188       5.07209921     -0.157000005       5522.66357      0.579528213    
  -1.82441294       4.40452194     -0.246999994       5522.66357      0.579528213    
  -2.64863706       3.96396494     -0.246999994       5522.66357      0.579528213    
  -3.05008101       4.56476784     -0.157000005       5522.66357      0.579528213    
  -1.07104599       5.38451099     -0.157000005       4979.84424      -2.29016805    
 -0.930077016       4.67581606     -0.246999994       4979.84424      -2.29016805    
  -1.82441294       4.40452194     -0.246999994       4979.84424      -2.29016805    
  -2.10093188       5.07209921     -0.157000005       4979.84424      -2.29016805    
   0.00000000       5.48999977     -0.157000005       4587.53760       1.31985199    
   0.00000000       4.76741982     -0.246999994       4587.53760       1.31985199    
 -0.930077016       4.67581606     -0.246999994       4587.53760       1.31985199    
  -1.07104599       5.38451099     -0.157000005       4587.53760       1.31985199    
   1.07104599       5.38451099     -0.157000005       4427.02051      -1.29466248    
  0.930077016       4.67581606     -0.246999994       4427.02051      -1.29466248    
   0.00000000       4.76741982     -0.246999994       4427.02051      -1.29466248    
   0.00000000       5.48999977     -0.157000005       4427.02051      -1.29466248    
   2.10093188       5.07209921     -0.157000005       4481.73340       2.28405929    
   1.82441294       4.40452194     -0.246999994       4481.73340       2.28405929    
  0.930077016       4.67581606     -0.246999994       4481.73340       2.28405929    
   1.07104599       5.38451099     -0.157000005       4481.73340       2.28405929    
   3.05008101       4.56476784     -0.157000005       4688.05127     -0.622534037    
   2.64863706       3.96396494     -0.246999994       4688.05127     -0.622534037    
   1.82441294       4.40452194     -0.246999994       4688.05127     -0.622534037    
   2.10093188       5.07209921     -0.157000005       4688.05127     -0.622534037    
   3.88201594       3.88201594     -0.157000005       4903.85107       2.45048928    
   3.37107491       3.37107491     -0.246999994       4903.85107       2.45048928    
   2.64863706       3.96396494     -0.246999994       4903.85107       2.45048928    
   3.05008101       4.56476784     -0.157000005       4903.85107       2.45048928    
   4.56476784       3.05008101     -0.157000005       4891.03418      -1.19234002    
   3.96396494       2.64863706     -0.246999994       4891.03418      -1.19234002    
   3.37107491       3.37107491     -0.246999994       4891.03418      -1.19234002    
   3.88201594       3.88201594     -0.157000005       4891.03418      -1.19234002    
   5.07209921       2.10093188     -0.157000005       4735.12305      0.837161303    
   4.40452194       1.82441294     -0.246999994       4735.12305      0.837161303    
   3.96396494       2.64863706     -0.246999994       4735.12305      0.837161303    
   4.56476784       3.05008101     -0.157000005       4735.12305      0.837161303    
   5.38451099       1.07104599     -0.157000005       4883.72949       2.23877692    
   4.67581606      0.930077016     -0.246999994       4883.72949       2.23877692    
   4.40452194       1.82441294     -0.246999994       4883.72949       2.23877692    
   5.07209921       2.10093188     -0.157000005       4883.72949       2.23877692    
   5.48999977       0.00000000     -0.157000005       4787.17969       2.96746469    
   4.76741982       0.00000000     -0.246999994       4787.17969       2.96746469    
   4.67581606      0.930077016     -0.246999994       4787.17969       2.96746469    
   5.38451099       1.07104599     -0.157000005       4787.17969       2.96746469    
   5.38451099      -1.07104599     -0.157000005       4785.01270       2.97099161    
   4.67581606     -0.930077016     -0.246999994       4785.01270       2.97099161    
   4.76741982       0.00000000     -0.246999994       4785.01270       2.97099161    
   5.48999977       0.00000000     -0.157000005       4785.01270       2.97099161    
   5.07209921      -2.10093188     -0.157000005       4877.79150       2.23732162    
   4.40452194      -1.82441294     -0.246999994       4877.79150       2.23732162    
   4.67581606     -0.930077016     -0.246999994       4877.79150       2.23732162    
   5.38451099      -1.07104599     -0.157000005       4877.79150       2.23732162    
   4.56476784      -3.05008101     -0.157000005       4749.34473      0.840193748    
   3.96396494      -2.64863706     -0.246999994       4749.34473      0.840193748    
   4.40452194      -1.82441294     -0.246999994       4749.34473      0.840193748    
   5.07209921      -2.10093188     -0.157000005       4749.34473      0.840193748    
   3.88201594      -3.88201594     -0.157000005       4896.88916      -1.19685459    
   3.37107491      -3.37107491     -0.246999994       4896.88916      -1.19685459    
   3.96396494      -2.64863706     -0.246999994       4896.88916      -1.19685459    
   4.56476784      -3.05008101     -0.157000005       4896.88916      -1.19685459    
   3.05008101      -4.56476784     -0.157000005       4857.64551       2.45079851    
   2.64863706      -3.96396494     -0.246999994       4857.64551       2.45079851    
   3.37107491      -3.37107491     -0.246999994       4857.64551       2.45079851    
   3.88201594      -3.88201594     -0.157000005       4857.64551       2.45079851    
   2.10093188      -5.07209921     -0.157000005       4658.53760     -0.608317971    
   1.82441294      -4.40452194     -0.246999994       4658.53760     -0.608317971    
   2.64863706      -3.96396494     -0.246999994       4658.53760     -0.608317971    
   3.05008101      -4.56476784     -0.157000005       4658.53760     -0.608317971    
   1.07104599      -5.38451099     -0.157000005       4511.66162       2.30560470    
  0.930077016      -4.67581606     -0.246999994       4511.66162       2.30560470    
   1.82441294      -4.40452194     -0.246999994       4511.66162       2.30560470    
   2.10093188      -5.07209921     -0.157000005       4511.66162       2.30560470    
   0.00000000      -1.87709999     -0.606999993       1083.39062      -2.57824731    
   0.00000000      -1.36500001     -0.606999993       1083.39062      -2.57824731    
  0.266297996      -1.33877206     -0.606999993       1083.39062      -2.57824731    
  0.366203994      -1.84103203     -0.606999993       1083.39062      -2.57824731    
   0.00000000      -1.87709999     -0.606999993       1219.79980       2.32012272    
   0.00000000      -2.59967995     -0.517000020       1219.79980       2.32012272    
 -0.507171988      -2.54972792     -0.517000020       1219.79980       2.32012272    
 -0.366203994      -1.84103203     -0.606999993       1219.79980       2.32012272    
 -0.366203994      -1.84103203     -0.606999993       1067.08618       2.56131244    
 -0.266297996      -1.33877206     -0.606999993       1067.08618       2.56131244    
   0.00000000      -1.36500001     -0.606999993       1067.08618       2.56131244    
   0.00000000      -1.87709999     -0.606999993       1067.08618       2.56131244    
 -0.366203994      -1.84103203     -0.606999993       1286.85205      0.661989629    
 -0.507171988      -2.54972792     -0.517000020       1286.85205      0.661989629    
 -0.994853973      -2.40179110     -0.517000020       1286.85205      0.661989629    
 -0.718334973      -1.73421395     -0.606999993       1286.85205      0.661989629    
 -0.718334973      -1.73421395     -0.606999993       1046.96875       1.38630927    
 -0.522363007      -1.26109600     -0.606999993       1046.96875       1.38630927    
 -0.266297996      -1.33877206     -0.606999993       1046.96875       1.38630927    
 -0.366203994      -1.84103203     -0.606999993       1046.96875       1.38630927    
 -0.718334973      -1.73421395     -0.606999993       1340.27271     -0.780953526    
 -0.994853973      -2.40179110     -0.517000020       1340.27271     -0.780953526    
  -1.44430494      -2.16155505     -0.517000020       1340.27271     -0.780953526    
  -1.04286098      -1.56075203     -0.606999993       1340.27271     -0.780953526    
  -1.04286098      -1.56075203     -0.606999993       1067.16772      0.296402156    
 -0.758352995      -1.13495600     -0.606999993       1067.16772      0.296402156    
 -0.522363007      -1.26109600     -0.606999993       1067.16772      0.296402156    
 -0.718334973      -1.73421395     -0.606999993       1067.16772      0.296402156    
  -1.04286098      -1.56075203     -0.606999993       1307.40344      -2.16450000    
  -1.44430494      -2.16155505     -0.517000020       1307.40344      -2.16450000    
  -1.83825099      -1.83825099     -0.517000020       1307.40344      -2.16450000    
  -1.32730997      -1.32730997     -0.606999993       1307.40344      -2.16450000    
  -1.32730997      -1.32730997     -0.606999993       1048.04443     -0.672160685    
 -0.965201020     -0.965201020     -0.606999993       1048.04443     -0.672160685    
 -0.758352995      -1.13495600     -0.606999993       1048.04443     -0.672160685    
  -1.04286098      -1.56075203     -0.606999993       1048.04443     -0.672160685    
  -1.32730997      -1.32730997     -0.606999993       1451.39014       2.97091222    
  -1.83825099      -1.83825099     -0.517000020       1451.39014       2.97091222    
  -2.16155505      -1.44430494     -0.517000020       1451.39014       2.97091222    
  -1.56075203      -1.04286098     -0.606999993       1451.39014       2.97091222    
  -1.56075203      -1.04286098     -0.606999993       1039.60461      -1.54178321    
  -1.13495600     -0.758352995     -0.606999993       1039.60461      -1.54178321    
 -0.965201020     -0.965201020     -0.606999993       1039.60461      -1.54178321    
  -1.32730997      -1.32730997     -0.606999993       1039.60461      -1.54178321    
  -1.56075203      -1.04286098     -0.606999993       1422.15259       2.16820955    
  -2.16155505      -1.44430494     -0.517000020       1422.15259       2.16820955    
  -2.40179110     -0.994853973     -0.517000020       1422.15259       2.16820955    
  -1.73421395     -0.718334973     -0.606999993       1422.15259       2.16820955    
  -1.73421395     -0.718334973     -0.606999993       1085.20251      -2.20380640    
  -1.26109600     -0.522363007     -0.606999993       1085.20251      -2.20380640    
  -1.13495600     -0.758352995     -0.606999993       1085.20251      -2.20380640    
  -1.56075203      -1.04286098     -0.606999993       1085.20251      -2.20380640    
  -1.73421395     -0.718334973     -0.606999993       1264.08240       1.48936093    
  -2.40179110     -0.994853973     -0.517000020       1264.08240       1.48936093    
  -2.54972792     -0.507171988     -0.517000020       1264.08240       1.48936093    
  -1.84103203     -0.366203994     -0.606999993       1264.08240       1.48936093    
  -1.84103203     -0.366203994     -0.606999993       1108.23816      -2.60776496    
  -1.33877206     -0.266297996     -0.606999993       1108.23816      -2.60776496    
  -1.26109600     -0.522363007     -0.606999993       1108.23816      -2.60776496    
  -1.73421395     -0.718334973     -0.606999993       1108.23816      -2.60776496    
  -1.84103203     -0.366203994     -0.606999993       1233.13452       1.03843617    
  -2.54972792     -0.507171988     -0.517000020       1233.13452       1.03843617    
  -2.59967995       0.00000000     -0.517000020       1233.13452       1.03843617    
  -1.87709999       0.00000000     -0.606999993       1233.13452       1.03843617    
  -1.87709999       0.00000000     -0.606999993       1098.20154      -2.79610062    
  -1.36500001       0.00000000     -0.606999993       1098.20154      -2.79610062    
  -1.33877206     -0.266297996     -0.606999993       1098.20154      -2.79610062    
  -1.84103203     -0.366203994     -0.606999993       1098.20154      -2.79610062    
  -1.87709999       0.00000000     -0.606999993       1237.79370       1.03794599    
  -2.59967995       0.00000000     -0.517000020       1237.79370       1.03794599    
  -2.54972792      0.507171988     -0.517000020       1237.79370       1.03794599    
  -1.84103203      0.366203994     -0.606999993       1237.79370       1.03794599    
  -1.84103203      0.366203994     -0.606999993       1097.83691      -2.79675603    
  -1.33877206      0.266297996     -0.606999993       1097.83691      -2.79675603    
  -1.36500001       0.00000000     -0.606999993       1097.83691      -2.79675603    
  -1.87709999       0.00000000     -0.606999993       1097.83691      -2.79675603    
  -1.84103203      0.366203994     -0.606999993       1272.72620       1.48459065    
  -2.54972792      0.507171988     -0.517000020       1272.72620       1.48459065    
  -2.40179110      0.994853973     -0.517000020       1272.72620       1.48459065    
  -1.73421395      0.718334973     -0.606999993       1272.72620       1.48459065    
  -1.73421395      0.718334973     -0.606999993       1108.68799      -2.60846281    
  -1.26109600      0.522363007     -0.606999993       1108.68799      -2.60846281    
  -1.33877206      0.266297996     -0.606999993       1108.68799      -2.60846281    
  -1.84103203      0.366203994     -0.606999993       1108.68799      -2.60846281    
  -1.73421395      0.718334973     -0.606999993       1421.42920       2.16159153    
  -2.40179110      0.994853973     -0.517000020       1421.42920       2.16159153    
  -2.16155505       1.44430494     -0.517000020       1421.42920       2.16159153    
  -1.56075203       1.04286098     -0.606999993       1421.42920       2.16159153    
  -1.56075203       1.04286098     -0.606999993       1086.99927      -2.20556045    
  -1.13495600      0.758352995     -0.606999993       1086.99927      -2.20556045    
  -1.26109600      0.522363007     -0.606999993       1086.99927      -2.20556045    
  -1.73421395      0.718334973     -0.606999993       1086.99927      -2.20556045    
  -1.56075203       1.04286098     -0.606999993       1446.94299       2.97173882    
  -2.16155505       1.44430494     -0.517000020       1446.94299       2.97173882    
  -1.83825099       1.83825099     -0.517000020       1446.94299       2.97173882    
  -1.32730997       1.32730997     -0.606999993       1446.94299       2.97173882    
  -1.32730997       1.32730997     -0.606999993       1041.18774      -1.54738092    
 -0.965201020      0.965201020     -0.606999993       1041.18774      -1.54738092    
  -1.13495600      0.758352995     -0.606999993       1041.18774      -1.54738092    
  -1.56075203       1.04286098     -0.606999993       1041.18774      -1.54738092    
  -1.32730997       1.32730997     -0.606999993       1313.69958      -2.16228199    
  -1.83825099       1.83825099     -0.517000020       1313.69958      -2.16228199    
  -1.44430494       2.16155505     -0.517000020       1313.69958      -2.16228199    
  -1.04286098       1.56075203     -0.606999993       1313.69958      -2.16228199    
  -1.04286098       1.56075203     -0.606999993       1042.58740     -0.677751064    
 -0.758352995       1.13495600     -0.606999993       1042.58740     -0.677751064    
 -0.965201020      0.965201020     -0.606999993       1042.58740     -0.677751064    
  -1.32730997       1.32730997     -0.606999993       1042.58740     -0.677751064    
  -1.04286098       1.56075203     -0.606999993       1341.21204     -0.786023080    
  -1.44430494       2.16155505     -0.517000020       1341.21204     -0.786023080    
 -0.994853973       2.40179110     -0.517000020       1341.21204     -0.786023080    
 -0.718334973       1.73421395     -0.606999993       1341.21204     -0.786023080    
 -0.718334973       1.73421395     -0.606999993       1059.00085      0.299090147    
 -0.522363007       1.26109600     -0.606999993       1059.00085      0.299090147    
 -0.758352995       1.13495600     -0.606999993       1059.00085      0.299090147    
  -1.04286098       1.56075203     -0.606999993       1059.00085      0.299090147    
 -0.718334973       1.73421395     -0.606999993       1282.36682      0.664506018    
 -0.994853973       2.40179110     -0.517000020       1282.36682      0.664506018    
 -0.507171988       2.54972792     -0.517000020       1282.36682      0.664506018    
 -0.366203994       1.84103203     -0.606999993       1282.36682      0.664506018    
 -0.366203994       1.84103203     -0.606999993       1047.81592       1.39380193    
 -0.266297996       1.33877206     -0.606999993       1047.81592       1.39380193    
 -0.522363007       1.26109600     -0.606999993       1047.81592       1.39380193    
 -0.718334973       1.73421395     -0.606999993       1047.81592       1.39380193    
 -0.366203994       1.84103203     -0.606999993       1225.37891       2.32142329    
 -0.507171988       2.54972792     -0.517000020       1225.37891       2.32142329    
   0.00000000       2.59967995     -0.517000020       1225.37891       2.32142329    
   0.00000000       1.87709999     -0.606999993       1225.37891       2.32142329    
   0.00000000       1.87709999     -0.606999993       1073.03052       2.56130362    
   0.00000000       1.36500001     -0.606999993       1073.03052       2.56130362    
 -0.266297996       1.33877206     -0.606999993       1073.03052       2.56130362    
 -0.366203994       1.84103203     -0.606999993       1073.03052       2.56130362    
   0.00000000       1.87709999     -0.606999993       1263.68909      -2.34627819    
   0.00000000       2.59967995     -0.517000020       1263.68909      -2.34627819    
  0.507171988       2.54972792     -0.517000020       1263.68909      -2.34627819    
  0.366203994       1.84103203     -0.606999993       1263.68909      -2.34627819    
  0.366203994       1.84103203     -0.606999993       1084.08789      -2.58131123    
  0.266297996       1.33877206     -0.606999993       1084.08789      -2.58131123    
   0.00000000       1.36500001     -0.606999993       1084.08789      -2.58131123    
   0.00000000       1.87709999     -0.606999993       1084.08789      -2.58131123    
  0.366203994       1.84103203     -0.606999993       1230.31274     -0.731945276    
  0.507171988       2.54972792     -0.517000020       1230.31274     -0.731945276    
  0.994853973       2.40179110     -0.517000020       1230.31274     -0.731945276    
  0.718334973       1.73421395     -0.606999993       1230.31274     -0.731945276    
  0.718334973       1.73421395     -0.606999993       1040.82874      -1.43403482    
  0.522363007       1.26109600     -0.606999993       1040.82874      -1.43403482    
  0.266297996       1.33877206     -0.606999993       1040.82874      -1.43403482    
  0.366203994       1.84103203     -0.606999993       1040.82874      -1.43403482    
  0.718334973       1.73421395     -0.606999993       1297.08997      0.792118728    
  0.994853973       2.40179110     -0.517000020       1297.08997      0.792118728    
   1.44430494       2.16155505     -0.517000020       1297.08997      0.792118728    
   1.04286098       1.56075203     -0.606999993       1297.08997      0.792118728    
   1.04286098       1.56075203     -0.606999993       1038.44238     -0.307718813    
  0.758352995       1.13495600     -0.606999993       1038.44238     -0.307718813    
  0.522363007       1.26109600     -0.606999993       1038.44238     -0.307718813    
  0.718334973       1.73421395     -0.606999993       1038.44238     -0.307718813    
   1.04286098       1.56075203     -0.606999993       1316.68298       2.09279585    
   1.44430494       2.16155505     -0.517000020       1316.68298       2.09279585    
   1.83825099       1.83825099     -0.517000020       1316.68298       2.09279585    
   1.32730997       1.32730997     -0.606999993       1316.68298       2.09279585    
   1.32730997       1.32730997     -0.606999993       1071.35730      0.674826622    
  0.965201020      0.965201020     -0.606999993       1071.35730      0.674826622    
  0.758352995       1.13495600     -0.606999993       1071.35730      0.674826622    
   1.04286098       1.56075203     -0.606999993       1071.35730      0.674826622    
   1.32730997       1.32730997     -0.606999993       1293.68994      -3.04500270    
   1.83825099       1.83825099     -0.517000020       1293.68994      -3.04500270    
   2.16155505       1.44430494     -0.517000020       1293.68994      -3.04500270    
   1.56075203       1.04286098     -0.606999993       1293.68994      -3.04500270    
   1.56075203       1.04286098     -0.606999993       1082.27051       1.49156225    
   1.13495600      0.758352995     -0.606999993       1082.27051       1.49156225    
  0.965201020      0.965201020     -0.606999993       1082.27051       1.49156225    
   1.32730997       1.32730997     -0.606999993       1082.27051       1.49156225    
   1.56075203       1.04286098     -0.606999993       1306.05212      -2.14606476    
   2.16155505       1.44430494     -0.517000020       1306.05212      -2.14606476    
   2.40179110      0.994853973     -0.517000020       1306.05212      -2.14606476    
   1.73421395      0.718334973     -0.606999993       1306.05212      -2.14606476    
   1.73421395      0.718334973     -0.606999993       1083.67786       2.14122033    
   1.26109600      0.522363007     -0.606999993       1083.67786       2.14122033    
   1.13495600      0.758352995     -0.606999993       1083.67786       2.14122033    
   1.56075203       1.04286098     -0.606999993       1083.67786       2.14122033    
   1.73421395      0.718334973     -0.606999993       1306.60828      -1.53837645    
   2.40179110      0.994853973     -0.517000020       1306.60828      -1.53837645    
   2.54972792      0.507171988     -0.517000020       1306.60828      -1.53837645    
   1.84103203      0.366203994     -0.606999993       1306.60828      -1.53837645    
   1.84103203      0.366203994     -0.606999993       1091.16748       2.59087968    
   1.33877206      0.266297996     -0.606999993       1091.16748       2.59087968    
   1.26109600      0.522363007     -0.606999993       1091.16748       2.59087968    
   1.73421395      0.718334973     -0.606999993       1091.16748       2.59087968    
   1.84103203      0.366203994     -0.606999993       1303.17859      -1.23097765    
   2.54972792      0.507171988     -0.517000020       1303.17859      -1.23097765    
   2.59967995       0.00000000     -0.517000020       1303.17859      -1.23097765    
   1.87709999       0.00000000     -0.606999993       1303.17859      -1.23097765    
   1.87709999       0.00000000     -0.606999993       1097.36475       2.81875706    
   1.36500001       0.00000000     -0.606999993       1097.36475       2.81875706    
   1.33877206      0.266297996     -0.606999993       1097.36475       2.81875706    
   1.84103203      0.366203994     -0.606999993       1097.36475       2.81875706    
   1.87709999       0.00000000     -0.606999993       1303.66052      -1.23058581    
   2.59967995       0.00000000     -0.517000020       1303.66052      -1.23058581    
   2.54972792     -0.507171988     -0.517000020       1303.66052      -1.23058581    
   1.84103203     -0.366203994     -0.606999993       1303.66052      -1.23058581    
   1.84103203     -0.366203994     -0.606999993       1097.12549       2.81869411    
   1.33877206     -0.266297996     -0.606999993       1097.12549       2.81869411    
   1.36500001       0.00000000     -0.606999993       1097.12549       2.81869411    
   1.87709999       0.00000000     -0.606999993       1097.12549       2.81869411    
   1.84103203     -0.366203994     -0.606999993       1307.05017      -1.53759325    
   2.54972792     -0.507171988     -0.517000020       1307.05017      -1.53759325    
   2.40179110     -0.994853973     -0.517000020       1307.05017      -1.53759325    
   1.73421395     -0.718334973     -0.606999993       1307.05017      -1.53759325    
   1.73421395     -0.718334973     -0.606999993       1090.80823       2.59045291    
   1.26109600     -0.522363007     -0.606999993       1090.80823       2.59045291    
   1.33877206     -0.266297996     -0.606999993       1090.80823       2.59045291    
   1.84103203     -0.366203994     -0.606999993       1090.80823       2.59045291    
   1.73421395     -0.718334973     -0.606999993       1305.79834      -2.14645696    
   2.40179110     -0.994853973     -0.517000020       1305.79834      -2.14645696    
   2.16155505      -1.44430494     -0.517000020       1305.79834      -2.14645696    
   1.56075203      -1.04286098     -0.606999993       1305.79834      -2.14645696    
   1.56075203      -1.04286098     -0.606999993       1084.22888       2.14071226    
   1.13495600     -0.758352995     -0.606999993       1084.22888       2.14071226    
   1.26109600     -0.522363007     -0.606999993       1084.22888       2.14071226    