 VARIABLES="X" "Y" "Z" "abs(p) (Pa)" "angle(p) (rad)"
ZONE N=   2709,E =    2358, F=FEPOINT, ET=QUADRILATERAL
   0.00000000      -5.48999977     -0.157000005       197.231384      -1.56773782    
   0.00000000      -4.76741982     -0.246999994       197.231384      -1.56773782    
  0.930077016      -4.67581606     -0.246999994       197.231384      -1.56773782    
   1.07104599      -5.38451099     -0.157000005       197.231384      -1.56773782    
  -1.07104599      -5.38451099     -0.157000005       206.419006       1.57795238    
 -0.930077016      -4.67581606     -0.246999994       206.419006       1.57795238    
   0.00000000      -4.76741982     -0.246999994       206.419006       1.57795238    
   0.00000000      -5.48999977     -0.157000005       206.419006       1.57795238    
  -2.10093188      -5.07209921     -0.157000005       606.147156       1.57658553    
  -1.82441294      -4.40452194     -0.246999994       606.147156       1.57658553    
 -0.930077016      -4.67581606     -0.246999994       606.147156       1.57658553    
  -1.07104599      -5.38451099     -0.157000005       606.147156       1.57658553    
  -3.05008101      -4.56476784     -0.157000005       973.289368       1.57637000    
  -2.64863706      -3.96396494     -0.246999994       973.289368       1.57637000    
  -1.82441294      -4.40452194     -0.246999994       973.289368       1.57637000    
  -2.10093188      -5.07209921     -0.157000005       973.289368       1.57637000    
  -3.88201594      -3.88201594     -0.157000005       1309.34387       1.57625067    
  -3.37107491      -3.37107491     -0.246999994       1309.34387       1.57625067    
  -2.64863706      -3.96396494     -0.246999994       1309.34387       1.57625067    
  -3.05008101      -4.56476784     -0.157000005       1309.34387       1.57625067    
  -4.56476784      -3.05008101     -0.157000005       1607.95386       1.57613778    
  -3.96396494      -2.64863706     -0.246999994       1607.95386       1.57613778    
  -3.37107491      -3.37107491     -0.246999994       1607.95386       1.57613778    
  -3.88201594      -3.88201594     -0.157000005       1607.95386       1.57613778    
  -5.07209921      -2.10093188     -0.157000005       1818.38037       1.57615912    
  -4.40452194      -1.82441294     -0.246999994       1818.38037       1.57615912    
  -3.96396494      -2.64863706     -0.246999994       1818.38037       1.57615912    
  -4.56476784      -3.05008101     -0.157000005       1818.38037       1.57615912    
  -5.38451099      -1.07104599     -0.157000005       1971.14734       1.57614589    
  -4.67581606     -0.930077016     -0.246999994       1971.14734       1.57614589    
  -4.40452194      -1.82441294     -0.246999994       1971.14734       1.57614589    
  -5.07209921      -2.10093188     -0.157000005       1971.14734       1.57614589    
  -5.48999977       0.00000000     -0.157000005       2065.78833       1.57608581    
  -4.76741982       0.00000000     -0.246999994       2065.78833       1.57608581    
  -4.67581606     -0.930077016     -0.246999994       2065.78833       1.57608581    
  -5.38451099      -1.07104599     -0.157000005       2065.78833       1.57608581    
  -5.38451099       1.07104599     -0.157000005       2067.94897       1.57607639    
  -4.67581606      0.930077016     -0.246999994       2067.94897       1.57607639    
  -4.76741982       0.00000000     -0.246999994       2067.94897       1.57607639    
  -5.48999977       0.00000000     -0.157000005       2067.94897       1.57607639    
  -5.07209921       2.10093188     -0.157000005       1988.16577       1.57608271    
  -4.40452194       1.82441294     -0.246999994       1988.16577       1.57608271    
  -4.67581606      0.930077016     -0.246999994       1988.16577       1.57608271    
  -5.38451099       1.07104599     -0.157000005       1988.16577       1.57608271    
  -4.56476784       3.05008101     -0.157000005       1829.75256       1.57610369    
  -3.96396494       2.64863706     -0.246999994       1829.75256       1.57610369    
  -4.40452194       1.82441294     -0.246999994       1829.75256       1.57610369    
  -5.07209921       2.10093188     -0.157000005       1829.75256       1.57610369    
  -3.88201594       3.88201594     -0.157000005       1591.06689       1.57617903    
  -3.37107491       3.37107491     -0.246999994       1591.06689       1.57617903    
  -3.96396494       2.64863706     -0.246999994       1591.06689       1.57617903    
  -4.56476784       3.05008101     -0.157000005       1591.06689       1.57617903    
  -3.05008101       4.56476784     -0.157000005       1312.22058       1.57619452    
  -2.64863706       3.96396494     -0.246999994       1312.22058       1.57619452    
  -3.37107491       3.37107491     -0.246999994       1312.22058       1.57619452    
  -3.88201594       3.88201594     -0.157000005       1312.22058       1.57619452    
  -2.10093188       5.07209921     -0.157000005       968.789185       1.57633317    
  -1.82441294       4.40452194     -0.246999994       968.789185       1.57633317    
  -2.64863706       3.96396494     -0.246999994       968.789185       1.57633317    
  -3.05008101       4.56476784     -0.157000005       968.789185       1.57633317    
  -1.07104599       5.38451099     -0.157000005       599.018799       1.57654524    
 -0.930077016       4.67581606     -0.246999994       599.018799       1.57654524    
  -1.82441294       4.40452194     -0.246999994       599.018799       1.57654524    
  -2.10093188       5.07209921     -0.157000005       599.018799       1.57654524    
   0.00000000       5.48999977     -0.157000005       199.533081       1.57785511    
   0.00000000       4.76741982     -0.246999994       199.533081       1.57785511    
 -0.930077016       4.67581606     -0.246999994       199.533081       1.57785511    
  -1.07104599       5.38451099     -0.157000005       199.533081       1.57785511    
   1.07104599       5.38451099     -0.157000005       206.553558      -1.56755209    
  0.930077016       4.67581606     -0.246999994       206.553558      -1.56755209    
   0.00000000       4.76741982     -0.246999994       206.553558      -1.56755209    
   0.00000000       5.48999977     -0.157000005       206.553558      -1.56755209    
   2.10093188       5.07209921     -0.157000005       600.281067      -1.56628513    
   1.82441294       4.40452194     -0.246999994       600.281067      -1.56628513    
  0.930077016       4.67581606     -0.246999994       600.281067      -1.56628513    
   1.07104599       5.38451099     -0.157000005       600.281067      -1.56628513    
   3.05008101       4.56476784     -0.157000005       973.553467      -1.56605172    
   2.64863706       3.96396494     -0.246999994       973.553467      -1.56605172    
   1.82441294       4.40452194     -0.246999994       973.553467      -1.56605172    
   2.10093188       5.07209921     -0.157000005       973.553467      -1.56605172    
   3.88201594       3.88201594     -0.157000005       1320.15466      -1.56600249    
   3.37107491       3.37107491     -0.246999994       1320.15466      -1.56600249    
   2.64863706       3.96396494     -0.246999994       1320.15466      -1.56600249    
   3.05008101       4.56476784     -0.157000005       1320.15466      -1.56600249    
   4.56476784       3.05008101     -0.157000005       1605.93042      -1.56594443    
   3.96396494       2.64863706     -0.246999994       1605.93042      -1.56594443    
   3.37107491       3.37107491     -0.246999994       1605.93042      -1.56594443    
   3.88201594       3.88201594     -0.157000005       1605.93042      -1.56594443    
   5.07209921       2.10093188     -0.157000005       1833.62354      -1.56592190    
   4.40452194       1.82441294     -0.246999994       1833.62354      -1.56592190    
   3.96396494       2.64863706     -0.246999994       1833.62354      -1.56592190    
   4.56476784       3.05008101     -0.157000005       1833.62354      -1.56592190    
   5.38451099       1.07104599     -0.157000005       1970.04199      -1.56585026    
   4.67581606      0.930077016     -0.246999994       1970.04199      -1.56585026    
   4.40452194       1.82441294     -0.246999994       1970.04199      -1.56585026    
   5.07209921       2.10093188     -0.157000005       1970.04199      -1.56585026    
   5.48999977       0.00000000     -0.157000005       2043.53345      -1.56583261    
   4.76741982       0.00000000     -0.246999994       2043.53345      -1.56583261    
   4.67581606      0.930077016     -0.246999994       2043.53345      -1.56583261    
   5.38451099       1.07104599     -0.157000005       2043.53345      -1.56583261    
   5.38451099      -1.07104599     -0.157000005       2041.60107      -1.56583142    
   4.67581606     -0.930077016     -0.246999994       2041.60107      -1.56583142    
   4.76741982       0.00000000     -0.246999994       2041.60107      -1.56583142    
   5.48999977       0.00000000     -0.157000005       2041.60107      -1.56583142    
   5.07209921      -2.10093188     -0.157000005       1961.96570      -1.56583977    
   4.40452194      -1.82441294     -0.246999994       1961.96570      -1.56583977    
   4.67581606     -0.930077016     -0.246999994       1961.96570      -1.56583977    
   5.38451099      -1.07104599     -0.157000005       1961.96570      -1.56583977    
   4.56476784      -3.05008101     -0.157000005       1806.93384      -1.56585968    
   3.96396494      -2.64863706     -0.246999994       1806.93384      -1.56585968    
   4.40452194      -1.82441294     -0.246999994       1806.93384      -1.56585968    
   5.07209921      -2.10093188     -0.157000005       1806.93384      -1.56585968    
   3.88201594      -3.88201594     -0.157000005       1583.84180      -1.56589854    
   3.37107491      -3.37107491     -0.246999994       1583.84180      -1.56589854    
   3.96396494      -2.64863706     -0.246999994       1583.84180      -1.56589854    
   4.56476784      -3.05008101     -0.157000005       1583.84180      -1.56589854    
   3.05008101      -4.56476784     -0.157000005       1308.21350      -1.56599891    
   2.64863706      -3.96396494     -0.246999994       1308.21350      -1.56599891    
   3.37107491      -3.37107491     -0.246999994       1308.21350      -1.56599891    
   3.88201594      -3.88201594     -0.157000005       1308.21350      -1.56599891    
   2.10093188      -5.07209921     -0.157000005       965.274414      -1.56607389    
   1.82441294      -4.40452194     -0.246999994       965.274414      -1.56607389    
   2.64863706      -3.96396494     -0.246999994       965.274414      -1.56607389    
   3.05008101      -4.56476784     -0.157000005       965.274414      -1.56607389    
   1.07104599      -5.38451099     -0.157000005       592.316895      -1.56633508    
  0.930077016      -4.67581606     -0.246999994       592.316895      -1.56633508    
   1.82441294      -4.40452194     -0.246999994       592.316895      -1.56633508    
   2.10093188      -5.07209921     -0.157000005       592.316895      -1.56633508    
   0.00000000      -1.87709999     -0.606999993       108.203972      -1.57192218    
   0.00000000      -1.36500001     -0.606999993       108.203972      -1.57192218    
  0.266297996      -1.33877206     -0.606999993       108.203972      -1.57192218    
  0.366203994      -1.84103203     -0.606999993       108.203972      -1.57192218    
   0.00000000      -1.87709999     -0.606999993       163.267181       1.57607400    
   0.00000000      -2.59967995     -0.517000020       163.267181       1.57607400    
 -0.507171988      -2.54972792     -0.517000020       163.267181       1.57607400    
 -0.366203994      -1.84103203     -0.606999993       163.267181       1.57607400    
 -0.366203994      -1.84103203     -0.606999993       103.168251       1.57694602    
 -0.266297996      -1.33877206     -0.606999993       103.168251       1.57694602    
   0.00000000      -1.36500001     -0.606999993       103.168251       1.57694602    
   0.00000000      -1.87709999     -0.606999993       103.168251       1.57694602    
 -0.366203994      -1.84103203     -0.606999993       481.120209       1.57447755    
 -0.507171988      -2.54972792     -0.517000020       481.120209       1.57447755    
 -0.994853973      -2.40179110     -0.517000020       481.120209       1.57447755    
 -0.718334973      -1.73421395     -0.606999993       481.120209       1.57447755    
 -0.718334973      -1.73421395     -0.606999993       310.400726       1.57443535    
 -0.522363007      -1.26109600     -0.606999993       310.400726       1.57443535    
 -0.266297996      -1.33877206     -0.606999993       310.400726       1.57443535    
 -0.366203994      -1.84103203     -0.606999993       310.400726       1.57443535    
 -0.718334973      -1.73421395     -0.606999993       778.745178       1.57412863    
 -0.994853973      -2.40179110     -0.517000020       778.745178       1.57412863    
  -1.44430494      -2.16155505     -0.517000020       778.745178       1.57412863    
  -1.04286098      -1.56075203     -0.606999993       778.745178       1.57412863    
  -1.04286098      -1.56075203     -0.606999993       505.809174       1.57392061    
 -0.758352995      -1.13495600     -0.606999993       505.809174       1.57392061    
 -0.522363007      -1.26109600     -0.606999993       505.809174       1.57392061    
 -0.718334973      -1.73421395     -0.606999993       505.809174       1.57392061    
  -1.04286098      -1.56075203     -0.606999993       1048.03369       1.57396424    
  -1.44430494      -2.16155505     -0.517000020       1048.03369       1.57396424    
  -1.83825099      -1.83825099     -0.517000020       1048.03369       1.57396424    
  -1.32730997      -1.32730997     -0.606999993       1048.03369       1.57396424    
  -1.32730997      -1.32730997     -0.606999993       683.078308       1.57368898    
 -0.965201020     -0.965201020     -0.606999993       683.078308       1.57368898    
 -0.758352995      -1.13495600     -0.606999993       683.078308       1.57368898    
  -1.04286098      -1.56075203     -0.606999993       683.078308       1.57368898    
  -1.32730997      -1.32730997     -0.606999993       1281.04187       1.57387447    
  -1.83825099      -1.83825099     -0.517000020       1281.04187       1.57387447    
  -2.16155505      -1.44430494     -0.517000020       1281.04187       1.57387447    
  -1.56075203      -1.04286098     -0.606999993       1281.04187       1.57387447    
  -1.56075203      -1.04286098     -0.606999993       835.962769       1.57356417    
  -1.13495600     -0.758352995     -0.606999993       835.962769       1.57356417    
 -0.965201020     -0.965201020     -0.606999993       835.962769       1.57356417    
  -1.32730997      -1.32730997     -0.606999993       835.962769       1.57356417    
  -1.56075203      -1.04286098     -0.606999993       1466.01807       1.57383299    
  -2.16155505      -1.44430494     -0.517000020       1466.01807       1.57383299    
  -2.40179110     -0.994853973     -0.517000020       1466.01807       1.57383299    
  -1.73421395     -0.718334973     -0.606999993       1466.01807       1.57383299    
  -1.73421395     -0.718334973     -0.606999993       957.081970       1.57349956    
  -1.26109600     -0.522363007     -0.606999993       957.081970       1.57349956    
  -1.13495600     -0.758352995     -0.606999993       957.081970       1.57349956    
  -1.56075203      -1.04286098     -0.606999993       957.081970       1.57349956    
  -1.73421395     -0.718334973     -0.606999993       1591.55042       1.57382178    
  -2.40179110     -0.994853973     -0.517000020       1591.55042       1.57382178    
  -2.54972792     -0.507171988     -0.517000020       1591.55042       1.57382178    
  -1.84103203     -0.366203994     -0.606999993       1591.55042       1.57382178    
  -1.84103203     -0.366203994     -0.606999993       1040.16638       1.57347333    
  -1.33877206     -0.266297996     -0.606999993       1040.16638       1.57347333    
  -1.26109600     -0.522363007     -0.606999993       1040.16638       1.57347333    
  -1.73421395     -0.718334973     -0.606999993       1040.16638       1.57347333    
  -1.84103203     -0.366203994     -0.606999993       1653.75073       1.57382250    
  -2.54972792     -0.507171988     -0.517000020       1653.75073       1.57382250    
  -2.59967995       0.00000000     -0.517000020       1653.75073       1.57382250    
  -1.87709999       0.00000000     -0.606999993       1653.75073       1.57382250    
  -1.87709999       0.00000000     -0.606999993       1082.28369       1.57346582    
  -1.36500001       0.00000000     -0.606999993       1082.28369       1.57346582    
  -1.33877206     -0.266297996     -0.606999993       1082.28369       1.57346582    
  -1.84103203     -0.366203994     -0.606999993       1082.28369       1.57346582    
  -1.87709999       0.00000000     -0.606999993       1654.25464       1.57382107    
  -2.59967995       0.00000000     -0.517000020       1654.25464       1.57382107    
  -2.54972792      0.507171988     -0.517000020       1654.25464       1.57382107    
  -1.84103203      0.366203994     -0.606999993       1654.25464       1.57382107    
  -1.84103203      0.366203994     -0.606999993       1083.22412       1.57346380    
  -1.33877206      0.266297996     -0.606999993       1083.22412       1.57346380    
  -1.36500001       0.00000000     -0.606999993       1083.22412       1.57346380    
  -1.87709999       0.00000000     -0.606999993       1083.22412       1.57346380    
  -1.84103203      0.366203994     -0.606999993       1593.71875       1.57381523    
  -2.54972792      0.507171988     -0.517000020       1593.71875       1.57381523    
  -2.40179110      0.994853973     -0.517000020       1593.71875       1.57381523    
  -1.73421395      0.718334973     -0.606999993       1593.71875       1.57381523    
  -1.73421395      0.718334973     -0.606999993       1043.21936       1.57346499    
  -1.26109600      0.522363007     -0.606999993       1043.21936       1.57346499    
  -1.33877206      0.266297996     -0.606999993       1043.21936       1.57346499    
  -1.84103203      0.366203994     -0.606999993       1043.21936       1.57346499    
  -1.73421395      0.718334973     -0.606999993       1470.57849       1.57381642    
  -2.40179110      0.994853973     -0.517000020       1470.57849       1.57381642    
  -2.16155505       1.44430494     -0.517000020       1470.57849       1.57381642    
  -1.56075203       1.04286098     -0.606999993       1470.57849       1.57381642    
  -1.56075203       1.04286098     -0.606999993       962.477356       1.57348084    
  -1.13495600      0.758352995     -0.606999993       962.477356       1.57348084    
  -1.26109600      0.522363007     -0.606999993       962.477356       1.57348084    
  -1.73421395      0.718334973     -0.606999993       962.477356       1.57348084    
  -1.56075203       1.04286098     -0.606999993       1287.02954       1.57384491    
  -2.16155505       1.44430494     -0.517000020       1287.02954       1.57384491    
  -1.83825099       1.83825099     -0.517000020       1287.02954       1.57384491    
  -1.32730997       1.32730997     -0.606999993       1287.02954       1.57384491    
  -1.32730997       1.32730997     -0.606999993       843.337769       1.57352984    
 -0.965201020      0.965201020     -0.606999993       843.337769       1.57352984    
  -1.13495600      0.758352995     -0.606999993       843.337769       1.57352984    
  -1.56075203       1.04286098     -0.606999993       843.337769       1.57352984    
  -1.32730997       1.32730997     -0.606999993       1053.41699       1.57392037    
  -1.83825099       1.83825099     -0.517000020       1053.41699       1.57392037    
  -1.44430494       2.16155505     -0.517000020       1053.41699       1.57392037    
  -1.04286098       1.56075203     -0.606999993       1053.41699       1.57392037    
  -1.04286098       1.56075203     -0.606999993       691.424011       1.57363808    
 -0.758352995       1.13495600     -0.606999993       691.424011       1.57363808    
 -0.965201020      0.965201020     -0.606999993       691.424011       1.57363808    
  -1.32730997       1.32730997     -0.606999993       691.424011       1.57363808    
  -1.04286098       1.56075203     -0.606999993       782.433777       1.57406914    
  -1.44430494       2.16155505     -0.517000020       782.433777       1.57406914    
 -0.994853973       2.40179110     -0.517000020       782.433777       1.57406914    
 -0.718334973       1.73421395     -0.606999993       782.433777       1.57406914    
 -0.718334973       1.73421395     -0.606999993       514.049377       1.57384884    
 -0.522363007       1.26109600     -0.606999993       514.049377       1.57384884    
 -0.758352995       1.13495600     -0.606999993       514.049377       1.57384884    
  -1.04286098       1.56075203     -0.606999993       514.049377       1.57384884    
 -0.718334973       1.73421395     -0.606999993       483.158264       1.57439232    
 -0.994853973       2.40179110     -0.517000020       483.158264       1.57439232    
 -0.507171988       2.54972792     -0.517000020       483.158264       1.57439232    
 -0.366203994       1.84103203     -0.606999993       483.158264       1.57439232    
 -0.366203994       1.84103203     -0.606999993       317.788147       1.57432711    
 -0.266297996       1.33877206     -0.606999993       317.788147       1.57432711    
 -0.522363007       1.26109600     -0.606999993       317.788147       1.57432711    
 -0.718334973       1.73421395     -0.606999993       317.788147       1.57432711    
 -0.366203994       1.84103203     -0.606999993       163.937210       1.57587707    
 -0.507171988       2.54972792     -0.517000020       163.937210       1.57587707    
   0.00000000       2.59967995     -0.517000020       163.937210       1.57587707    
   0.00000000       1.87709999     -0.606999993       163.937210       1.57587707    
   0.00000000       1.87709999     -0.606999993       109.241661       1.57658970    
   0.00000000       1.36500001     -0.606999993       109.241661       1.57658970    
 -0.266297996       1.33877206     -0.606999993       109.241661       1.57658970    
 -0.366203994       1.84103203     -0.606999993       109.241661       1.57658970    
   0.00000000       1.87709999     -0.606999993       162.774200      -1.57016087    
   0.00000000       2.59967995     -0.517000020       162.774200      -1.57016087    
  0.507171988       2.54972792     -0.517000020       162.774200      -1.57016087    
  0.366203994       1.84103203     -0.606999993       162.774200      -1.57016087    
  0.366203994       1.84103203     -0.606999993       103.715698      -1.57202768    
  0.266297996       1.33877206     -0.606999993       103.715698      -1.57202768    
   0.00000000       1.36500001     -0.606999993       103.715698      -1.57202768    
   0.00000000       1.87709999     -0.606999993       103.715698      -1.57202768    
  0.366203994       1.84103203     -0.606999993       481.916870      -1.56870770    
  0.507171988       2.54972792     -0.517000020       481.916870      -1.56870770    
  0.994853973       2.40179110     -0.517000020       481.916870      -1.56870770    
  0.718334973       1.73421395     -0.606999993       481.916870      -1.56870770    
  0.718334973       1.73421395     -0.606999993       312.267059      -1.56963837    
  0.522363007       1.26109600     -0.606999993       312.267059      -1.56963837    
  0.266297996       1.33877206     -0.606999993       312.267059      -1.56963837    
  0.366203994       1.84103203     -0.606999993       312.267059      -1.56963837    
  0.718334973       1.73421395     -0.606999993       781.037170      -1.56845582    
  0.994853973       2.40179110     -0.517000020       781.037170      -1.56845582    
   1.44430494       2.16155505     -0.517000020       781.037170      -1.56845582    
   1.04286098       1.56075203     -0.606999993       781.037170      -1.56845582    
   1.04286098       1.56075203     -0.606999993       508.593384      -1.56920779    
  0.758352995       1.13495600     -0.606999993       508.593384      -1.56920779    
  0.522363007       1.26109600     -0.606999993       508.593384      -1.56920779    
  0.718334973       1.73421395     -0.606999993       508.593384      -1.56920779    
   1.04286098       1.56075203     -0.606999993       1051.74194      -1.56836748    
   1.44430494       2.16155505     -0.517000020       1051.74194      -1.56836748    
   1.83825099       1.83825099     -0.517000020       1051.74194      -1.56836748    
   1.32730997       1.32730997     -0.606999993       1051.74194      -1.56836748    
   1.32730997       1.32730997     -0.606999993       686.043823      -1.56904328    
  0.965201020      0.965201020     -0.606999993       686.043823      -1.56904328    
  0.758352995       1.13495600     -0.606999993       686.043823      -1.56904328    
   1.04286098       1.56075203     -0.606999993       686.043823      -1.56904328    
   1.32730997       1.32730997     -0.606999993       1284.96118      -1.56831908    
   1.83825099       1.83825099     -0.517000020       1284.96118      -1.56831908    
   2.16155505       1.44430494     -0.517000020       1284.96118      -1.56831908    
   1.56075203       1.04286098     -0.606999993       1284.96118      -1.56831908    
   1.56075203       1.04286098     -0.606999993       838.109375      -1.56895626    
   1.13495600      0.758352995     -0.606999993       838.109375      -1.56895626    
  0.965201020      0.965201020     -0.606999993       838.109375      -1.56895626    
   1.32730997       1.32730997     -0.606999993       838.109375      -1.56895626    
   1.56075203       1.04286098     -0.606999993       1468.05786      -1.56827807    
   2.16155505       1.44430494     -0.517000020       1468.05786      -1.56827807    
   2.40179110      0.994853973     -0.517000020       1468.05786      -1.56827807    
   1.73421395      0.718334973     -0.606999993       1468.05786      -1.56827807    
   1.73421395      0.718334973     -0.606999993       957.762085      -1.56889486    
   1.26109600      0.522363007     -0.606999993       957.762085      -1.56889486    
   1.13495600      0.758352995     -0.606999993       957.762085      -1.56889486    
   1.56075203       1.04286098     -0.606999993       957.762085      -1.56889486    
   1.73421395      0.718334973     -0.606999993       1590.78430      -1.56824267    
   2.40179110      0.994853973     -0.517000020       1590.78430      -1.56824267    
   2.54972792      0.507171988     -0.517000020       1590.78430      -1.56824267    
   1.84103203      0.366203994     -0.606999993       1590.78430      -1.56824267    
   1.84103203      0.366203994     -0.606999993       1039.11646      -1.56885111    
   1.33877206      0.266297996     -0.606999993       1039.11646      -1.56885111    
   1.26109600      0.522363007     -0.606999993       1039.11646      -1.56885111    
   1.73421395      0.718334973     -0.606999993       1039.11646      -1.56885111    
   1.84103203      0.366203994     -0.606999993       1651.03906      -1.56822228    
   2.54972792      0.507171988     -0.517000020       1651.03906      -1.56822228    
   2.59967995       0.00000000     -0.517000020       1651.03906      -1.56822228    
   1.87709999       0.00000000     -0.606999993       1651.03906      -1.56822228    
   1.87709999       0.00000000     -0.606999993       1079.83459      -1.56882632    
   1.36500001       0.00000000     -0.606999993       1079.83459      -1.56882632    
   1.33877206      0.266297996     -0.606999993       1079.83459      -1.56882632    
   1.84103203      0.366203994     -0.606999993       1079.83459      -1.56882632    
   1.87709999       0.00000000     -0.606999993       1650.43762      -1.56822371    
   2.59967995       0.00000000     -0.517000020       1650.43762      -1.56822371    
   2.54972792     -0.507171988     -0.517000020       1650.43762      -1.56822371    
   1.84103203     -0.366203994     -0.606999993       1650.43762      -1.56822371    
   1.84103203     -0.366203994     -0.606999993       1079.76050      -1.56882644    
   1.33877206     -0.266297996     -0.606999993       1079.76050      -1.56882644    
   1.36500001       0.00000000     -0.606999993       1079.76050      -1.56882644    
   1.87709999       0.00000000     -0.606999993       1079.76050      -1.56882644    
   1.84103203     -0.366203994     -0.606999993       1588.33276      -1.56824541    
   2.54972792     -0.507171988     -0.517000020       1588.33276      -1.56824541    
   2.40179110     -0.994853973     -0.517000020       1588.33276      -1.56824541    
   1.73421395     -0.718334973     -0.606999993       1588.33276      -1.56824541    
   1.73421395     -0.718334973     -0.606999993       1038.63586      -1.56884885    
   1.26109600     -0.522363007     -0.606999993       1038.63586      -1.56884885    
   1.33877206     -0.266297996     -0.606999993       1038.63586      -1.56884885    
   1.84103203     -0.366203994     -0.606999993       1038.63586      -1.56884885    
   1.73421395     -0.718334973     -0.606999993       1463.08594      -1.56827843    
   2.40179110     -0.994853973     -0.517000020       1463.08594      -1.56827843    
   2.16155505      -1.44430494     -0.517000020       1463.08594      -1.56827843    
   1.56075203      -1.04286098     -0.606999993       1463.08594      -1.56827843    
   1.56075203      -1.04286098     -0.606999993       956.667358      -1.56888807    
   1.13495600     -0.758352995     -0.606999993       956.667358      -1.56888807    
   1.26109600     -0.522363007     -0.606999993       956.667358      -1.56888807    