 VARIABLES="X" "Y" "Z" "abs(p) (Pa)" "angle(p) (rad)"
ZONE N=   2709,E =    2358, F=FEPOINT, ET=QUADRILATERAL
   0.00000000      -5.48999977     -0.157000005       355.971832      -1.54899037    
   0.00000000      -4.76741982     -0.246999994       355.971832      -1.54899037    
  0.930077016      -4.67581606     -0.246999994       355.971832      -1.54899037    
   1.07104599      -5.38451099     -0.157000005       355.971832      -1.54899037    
  -1.07104599      -5.38451099     -0.157000005       360.824127       1.59379792    
 -0.930077016      -4.67581606     -0.246999994       360.824127       1.59379792    
   0.00000000      -4.76741982     -0.246999994       360.824127       1.59379792    
   0.00000000      -5.48999977     -0.157000005       360.824127       1.59379792    
  -2.10093188      -5.07209921     -0.157000005       1061.25244       1.60848808    
  -1.82441294      -4.40452194     -0.246999994       1061.25244       1.60848808    
 -0.930077016      -4.67581606     -0.246999994       1061.25244       1.60848808    
  -1.07104599      -5.38451099     -0.157000005       1061.25244       1.60848808    
  -3.05008101      -4.56476784     -0.157000005       1715.50183       1.59932113    
  -2.64863706      -3.96396494     -0.246999994       1715.50183       1.59932113    
  -1.82441294      -4.40452194     -0.246999994       1715.50183       1.59932113    
  -2.10093188      -5.07209921     -0.157000005       1715.50183       1.59932113    
  -3.88201594      -3.88201594     -0.157000005       2296.26758       1.60132241    
  -3.37107491      -3.37107491     -0.246999994       2296.26758       1.60132241    
  -2.64863706      -3.96396494     -0.246999994       2296.26758       1.60132241    
  -3.05008101      -4.56476784     -0.157000005       2296.26758       1.60132241    
  -4.56476784      -3.05008101     -0.157000005       2832.59131       1.60266888    
  -3.96396494      -2.64863706     -0.246999994       2832.59131       1.60266888    
  -3.37107491      -3.37107491     -0.246999994       2832.59131       1.60266888    
  -3.88201594      -3.88201594     -0.157000005       2832.59131       1.60266888    
  -5.07209921      -2.10093188     -0.157000005       3196.87915       1.60064149    
  -4.40452194      -1.82441294     -0.246999994       3196.87915       1.60064149    
  -3.96396494      -2.64863706     -0.246999994       3196.87915       1.60064149    
  -4.56476784      -3.05008101     -0.157000005       3196.87915       1.60064149    
  -5.38451099      -1.07104599     -0.157000005       3470.30713       1.60015488    
  -4.67581606     -0.930077016     -0.246999994       3470.30713       1.60015488    
  -4.40452194      -1.82441294     -0.246999994       3470.30713       1.60015488    
  -5.07209921      -2.10093188     -0.157000005       3470.30713       1.60015488    
  -5.48999977       0.00000000     -0.157000005       3640.85498       1.60490346    
  -4.76741982       0.00000000     -0.246999994       3640.85498       1.60490346    
  -4.67581606     -0.930077016     -0.246999994       3640.85498       1.60490346    
  -5.38451099      -1.07104599     -0.157000005       3640.85498       1.60490346    
  -5.38451099       1.07104599     -0.157000005       3642.65820       1.60552347    
  -4.67581606      0.930077016     -0.246999994       3642.65820       1.60552347    
  -4.76741982       0.00000000     -0.246999994       3642.65820       1.60552347    
  -5.48999977       0.00000000     -0.157000005       3642.65820       1.60552347    
  -5.07209921       2.10093188     -0.157000005       3502.28613       1.60421908    
  -4.40452194       1.82441294     -0.246999994       3502.28613       1.60421908    
  -4.67581606      0.930077016     -0.246999994       3502.28613       1.60421908    
  -5.38451099       1.07104599     -0.157000005       3502.28613       1.60421908    
  -4.56476784       3.05008101     -0.157000005       3225.88550       1.60652947    
  -3.96396494       2.64863706     -0.246999994       3225.88550       1.60652947    
  -4.40452194       1.82441294     -0.246999994       3225.88550       1.60652947    
  -5.07209921       2.10093188     -0.157000005       3225.88550       1.60652947    
  -3.88201594       3.88201594     -0.157000005       2803.85083       1.59862685    
  -3.37107491       3.37107491     -0.246999994       2803.85083       1.59862685    
  -3.96396494       2.64863706     -0.246999994       2803.85083       1.59862685    
  -4.56476784       3.05008101     -0.157000005       2803.85083       1.59862685    
  -3.05008101       4.56476784     -0.157000005       2315.93188       1.60746562    
  -2.64863706       3.96396494     -0.246999994       2315.93188       1.60746562    
  -3.37107491       3.37107491     -0.246999994       2315.93188       1.60746562    
  -3.88201594       3.88201594     -0.157000005       2315.93188       1.60746562    
  -2.10093188       5.07209921     -0.157000005       1710.06567       1.59687197    
  -1.82441294       4.40452194     -0.246999994       1710.06567       1.59687197    
  -2.64863706       3.96396494     -0.246999994       1710.06567       1.59687197    
  -3.05008101       4.56476784     -0.157000005       1710.06567       1.59687197    
  -1.07104599       5.38451099     -0.157000005       1055.48877       1.61041224    
 -0.930077016       4.67581606     -0.246999994       1055.48877       1.61041224    
  -1.82441294       4.40452194     -0.246999994       1055.48877       1.61041224    
  -2.10093188       5.07209921     -0.157000005       1055.48877       1.61041224    
   0.00000000       5.48999977     -0.157000005       355.944763       1.58443189    
   0.00000000       4.76741982     -0.246999994       355.944763       1.58443189    
 -0.930077016       4.67581606     -0.246999994       355.944763       1.58443189    
  -1.07104599       5.38451099     -0.157000005       355.944763       1.58443189    
   1.07104599       5.38451099     -0.157000005       365.503906      -1.55119789    
  0.930077016       4.67581606     -0.246999994       365.503906      -1.55119789    
   0.00000000       4.76741982     -0.246999994       365.503906      -1.55119789    
   0.00000000       5.48999977     -0.157000005       365.503906      -1.55119789    
   2.10093188       5.07209921     -0.157000005       1051.85071      -1.53500497    
   1.82441294       4.40452194     -0.246999994       1051.85071      -1.53500497    
  0.930077016       4.67581606     -0.246999994       1051.85071      -1.53500497    
   1.07104599       5.38451099     -0.157000005       1051.85071      -1.53500497    
   3.05008101       4.56476784     -0.157000005       1714.63513      -1.54478085    
   2.64863706       3.96396494     -0.246999994       1714.63513      -1.54478085    
   1.82441294       4.40452194     -0.246999994       1714.63513      -1.54478085    
   2.10093188       5.07209921     -0.157000005       1714.63513      -1.54478085    
   3.88201594       3.88201594     -0.157000005       2319.13403      -1.53300261    
   3.37107491       3.37107491     -0.246999994       2319.13403      -1.53300261    
   2.64863706       3.96396494     -0.246999994       2319.13403      -1.53300261    
   3.05008101       4.56476784     -0.157000005       2319.13403      -1.53300261    
   4.56476784       3.05008101     -0.157000005       2826.31104      -1.54254913    
   3.96396494       2.64863706     -0.246999994       2826.31104      -1.54254913    
   3.37107491       3.37107491     -0.246999994       2826.31104      -1.54254913    
   3.88201594       3.88201594     -0.157000005       2826.31104      -1.54254913    
   5.07209921       2.10093188     -0.157000005       3223.93726      -1.53469753    
   4.40452194       1.82441294     -0.246999994       3223.93726      -1.53469753    
   3.96396494       2.64863706     -0.246999994       3223.93726      -1.53469753    
   4.56476784       3.05008101     -0.157000005       3223.93726      -1.53469753    
   5.38451099       1.07104599     -0.157000005       3472.81299      -1.54245830    
   4.67581606      0.930077016     -0.246999994       3472.81299      -1.54245830    
   4.40452194       1.82441294     -0.246999994       3472.81299      -1.54245830    
   5.07209921       2.10093188     -0.157000005       3472.81299      -1.54245830    
   5.48999977       0.00000000     -0.157000005       3605.76733      -1.54016709    
   4.76741982       0.00000000     -0.246999994       3605.76733      -1.54016709    
   4.67581606      0.930077016     -0.246999994       3605.76733      -1.54016709    
   5.38451099       1.07104599     -0.157000005       3605.76733      -1.54016709    
   5.38451099      -1.07104599     -0.157000005       3607.46729      -1.54208612    
   4.67581606     -0.930077016     -0.246999994       3607.46729      -1.54208612    
   4.76741982       0.00000000     -0.246999994       3607.46729      -1.54208612    
   5.48999977       0.00000000     -0.157000005       3607.46729      -1.54208612    
   5.07209921      -2.10093188     -0.157000005       3467.76367      -1.54086089    
   4.40452194      -1.82441294     -0.246999994       3467.76367      -1.54086089    
   4.67581606     -0.930077016     -0.246999994       3467.76367      -1.54086089    
   5.38451099      -1.07104599     -0.157000005       3467.76367      -1.54086089    
   4.56476784      -3.05008101     -0.157000005       3194.90405      -1.54144430    
   3.96396494      -2.64863706     -0.246999994       3194.90405      -1.54144430    
   4.40452194      -1.82441294     -0.246999994       3194.90405      -1.54144430    
   5.07209921      -2.10093188     -0.157000005       3194.90405      -1.54144430    
   3.88201594      -3.88201594     -0.157000005       2801.60645      -1.54175186    
   3.37107491      -3.37107491     -0.246999994       2801.60645      -1.54175186    
   3.96396494      -2.64863706     -0.246999994       2801.60645      -1.54175186    
   4.56476784      -3.05008101     -0.157000005       2801.60645      -1.54175186    
   3.05008101      -4.56476784     -0.157000005       2315.75317      -1.53617132    
   2.64863706      -3.96396494     -0.246999994       2315.75317      -1.53617132    
   3.37107491      -3.37107491     -0.246999994       2315.75317      -1.53617132    
   3.88201594      -3.88201594     -0.157000005       2315.75317      -1.53617132    
   2.10093188      -5.07209921     -0.157000005       1709.96667      -1.54247022    
   1.82441294      -4.40452194     -0.246999994       1709.96667      -1.54247022    
   2.64863706      -3.96396494     -0.246999994       1709.96667      -1.54247022    
   3.05008101      -4.56476784     -0.157000005       1709.96667      -1.54247022    
   1.07104599      -5.38451099     -0.157000005       1047.33020      -1.53974700    
  0.930077016      -4.67581606     -0.246999994       1047.33020      -1.53974700    
   1.82441294      -4.40452194     -0.246999994       1047.33020      -1.53974700    
   2.10093188      -5.07209921     -0.157000005       1047.33020      -1.53974700    
   0.00000000      -1.87709999     -0.606999993       13.7897625       1.49699152    
   0.00000000      -1.36500001     -0.606999993       13.7897625       1.49699152    
  0.266297996      -1.33877206     -0.606999993       13.7897625       1.49699152    
  0.366203994      -1.84103203     -0.606999993       13.7897625       1.49699152    
   0.00000000      -1.87709999     -0.606999993       170.715271      -1.56388271    
   0.00000000      -2.59967995     -0.517000020       170.715271      -1.56388271    
 -0.507171988      -2.54972792     -0.517000020       170.715271      -1.56388271    
 -0.366203994      -1.84103203     -0.606999993       170.715271      -1.56388271    
 -0.366203994      -1.84103203     -0.606999993       11.2218227       1.36235154    
 -0.266297996      -1.33877206     -0.606999993       11.2218227       1.36235154    
   0.00000000      -1.36500001     -0.606999993       11.2218227       1.36235154    
   0.00000000      -1.87709999     -0.606999993       11.2218227       1.36235154    
 -0.366203994      -1.84103203     -0.606999993       518.323181      -1.56794655    
 -0.507171988      -2.54972792     -0.517000020       518.323181      -1.56794655    
 -0.994853973      -2.40179110     -0.517000020       518.323181      -1.56794655    
 -0.718334973      -1.73421395     -0.606999993       518.323181      -1.56794655    
 -0.718334973      -1.73421395     -0.606999993       3.05603933      0.104999118    
 -0.522363007      -1.26109600     -0.606999993       3.05603933      0.104999118    
 -0.266297996      -1.33877206     -0.606999993       3.05603933      0.104999118    
 -0.366203994      -1.84103203     -0.606999993       3.05603933      0.104999118    
 -0.718334973      -1.73421395     -0.606999993       853.264648      -1.56906664    
 -0.994853973      -2.40179110     -0.517000020       853.264648      -1.56906664    
  -1.44430494      -2.16155505     -0.517000020       853.264648      -1.56906664    
  -1.04286098      -1.56075203     -0.606999993       853.264648      -1.56906664    
  -1.04286098      -1.56075203     -0.606999993       24.9760170      -1.44219100    
 -0.758352995      -1.13495600     -0.606999993       24.9760170      -1.44219100    
 -0.522363007      -1.26109600     -0.606999993       24.9760170      -1.44219100    
 -0.718334973      -1.73421395     -0.606999993       24.9760170      -1.44219100    
  -1.04286098      -1.56075203     -0.606999993       1164.27588      -1.56969345    
  -1.44430494      -2.16155505     -0.517000020       1164.27588      -1.56969345    
  -1.83825099      -1.83825099     -0.517000020       1164.27588      -1.56969345    
  -1.32730997      -1.32730997     -0.606999993       1164.27588      -1.56969345    
  -1.32730997      -1.32730997     -0.606999993       65.5489197      -1.52511418    
 -0.965201020     -0.965201020     -0.606999993       65.5489197      -1.52511418    
 -0.758352995      -1.13495600     -0.606999993       65.5489197      -1.52511418    
  -1.04286098      -1.56075203     -0.606999993       65.5489197      -1.52511418    
  -1.32730997      -1.32730997     -0.606999993       1437.90027      -1.57000446    
  -1.83825099      -1.83825099     -0.517000020       1437.90027      -1.57000446    
  -2.16155505      -1.44430494     -0.517000020       1437.90027      -1.57000446    
  -1.56075203      -1.04286098     -0.606999993       1437.90027      -1.57000446    
  -1.56075203      -1.04286098     -0.606999993       116.217293      -1.54727840    
  -1.13495600     -0.758352995     -0.606999993       116.217293      -1.54727840    
 -0.965201020     -0.965201020     -0.606999993       116.217293      -1.54727840    
  -1.32730997      -1.32730997     -0.606999993       116.217293      -1.54727840    
  -1.56075203      -1.04286098     -0.606999993       1657.83545      -1.57012320    
  -2.16155505      -1.44430494     -0.517000020       1657.83545      -1.57012320    
  -2.40179110     -0.994853973     -0.517000020       1657.83545      -1.57012320    
  -1.73421395     -0.718334973     -0.606999993       1657.83545      -1.57012320    
  -1.73421395     -0.718334973     -0.606999993       167.734772      -1.55444455    
  -1.26109600     -0.522363007     -0.606999993       167.734772      -1.55444455    
  -1.13495600     -0.758352995     -0.606999993       167.734772      -1.55444455    
  -1.56075203      -1.04286098     -0.606999993       167.734772      -1.55444455    
  -1.73421395     -0.718334973     -0.606999993       1809.35925      -1.57007217    
  -2.40179110     -0.994853973     -0.517000020       1809.35925      -1.57007217    
  -2.54972792     -0.507171988     -0.517000020       1809.35925      -1.57007217    
  -1.84103203     -0.366203994     -0.606999993       1809.35925      -1.57007217    
  -1.84103203     -0.366203994     -0.606999993       206.607330      -1.55511141    
  -1.33877206     -0.266297996     -0.606999993       206.607330      -1.55511141    
  -1.26109600     -0.522363007     -0.606999993       206.607330      -1.55511141    
  -1.73421395     -0.718334973     -0.606999993       206.607330      -1.55511141    
  -1.84103203     -0.366203994     -0.606999993       1884.28882      -1.56990480    
  -2.54972792     -0.507171988     -0.517000020       1884.28882      -1.56990480    
  -2.59967995       0.00000000     -0.517000020       1884.28882      -1.56990480    
  -1.87709999       0.00000000     -0.606999993       1884.28882      -1.56990480    
  -1.87709999       0.00000000     -0.606999993       224.598206      -1.55279171    
  -1.36500001       0.00000000     -0.606999993       224.598206      -1.55279171    
  -1.33877206     -0.266297996     -0.606999993       224.598206      -1.55279171    
  -1.84103203     -0.366203994     -0.606999993       224.598206      -1.55279171    
  -1.87709999       0.00000000     -0.606999993       1881.19727      -1.56964874    
  -2.59967995       0.00000000     -0.517000020       1881.19727      -1.56964874    
  -2.54972792      0.507171988     -0.517000020       1881.19727      -1.56964874    
  -1.84103203      0.366203994     -0.606999993       1881.19727      -1.56964874    
  -1.84103203      0.366203994     -0.606999993       219.625687      -1.54752219    
  -1.33877206      0.266297996     -0.606999993       219.625687      -1.54752219    
  -1.36500001       0.00000000     -0.606999993       219.625687      -1.54752219    
  -1.87709999       0.00000000     -0.606999993       219.625687      -1.54752219    
  -1.84103203      0.366203994     -0.606999993       1801.44714      -1.56932271    
  -2.54972792      0.507171988     -0.517000020       1801.44714      -1.56932271    
  -2.40179110      0.994853973     -0.517000020       1801.44714      -1.56932271    
  -1.73421395      0.718334973     -0.606999993       1801.44714      -1.56932271    
  -1.73421395      0.718334973     -0.606999993       193.697906      -1.53975022    
  -1.26109600      0.522363007     -0.606999993       193.697906      -1.53975022    
  -1.33877206      0.266297996     -0.606999993       193.697906      -1.53975022    
  -1.84103203      0.366203994     -0.606999993       193.697906      -1.53975022    
  -1.73421395      0.718334973     -0.606999993       1648.88708      -1.56902814    
  -2.40179110      0.994853973     -0.517000020       1648.88708      -1.56902814    
  -2.16155505       1.44430494     -0.517000020       1648.88708      -1.56902814    
  -1.56075203       1.04286098     -0.606999993       1648.88708      -1.56902814    
  -1.56075203       1.04286098     -0.606999993       153.063614      -1.52919436    
  -1.13495600      0.758352995     -0.606999993       153.063614      -1.52919436    
  -1.26109600      0.522363007     -0.606999993       153.063614      -1.52919436    
  -1.73421395      0.718334973     -0.606999993       153.063614      -1.52919436    
  -1.56075203       1.04286098     -0.606999993       1431.05151      -1.56885958    
  -2.16155505       1.44430494     -0.517000020       1431.05151      -1.56885958    
  -1.83825099       1.83825099     -0.517000020       1431.05151      -1.56885958    
  -1.32730997       1.32730997     -0.606999993       1431.05151      -1.56885958    
  -1.32730997       1.32730997     -0.606999993       106.504456      -1.51437390    
 -0.965201020      0.965201020     -0.606999993       106.504456      -1.51437390    
  -1.13495600      0.758352995     -0.606999993       106.504456      -1.51437390    
  -1.56075203       1.04286098     -0.606999993       106.504456      -1.51437390    
  -1.32730997       1.32730997     -0.606999993       1161.46838      -1.56888783    
  -1.83825099       1.83825099     -0.517000020       1161.46838      -1.56888783    
  -1.44430494       2.16155505     -0.517000020       1161.46838      -1.56888783    
  -1.04286098       1.56075203     -0.606999993       1161.46838      -1.56888783    
  -1.04286098       1.56075203     -0.606999993       64.5436096      -1.49689376    
 -0.758352995       1.13495600     -0.606999993       64.5436096      -1.49689376    
 -0.965201020      0.965201020     -0.606999993       64.5436096      -1.49689376    
  -1.32730997       1.32730997     -0.606999993       64.5436096      -1.49689376    
  -1.04286098       1.56075203     -0.606999993       855.252991      -1.56922162    
  -1.44430494       2.16155505     -0.517000020       855.252991      -1.56922162    
 -0.994853973       2.40179110     -0.517000020       855.252991      -1.56922162    
 -0.718334973       1.73421395     -0.606999993       855.252991      -1.56922162    
 -0.718334973       1.73421395     -0.606999993       35.1610146      -1.48567998    
 -0.522363007       1.26109600     -0.606999993       35.1610146      -1.48567998    
 -0.758352995       1.13495600     -0.606999993       35.1610146      -1.48567998    
  -1.04286098       1.56075203     -0.606999993       35.1610146      -1.48567998    
 -0.718334973       1.73421395     -0.606999993       524.835693      -1.57010853    
 -0.994853973       2.40179110     -0.517000020       524.835693      -1.57010853    
 -0.507171988       2.54972792     -0.517000020       524.835693      -1.57010853    
 -0.366203994       1.84103203     -0.606999993       524.835693      -1.57010853    
 -0.366203994       1.84103203     -0.606999993       19.2531586      -1.53097486    
 -0.266297996       1.33877206     -0.606999993       19.2531586      -1.53097486    
 -0.522363007       1.26109600     -0.606999993       19.2531586      -1.53097486    
 -0.718334973       1.73421395     -0.606999993       19.2531586      -1.53097486    
 -0.366203994       1.84103203     -0.606999993       179.938354      -1.57385910    
 -0.507171988       2.54972792     -0.517000020       179.938354      -1.57385910    
   0.00000000       2.59967995     -0.517000020       179.938354      -1.57385910    
   0.00000000       1.87709999     -0.606999993       179.938354      -1.57385910    
   0.00000000       1.87709999     -0.606999993       13.8410797      -1.65511060    
   0.00000000       1.36500001     -0.606999993       13.8410797      -1.65511060    
 -0.266297996       1.33877206     -0.606999993       13.8410797      -1.65511060    
 -0.366203994       1.84103203     -0.606999993       13.8410797      -1.65511060    
   0.00000000       1.87709999     -0.606999993       170.825912       1.57778132    
   0.00000000       2.59967995     -0.517000020       170.825912       1.57778132    
  0.507171988       2.54972792     -0.517000020       170.825912       1.57778132    
  0.366203994       1.84103203     -0.606999993       170.825912       1.57778132    
  0.366203994       1.84103203     -0.606999993       10.5769091      -1.81877851    
  0.266297996       1.33877206     -0.606999993       10.5769091      -1.81877851    
   0.00000000       1.36500001     -0.606999993       10.5769091      -1.81877851    
   0.00000000       1.87709999     -0.606999993       10.5769091      -1.81877851    
  0.366203994       1.84103203     -0.606999993       518.487671       1.57359612    
  0.507171988       2.54972792     -0.517000020       518.487671       1.57359612    
  0.994853973       2.40179110     -0.517000020       518.487671       1.57359612    
  0.718334973       1.73421395     -0.606999993       518.487671       1.57359612    
  0.718334973       1.73421395     -0.606999993       3.37114620       2.94383240    
  0.522363007       1.26109600     -0.606999993       3.37114620       2.94383240    
  0.266297996       1.33877206     -0.606999993       3.37114620       2.94383240    
  0.366203994       1.84103203     -0.606999993       3.37114620       2.94383240    
  0.718334973       1.73421395     -0.606999993       853.365845       1.57240868    
  0.994853973       2.40179110     -0.517000020       853.365845       1.57240868    
   1.44430494       2.16155505     -0.517000020       853.365845       1.57240868    
   1.04286098       1.56075203     -0.606999993       853.365845       1.57240868    
   1.04286098       1.56075203     -0.606999993       25.7421074       1.70199323    
  0.758352995       1.13495600     -0.606999993       25.7421074       1.70199323    
  0.522363007       1.26109600     -0.606999993       25.7421074       1.70199323    
  0.718334973       1.73421395     -0.606999993       25.7421074       1.70199323    
   1.04286098       1.56075203     -0.606999993       1164.15857       1.57180715    
   1.44430494       2.16155505     -0.517000020       1164.15857       1.57180715    
   1.83825099       1.83825099     -0.517000020       1164.15857       1.57180715    
   1.32730997       1.32730997     -0.606999993       1164.15857       1.57180715    
   1.32730997       1.32730997     -0.606999993       65.5948715       1.61822927    
  0.965201020      0.965201020     -0.606999993       65.5948715       1.61822927    
  0.758352995       1.13495600     -0.606999993       65.5948715       1.61822927    
   1.04286098       1.56075203     -0.606999993       65.5948715       1.61822927    
   1.32730997       1.32730997     -0.606999993       1437.35730       1.57152271    
   1.83825099       1.83825099     -0.517000020       1437.35730       1.57152271    
   2.16155505       1.44430494     -0.517000020       1437.35730       1.57152271    
   1.56075203       1.04286098     -0.606999993       1437.35730       1.57152271    
   1.56075203       1.04286098     -0.606999993       114.881027       1.59472311    
   1.13495600      0.758352995     -0.606999993       114.881027       1.59472311    
  0.965201020      0.965201020     -0.606999993       114.881027       1.59472311    
   1.32730997       1.32730997     -0.606999993       114.881027       1.59472311    
   1.56075203       1.04286098     -0.606999993       1656.59509       1.57145369    
   2.16155505       1.44430494     -0.517000020       1656.59509       1.57145369    
   2.40179110      0.994853973     -0.517000020       1656.59509       1.57145369    
   1.73421395      0.718334973     -0.606999993       1656.59509       1.57145369    
   1.73421395      0.718334973     -0.606999993       164.910721       1.58768964    
   1.26109600      0.522363007     -0.606999993       164.910721       1.58768964    
   1.13495600      0.758352995     -0.606999993       164.910721       1.58768964    
   1.56075203       1.04286098     -0.606999993       164.910721       1.58768964    
   1.73421395      0.718334973     -0.606999993       1807.84668       1.57149303    
   2.40179110      0.994853973     -0.517000020       1807.84668       1.57149303    
   2.54972792      0.507171988     -0.517000020       1807.84668       1.57149303    
   1.84103203      0.366203994     -0.606999993       1807.84668       1.57149303    
   1.84103203      0.366203994     -0.606999993       204.278534       1.58638227    
   1.33877206      0.266297996     -0.606999993       204.278534       1.58638227    
   1.26109600      0.522363007     -0.606999993       204.278534       1.58638227    
   1.73421395      0.718334973     -0.606999993       204.278534       1.58638227    
   1.84103203      0.366203994     -0.606999993       1883.61487       1.57162774    
   2.54972792      0.507171988     -0.517000020       1883.61487       1.57162774    
   2.59967995       0.00000000     -0.517000020       1883.61487       1.57162774    
   1.87709999       0.00000000     -0.606999993       1883.61487       1.57162774    
   1.87709999       0.00000000     -0.606999993       223.940201       1.58812833    
   1.36500001       0.00000000     -0.606999993       223.940201       1.58812833    
   1.33877206      0.266297996     -0.606999993       223.940201       1.58812833    
   1.84103203      0.366203994     -0.606999993       223.940201       1.58812833    
   1.87709999       0.00000000     -0.606999993       1881.81287       1.57187331    
   2.59967995       0.00000000     -0.517000020       1881.81287       1.57187331    
   2.54972792     -0.507171988     -0.517000020       1881.81287       1.57187331    
   1.84103203     -0.366203994     -0.606999993       1881.81287       1.57187331    
   1.84103203     -0.366203994     -0.606999993       220.586533       1.59317291    
   1.33877206     -0.266297996     -0.606999993       220.586533       1.59317291    
   1.36500001       0.00000000     -0.606999993       220.586533       1.59317291    
   1.87709999       0.00000000     -0.606999993       220.586533       1.59317291    
   1.84103203     -0.366203994     -0.606999993       1802.69849       1.57218540    
   2.54972792     -0.507171988     -0.517000020       1802.69849       1.57218540    
   2.40179110     -0.994853973     -0.517000020       1802.69849       1.57218540    
   1.73421395     -0.718334973     -0.606999993       1802.69849       1.57218540    
   1.73421395     -0.718334973     -0.606999993       195.459137       1.60046995    
   1.26109600     -0.522363007     -0.606999993       195.459137       1.60046995    
   1.33877206     -0.266297996     -0.606999993       195.459137       1.60046995    
   1.84103203     -0.366203994     -0.606999993       195.459137       1.60046995    
   1.73421395     -0.718334973     -0.606999993       1649.45972       1.57246053    
   2.40179110     -0.994853973     -0.517000020       1649.45972       1.57246053    
   2.16155505      -1.44430494     -0.517000020       1649.45972       1.57246053    
   1.56075203      -1.04286098     -0.606999993       1649.45972       1.57246053    
   1.56075203      -1.04286098     -0.606999993       154.235504       1.61057138    
   1.13495600     -0.758352995     -0.606999993       154.235504       1.61057138    
   1.26109600     -0.522363007     -0.606999993       154.235504       1.61057138    