 VARIABLES="X" "Y" "Z" "abs(p) (Pa)" "angle(p) (rad)"
ZONE N=   2709,E =    2358, F=FEPOINT, ET=QUADRILATERAL
   0.00000000      -5.48999977     -0.157000005       5.53601599      -1.50769663    
   0.00000000      -4.76741982     -0.246999994       5.53601599      -1.50769663    
  0.930077016      -4.67581606     -0.246999994       5.53601599      -1.50769663    
   1.07104599      -5.38451099     -0.157000005       5.53601599      -1.50769663    
  -1.07104599      -5.38451099     -0.157000005       5.61803102       1.64465010    
 -0.930077016      -4.67581606     -0.246999994       5.61803102       1.64465010    
   0.00000000      -4.76741982     -0.246999994       5.61803102       1.64465010    
   0.00000000      -5.48999977     -0.157000005       5.61803102       1.64465010    
  -2.10093188      -5.07209921     -0.157000005       16.3271809       1.64385998    
  -1.82441294      -4.40452194     -0.246999994       16.3271809       1.64385998    
 -0.930077016      -4.67581606     -0.246999994       16.3271809       1.64385998    
  -1.07104599      -5.38451099     -0.157000005       16.3271809       1.64385998    
  -3.05008101      -4.56476784     -0.157000005       24.3403645       1.63949227    
  -2.64863706      -3.96396494     -0.246999994       24.3403645       1.63949227    
  -1.82441294      -4.40452194     -0.246999994       24.3403645       1.63949227    
  -2.10093188      -5.07209921     -0.157000005       24.3403645       1.63949227    
  -3.88201594      -3.88201594     -0.157000005       32.8411713       1.62805045    
  -3.37107491      -3.37107491     -0.246999994       32.8411713       1.62805045    
  -2.64863706      -3.96396494     -0.246999994       32.8411713       1.62805045    
  -3.05008101      -4.56476784     -0.157000005       32.8411713       1.62805045    
  -4.56476784      -3.05008101     -0.157000005       41.2496758       1.62513340    
  -3.96396494      -2.64863706     -0.246999994       41.2496758       1.62513340    
  -3.37107491      -3.37107491     -0.246999994       41.2496758       1.62513340    
  -3.88201594      -3.88201594     -0.157000005       41.2496758       1.62513340    
  -5.07209921      -2.10093188     -0.157000005       47.2430305       1.61807370    
  -4.40452194      -1.82441294     -0.246999994       47.2430305       1.61807370    
  -3.96396494      -2.64863706     -0.246999994       47.2430305       1.61807370    
  -4.56476784      -3.05008101     -0.157000005       47.2430305       1.61807370    
  -5.38451099      -1.07104599     -0.157000005       51.2404861       1.62541234    
  -4.67581606     -0.930077016     -0.246999994       51.2404861       1.62541234    
  -4.40452194      -1.82441294     -0.246999994       51.2404861       1.62541234    
  -5.07209921      -2.10093188     -0.157000005       51.2404861       1.62541234    
  -5.48999977       0.00000000     -0.157000005       52.1767197       1.64001870    
  -4.76741982       0.00000000     -0.246999994       52.1767197       1.64001870    
  -4.67581606     -0.930077016     -0.246999994       52.1767197       1.64001870    
  -5.38451099      -1.07104599     -0.157000005       52.1767197       1.64001870    
  -5.38451099       1.07104599     -0.157000005       52.2632065       1.63840234    
  -4.67581606      0.930077016     -0.246999994       52.2632065       1.63840234    
  -4.76741982       0.00000000     -0.246999994       52.2632065       1.63840234    
  -5.48999977       0.00000000     -0.157000005       52.2632065       1.63840234    
  -5.07209921       2.10093188     -0.157000005       51.9664192       1.62865245    
  -4.40452194       1.82441294     -0.246999994       51.9664192       1.62865245    
  -4.67581606      0.930077016     -0.246999994       51.9664192       1.62865245    
  -5.38451099       1.07104599     -0.157000005       51.9664192       1.62865245    
  -4.56476784       3.05008101     -0.157000005       48.0628471       1.62080872    
  -3.96396494       2.64863706     -0.246999994       48.0628471       1.62080872    
  -4.40452194       1.82441294     -0.246999994       48.0628471       1.62080872    
  -5.07209921       2.10093188     -0.157000005       48.0628471       1.62080872    
  -3.88201594       3.88201594     -0.157000005       41.3357506       1.61675715    
  -3.37107491       3.37107491     -0.246999994       41.3357506       1.61675715    
  -3.96396494       2.64863706     -0.246999994       41.3357506       1.61675715    
  -4.56476784       3.05008101     -0.157000005       41.3357506       1.61675715    
  -3.05008101       4.56476784     -0.157000005       33.3927879       1.63382757    
  -2.64863706       3.96396494     -0.246999994       33.3927879       1.63382757    
  -3.37107491       3.37107491     -0.246999994       33.3927879       1.63382757    
  -3.88201594       3.88201594     -0.157000005       33.3927879       1.63382757    
  -2.10093188       5.07209921     -0.157000005       24.4189663       1.63532960    
  -1.82441294       4.40452194     -0.246999994       24.4189663       1.63532960    
  -2.64863706       3.96396494     -0.246999994       24.4189663       1.63532960    
  -3.05008101       4.56476784     -0.157000005       24.4189663       1.63532960    
  -1.07104599       5.38451099     -0.157000005       16.1435452       1.63645363    
 -0.930077016       4.67581606     -0.246999994       16.1435452       1.63645363    
  -1.82441294       4.40452194     -0.246999994       16.1435452       1.63645363    
  -2.10093188       5.07209921     -0.157000005       16.1435452       1.63645363    
   0.00000000       5.48999977     -0.157000005       5.58885098       1.62998819    
   0.00000000       4.76741982     -0.246999994       5.58885098       1.62998819    
 -0.930077016       4.67581606     -0.246999994       5.58885098       1.62998819    
  -1.07104599       5.38451099     -0.157000005       5.58885098       1.62998819    
   1.07104599       5.38451099     -0.157000005       5.77897072      -1.49657404    
  0.930077016       4.67581606     -0.246999994       5.77897072      -1.49657404    
   0.00000000       4.76741982     -0.246999994       5.77897072      -1.49657404    
   0.00000000       5.48999977     -0.157000005       5.77897072      -1.49657404    
   2.10093188       5.07209921     -0.157000005       16.1642151      -1.50321341    
   1.82441294       4.40452194     -0.246999994       16.1642151      -1.50321341    
  0.930077016       4.67581606     -0.246999994       16.1642151      -1.50321341    
   1.07104599       5.38451099     -0.157000005       16.1642151      -1.50321341    
   3.05008101       4.56476784     -0.157000005       24.4633217      -1.50368094    
   2.64863706       3.96396494     -0.246999994       24.4633217      -1.50368094    
   1.82441294       4.40452194     -0.246999994       24.4633217      -1.50368094    
   2.10093188       5.07209921     -0.157000005       24.4633217      -1.50368094    
   3.88201594       3.88201594     -0.157000005       33.5228691      -1.50821185    
   3.37107491       3.37107491     -0.246999994       33.5228691      -1.50821185    
   2.64863706       3.96396494     -0.246999994       33.5228691      -1.50821185    
   3.05008101       4.56476784     -0.157000005       33.5228691      -1.50821185    
   4.56476784       3.05008101     -0.157000005       41.7673912      -1.51808000    
   3.96396494       2.64863706     -0.246999994       41.7673912      -1.51808000    
   3.37107491       3.37107491     -0.246999994       41.7673912      -1.51808000    
   3.88201594       3.88201594     -0.157000005       41.7673912      -1.51808000    
   5.07209921       2.10093188     -0.157000005       48.2020378      -1.52148426    
   4.40452194       1.82441294     -0.246999994       48.2020378      -1.52148426    
   3.96396494       2.64863706     -0.246999994       48.2020378      -1.52148426    
   4.56476784       3.05008101     -0.157000005       48.2020378      -1.52148426    
   5.38451099       1.07104599     -0.157000005       51.6471748      -1.51458752    
   4.67581606      0.930077016     -0.246999994       51.6471748      -1.51458752    
   4.40452194       1.82441294     -0.246999994       51.6471748      -1.51458752    
   5.07209921       2.10093188     -0.157000005       51.6471748      -1.51458752    
   5.48999977       0.00000000     -0.157000005       51.9418373      -1.50570691    
   4.76741982       0.00000000     -0.246999994       51.9418373      -1.50570691    
   4.67581606      0.930077016     -0.246999994       51.9418373      -1.50570691    
   5.38451099       1.07104599     -0.157000005       51.9418373      -1.50570691    
   5.38451099      -1.07104599     -0.157000005       51.7679710      -1.50631273    
   4.67581606     -0.930077016     -0.246999994       51.7679710      -1.50631273    
   4.76741982       0.00000000     -0.246999994       51.7679710      -1.50631273    
   5.48999977       0.00000000     -0.157000005       51.7679710      -1.50631273    
   5.07209921      -2.10093188     -0.157000005       51.2633438      -1.51605129    
   4.40452194      -1.82441294     -0.246999994       51.2633438      -1.51605129    
   4.67581606     -0.930077016     -0.246999994       51.2633438      -1.51605129    
   5.38451099      -1.07104599     -0.157000005       51.2633438      -1.51605129    
   4.56476784      -3.05008101     -0.157000005       47.1795311      -1.52340209    
   3.96396494      -2.64863706     -0.246999994       47.1795311      -1.52340209    
   4.40452194      -1.82441294     -0.246999994       47.1795311      -1.52340209    
   5.07209921      -2.10093188     -0.157000005       47.1795311      -1.52340209    
   3.88201594      -3.88201594     -0.157000005       40.8251381      -1.52239037    
   3.37107491      -3.37107491     -0.246999994       40.8251381      -1.52239037    
   3.96396494      -2.64863706     -0.246999994       40.8251381      -1.52239037    
   4.56476784      -3.05008101     -0.157000005       40.8251381      -1.52239037    
   3.05008101      -4.56476784     -0.157000005       33.0430298      -1.50861943    
   2.64863706      -3.96396494     -0.246999994       33.0430298      -1.50861943    
   3.37107491      -3.37107491     -0.246999994       33.0430298      -1.50861943    
   3.88201594      -3.88201594     -0.157000005       33.0430298      -1.50861943    
   2.10093188      -5.07209921     -0.157000005       24.2778931      -1.50678360    
   1.82441294      -4.40452194     -0.246999994       24.2778931      -1.50678360    
   2.64863706      -3.96396494     -0.246999994       24.2778931      -1.50678360    
   3.05008101      -4.56476784     -0.157000005       24.2778931      -1.50678360    
   1.07104599      -5.38451099     -0.157000005       16.0633221      -1.50480592    
  0.930077016      -4.67581606     -0.246999994       16.0633221      -1.50480592    
   1.82441294      -4.40452194     -0.246999994       16.0633221      -1.50480592    
   2.10093188      -5.07209921     -0.157000005       16.0633221      -1.50480592    
   0.00000000      -1.87709999     -0.606999993       88.7603149      -1.56109905    
   0.00000000      -1.36500001     -0.606999993       88.7603149      -1.56109905    
  0.266297996      -1.33877206     -0.606999993       88.7603149      -1.56109905    
  0.366203994      -1.84103203     -0.606999993       88.7603149      -1.56109905    
   0.00000000      -1.87709999     -0.606999993       59.8420792      -1.56254506    
   0.00000000      -2.59967995     -0.517000020       59.8420792      -1.56254506    
 -0.507171988      -2.54972792     -0.517000020       59.8420792      -1.56254506    
 -0.366203994      -1.84103203     -0.606999993       59.8420792      -1.56254506    
 -0.366203994      -1.84103203     -0.606999993       131.511917       1.57774591    
 -0.266297996      -1.33877206     -0.606999993       131.511917       1.57774591    
   0.00000000      -1.36500001     -0.606999993       131.511917       1.57774591    
   0.00000000      -1.87709999     -0.606999993       131.511917       1.57774591    
 -0.366203994      -1.84103203     -0.606999993       186.185104      -1.56290197    
 -0.507171988      -2.54972792     -0.517000020       186.185104      -1.56290197    
 -0.994853973      -2.40179110     -0.517000020       186.185104      -1.56290197    
 -0.718334973      -1.73421395     -0.606999993       186.185104      -1.56290197    
 -0.718334973      -1.73421395     -0.606999993       343.943481       1.57713938    
 -0.522363007      -1.26109600     -0.606999993       343.943481       1.57713938    
 -0.266297996      -1.33877206     -0.606999993       343.943481       1.57713938    
 -0.366203994      -1.84103203     -0.606999993       343.943481       1.57713938    
 -0.718334973      -1.73421395     -0.606999993       292.986786      -1.56362116    
 -0.994853973      -2.40179110     -0.517000020       292.986786      -1.56362116    
  -1.44430494      -2.16155505     -0.517000020       292.986786      -1.56362116    
  -1.04286098      -1.56075203     -0.606999993       292.986786      -1.56362116    
  -1.04286098      -1.56075203     -0.606999993       538.628235       1.57557237    
 -0.758352995      -1.13495600     -0.606999993       538.628235       1.57557237    
 -0.522363007      -1.26109600     -0.606999993       538.628235       1.57557237    
 -0.718334973      -1.73421395     -0.606999993       538.628235       1.57557237    
  -1.04286098      -1.56075203     -0.606999993       376.383240      -1.56538439    
  -1.44430494      -2.16155505     -0.517000020       376.383240      -1.56538439    
  -1.83825099      -1.83825099     -0.517000020       376.383240      -1.56538439    
  -1.32730997      -1.32730997     -0.606999993       376.383240      -1.56538439    
  -1.32730997      -1.32730997     -0.606999993       711.766907       1.57455564    
 -0.965201020     -0.965201020     -0.606999993       711.766907       1.57455564    
 -0.758352995      -1.13495600     -0.606999993       711.766907       1.57455564    
  -1.04286098      -1.56075203     -0.606999993       711.766907       1.57455564    
  -1.32730997      -1.32730997     -0.606999993       446.135620      -1.56730843    
  -1.83825099      -1.83825099     -0.517000020       446.135620      -1.56730843    
  -2.16155505      -1.44430494     -0.517000020       446.135620      -1.56730843    
  -1.56075203      -1.04286098     -0.606999993       446.135620      -1.56730843    
  -1.56075203      -1.04286098     -0.606999993       860.554871       1.57451260    
  -1.13495600     -0.758352995     -0.606999993       860.554871       1.57451260    
 -0.965201020     -0.965201020     -0.606999993       860.554871       1.57451260    
  -1.32730997      -1.32730997     -0.606999993       860.554871       1.57451260    
  -1.56075203      -1.04286098     -0.606999993       507.160339      -1.56768334    
  -2.16155505      -1.44430494     -0.517000020       507.160339      -1.56768334    
  -2.40179110     -0.994853973     -0.517000020       507.160339      -1.56768334    
  -1.73421395     -0.718334973     -0.606999993       507.160339      -1.56768334    
  -1.73421395     -0.718334973     -0.606999993       982.667175       1.57499492    
  -1.26109600     -0.522363007     -0.606999993       982.667175       1.57499492    
  -1.13495600     -0.758352995     -0.606999993       982.667175       1.57499492    
  -1.56075203      -1.04286098     -0.606999993       982.667175       1.57499492    
  -1.73421395     -0.718334973     -0.606999993       557.286011      -1.56617999    
  -2.40179110     -0.994853973     -0.517000020       557.286011      -1.56617999    
  -2.54972792     -0.507171988     -0.517000020       557.286011      -1.56617999    
  -1.84103203     -0.366203994     -0.606999993       557.286011      -1.56617999    
  -1.84103203     -0.366203994     -0.606999993       1071.50195       1.57539606    
  -1.33877206     -0.266297996     -0.606999993       1071.50195       1.57539606    
  -1.26109600     -0.522363007     -0.606999993       1071.50195       1.57539606    
  -1.73421395     -0.718334973     -0.606999993       1071.50195       1.57539606    
  -1.84103203     -0.366203994     -0.606999993       586.410156      -1.56443548    
  -2.54972792     -0.507171988     -0.517000020       586.410156      -1.56443548    
  -2.59967995       0.00000000     -0.517000020       586.410156      -1.56443548    
  -1.87709999       0.00000000     -0.606999993       586.410156      -1.56443548    
  -1.87709999       0.00000000     -0.606999993       1119.39258       1.57552278    
  -1.36500001       0.00000000     -0.606999993       1119.39258       1.57552278    
  -1.33877206     -0.266297996     -0.606999993       1119.39258       1.57552278    
  -1.84103203     -0.366203994     -0.606999993       1119.39258       1.57552278    
  -1.87709999       0.00000000     -0.606999993       586.535950      -1.56432939    
  -2.59967995       0.00000000     -0.517000020       586.535950      -1.56432939    
  -2.54972792      0.507171988     -0.517000020       586.535950      -1.56432939    
  -1.84103203      0.366203994     -0.606999993       586.535950      -1.56432939    
  -1.84103203      0.366203994     -0.606999993       1120.04846       1.57550418    
  -1.33877206      0.266297996     -0.606999993       1120.04846       1.57550418    
  -1.36500001       0.00000000     -0.606999993       1120.04846       1.57550418    
  -1.87709999       0.00000000     -0.606999993       1120.04846       1.57550418    
  -1.84103203      0.366203994     -0.606999993       557.126831      -1.56600845    
  -2.54972792      0.507171988     -0.517000020       557.126831      -1.56600845    
  -2.40179110      0.994853973     -0.517000020       557.126831      -1.56600845    
  -1.73421395      0.718334973     -0.606999993       557.126831      -1.56600845    
  -1.73421395      0.718334973     -0.606999993       1072.21399       1.57537413    
  -1.26109600      0.522363007     -0.606999993       1072.21399       1.57537413    
  -1.33877206      0.266297996     -0.606999993       1072.21399       1.57537413    
  -1.84103203      0.366203994     -0.606999993       1072.21399       1.57537413    
  -1.73421395      0.718334973     -0.606999993       505.812927      -1.56767428    
  -2.40179110      0.994853973     -0.517000020       505.812927      -1.56767428    
  -2.16155505       1.44430494     -0.517000020       505.812927      -1.56767428    
  -1.56075203       1.04286098     -0.606999993       505.812927      -1.56767428    
  -1.56075203       1.04286098     -0.606999993       980.533020       1.57502210    
  -1.13495600      0.758352995     -0.606999993       980.533020       1.57502210    
  -1.26109600      0.522363007     -0.606999993       980.533020       1.57502210    
  -1.73421395      0.718334973     -0.606999993       980.533020       1.57502210    
  -1.56075203       1.04286098     -0.606999993       442.714172      -1.56746125    
  -2.16155505       1.44430494     -0.517000020       442.714172      -1.56746125    
  -1.83825099       1.83825099     -0.517000020       442.714172      -1.56746125    
  -1.32730997       1.32730997     -0.606999993       442.714172      -1.56746125    
  -1.32730997       1.32730997     -0.606999993       852.406860       1.57458985    
 -0.965201020      0.965201020     -0.606999993       852.406860       1.57458985    
  -1.13495600      0.758352995     -0.606999993       852.406860       1.57458985    
  -1.56075203       1.04286098     -0.606999993       852.406860       1.57458985    
  -1.32730997       1.32730997     -0.606999993       371.226562      -1.56559134    
  -1.83825099       1.83825099     -0.517000020       371.226562      -1.56559134    
  -1.44430494       2.16155505     -0.517000020       371.226562      -1.56559134    
  -1.04286098       1.56075203     -0.606999993       371.226562      -1.56559134    
  -1.04286098       1.56075203     -0.606999993       695.500122       1.57465637    
 -0.758352995       1.13495600     -0.606999993       695.500122       1.57465637    
 -0.965201020      0.965201020     -0.606999993       695.500122       1.57465637    
  -1.32730997       1.32730997     -0.606999993       695.500122       1.57465637    
  -1.04286098       1.56075203     -0.606999993       288.864197      -1.56400275    
  -1.44430494       2.16155505     -0.517000020       288.864197      -1.56400275    
 -0.994853973       2.40179110     -0.517000020       288.864197      -1.56400275    
 -0.718334973       1.73421395     -0.606999993       288.864197      -1.56400275    
 -0.718334973       1.73421395     -0.606999993       513.712891       1.57575488    
 -0.522363007       1.26109600     -0.606999993       513.712891       1.57575488    
 -0.758352995       1.13495600     -0.606999993       513.712891       1.57575488    
  -1.04286098       1.56075203     -0.606999993       513.712891       1.57575488    
 -0.718334973       1.73421395     -0.606999993       187.072632      -1.56375945    
 -0.994853973       2.40179110     -0.517000020       187.072632      -1.56375945    
 -0.507171988       2.54972792     -0.517000020       187.072632      -1.56375945    
 -0.366203994       1.84103203     -0.606999993       187.072632      -1.56375945    
 -0.366203994       1.84103203     -0.606999993       311.427124       1.57767403    
 -0.266297996       1.33877206     -0.606999993       311.427124       1.57767403    
 -0.522363007       1.26109600     -0.606999993       311.427124       1.57767403    
 -0.718334973       1.73421395     -0.606999993       311.427124       1.57767403    
 -0.366203994       1.84103203     -0.606999993       68.3020706      -1.56446004    
 -0.507171988       2.54972792     -0.517000020       68.3020706      -1.56446004    
   0.00000000       2.59967995     -0.517000020       68.3020706      -1.56446004    
   0.00000000       1.87709999     -0.606999993       68.3020706      -1.56446004    
   0.00000000       1.87709999     -0.606999993       93.6861954       1.58017826    
   0.00000000       1.36500001     -0.606999993       93.6861954       1.58017826    
 -0.266297996       1.33877206     -0.606999993       93.6861954       1.58017826    
 -0.366203994       1.84103203     -0.606999993       93.6861954       1.58017826    
   0.00000000       1.87709999     -0.606999993       59.4082146       1.57818127    
   0.00000000       2.59967995     -0.517000020       59.4082146       1.57818127    
  0.507171988       2.54972792     -0.517000020       59.4082146       1.57818127    
  0.366203994       1.84103203     -0.606999993       59.4082146       1.57818127    
  0.366203994       1.84103203     -0.606999993       128.778870      -1.56414449    
  0.266297996       1.33877206     -0.606999993       128.778870      -1.56414449    
   0.00000000       1.36500001     -0.606999993       128.778870      -1.56414449    
   0.00000000       1.87709999     -0.606999993       128.778870      -1.56414449    
  0.366203994       1.84103203     -0.606999993       178.757217       1.57829666    
  0.507171988       2.54972792     -0.517000020       178.757217       1.57829666    
  0.994853973       2.40179110     -0.517000020       178.757217       1.57829666    
  0.718334973       1.73421395     -0.606999993       178.757217       1.57829666    
  0.718334973       1.73421395     -0.606999993       344.805878      -1.56472087    
  0.522363007       1.26109600     -0.606999993       344.805878      -1.56472087    
  0.266297996       1.33877206     -0.606999993       344.805878      -1.56472087    
  0.366203994       1.84103203     -0.606999993       344.805878      -1.56472087    
  0.718334973       1.73421395     -0.606999993       281.463837       1.57791781    
  0.994853973       2.40179110     -0.517000020       281.463837       1.57791781    
   1.44430494       2.16155505     -0.517000020       281.463837       1.57791781    
   1.04286098       1.56075203     -0.606999993       281.463837       1.57791781    
   1.04286098       1.56075203     -0.606999993       544.072144      -1.56623876    
  0.758352995       1.13495600     -0.606999993       544.072144      -1.56623876    
  0.522363007       1.26109600     -0.606999993       544.072144      -1.56623876    
  0.718334973       1.73421395     -0.606999993       544.072144      -1.56623876    
   1.04286098       1.56075203     -0.606999993       364.770569       1.57618809    
   1.44430494       2.16155505     -0.517000020       364.770569       1.57618809    
   1.83825099       1.83825099     -0.517000020       364.770569       1.57618809    
   1.32730997       1.32730997     -0.606999993       364.770569       1.57618809    
   1.32730997       1.32730997     -0.606999993       721.963501      -1.56715775    
  0.965201020      0.965201020     -0.606999993       721.963501      -1.56715775    
  0.758352995       1.13495600     -0.606999993       721.963501      -1.56715775    
   1.04286098       1.56075203     -0.606999993       721.963501      -1.56715775    
   1.32730997       1.32730997     -0.606999993       437.235962       1.57417154    
   1.83825099       1.83825099     -0.517000020       437.235962       1.57417154    
   2.16155505       1.44430494     -0.517000020       437.235962       1.57417154    
   1.56075203       1.04286098     -0.606999993       437.235962       1.57417154    
   1.56075203       1.04286098     -0.606999993       874.388428      -1.56711853    
   1.13495600      0.758352995     -0.606999993       874.388428      -1.56711853    
  0.965201020      0.965201020     -0.606999993       874.388428      -1.56711853    
   1.32730997       1.32730997     -0.606999993       874.388428      -1.56711853    
   1.56075203       1.04286098     -0.606999993       501.481110       1.57386327    
   2.16155505       1.44430494     -0.517000020       501.481110       1.57386327    
   2.40179110      0.994853973     -0.517000020       501.481110       1.57386327    
   1.73421395      0.718334973     -0.606999993       501.481110       1.57386327    
   1.73421395      0.718334973     -0.606999993       997.344849      -1.56661820    
   1.26109600      0.522363007     -0.606999993       997.344849      -1.56661820    
   1.13495600      0.758352995     -0.606999993       997.344849      -1.56661820    
   1.56075203       1.04286098     -0.606999993       997.344849      -1.56661820    
   1.73421395      0.718334973     -0.606999993       554.073853       1.57550347    
   2.40179110      0.994853973     -0.517000020       554.073853       1.57550347    
   2.54972792      0.507171988     -0.517000020       554.073853       1.57550347    
   1.84103203      0.366203994     -0.606999993       554.073853       1.57550347    
   1.84103203      0.366203994     -0.606999993       1083.58948      -1.56623197    
   1.33877206      0.266297996     -0.606999993       1083.58948      -1.56623197    
   1.26109600      0.522363007     -0.606999993       1083.58948      -1.56623197    
   1.73421395      0.718334973     -0.606999993       1083.58948      -1.56623197    
   1.84103203      0.366203994     -0.606999993       584.631226       1.57720697    
   2.54972792      0.507171988     -0.517000020       584.631226       1.57720697    
   2.59967995       0.00000000     -0.517000020       584.631226       1.57720697    
   1.87709999       0.00000000     -0.606999993       584.631226       1.57720697    
   1.87709999       0.00000000     -0.606999993       1126.01807      -1.56609619    
   1.36500001       0.00000000     -0.606999993       1126.01807      -1.56609619    
   1.33877206      0.266297996     -0.606999993       1126.01807      -1.56609619    
   1.84103203      0.366203994     -0.606999993       1126.01807      -1.56609619    
   1.87709999       0.00000000     -0.606999993       585.312744       1.57714844    
   2.59967995       0.00000000     -0.517000020       585.312744       1.57714844    
   2.54972792     -0.507171988     -0.517000020       585.312744       1.57714844    
   1.84103203     -0.366203994     -0.606999993       585.312744       1.57714844    
   1.84103203     -0.366203994     -0.606999993       1120.18237      -1.56608474    
   1.33877206     -0.266297996     -0.606999993       1120.18237      -1.56608474    
   1.36500001       0.00000000     -0.606999993       1120.18237      -1.56608474    
   1.87709999       0.00000000     -0.606999993       1120.18237      -1.56608474    
   1.84103203     -0.366203994     -0.606999993       556.653931       1.57544219    
   2.54972792     -0.507171988     -0.517000020       556.653931       1.57544219    
   2.40179110     -0.994853973     -0.517000020       556.653931       1.57544219    
   1.73421395     -0.718334973     -0.606999993       556.653931       1.57544219    
   1.73421395     -0.718334973     -0.606999993       1067.42700      -1.56620669    
   1.26109600     -0.522363007     -0.606999993       1067.42700      -1.56620669    
   1.33877206     -0.266297996     -0.606999993       1067.42700      -1.56620669    
   1.84103203     -0.366203994     -0.606999993       1067.42700      -1.56620669    
   1.73421395     -0.718334973     -0.606999993       507.134125       1.57393479    
   2.40179110     -0.994853973     -0.517000020       507.134125       1.57393479    
   2.16155505      -1.44430494     -0.517000020       507.134125       1.57393479    
   1.56075203      -1.04286098     -0.606999993       507.134125       1.57393479    
   1.56075203      -1.04286098     -0.606999993       973.669250      -1.56656992    
   1.13495600     -0.758352995     -0.606999993       973.669250      -1.56656992    
   1.26109600     -0.522363007     -0.606999993       973.669250      -1.56656992    