 VARIABLES="X" "Y" "Z" "abs(p) (Pa)" "angle(p) (rad)"
ZONE N=   2709,E =    2358, F=FEPOINT, ET=QUADRILATERAL
   0.00000000      -5.48999977     -0.157000005       4223.32861      -1.56755412    
   0.00000000      -4.76741982     -0.246999994       4223.32861      -1.56755412    
  0.930077016      -4.67581606     -0.246999994       4223.32861      -1.56755412    
   1.07104599      -5.38451099     -0.157000005       4223.32861      -1.56755412    
  -1.07104599      -5.38451099     -0.157000005       4222.39111      -1.56778145    
 -0.930077016      -4.67581606     -0.246999994       4222.39111      -1.56778145    
   0.00000000      -4.76741982     -0.246999994       4222.39111      -1.56778145    
   0.00000000      -5.48999977     -0.157000005       4222.39111      -1.56778145    
  -2.10093188      -5.07209921     -0.157000005       4107.98145      -1.56211543    
  -1.82441294      -4.40452194     -0.246999994       4107.98145      -1.56211543    
 -0.930077016      -4.67581606     -0.246999994       4107.98145      -1.56211543    
  -1.07104599      -5.38451099     -0.157000005       4107.98145      -1.56211543    
  -3.05008101      -4.56476784     -0.157000005       3743.41919      -1.56768596    
  -2.64863706      -3.96396494     -0.246999994       3743.41919      -1.56768596    
  -1.82441294      -4.40452194     -0.246999994       3743.41919      -1.56768596    
  -2.10093188      -5.07209921     -0.157000005       3743.41919      -1.56768596    
  -3.88201594      -3.88201594     -0.157000005       3280.68262      -1.56712365    
  -3.37107491      -3.37107491     -0.246999994       3280.68262      -1.56712365    
  -2.64863706      -3.96396494     -0.246999994       3280.68262      -1.56712365    
  -3.05008101      -4.56476784     -0.157000005       3280.68262      -1.56712365    
  -4.56476784      -3.05008101     -0.157000005       2720.24731      -1.56412530    
  -3.96396494      -2.64863706     -0.246999994       2720.24731      -1.56412530    
  -3.37107491      -3.37107491     -0.246999994       2720.24731      -1.56412530    
  -3.88201594      -3.88201594     -0.157000005       2720.24731      -1.56412530    
  -5.07209921      -2.10093188     -0.157000005       1999.42310      -1.56790960    
  -4.40452194      -1.82441294     -0.246999994       1999.42310      -1.56790960    
  -3.96396494      -2.64863706     -0.246999994       1999.42310      -1.56790960    
  -4.56476784      -3.05008101     -0.157000005       1999.42310      -1.56790960    
  -5.38451099      -1.07104599     -0.157000005       1229.92493      -1.56712389    
  -4.67581606     -0.930077016     -0.246999994       1229.92493      -1.56712389    
  -4.40452194      -1.82441294     -0.246999994       1229.92493      -1.56712389    
  -5.07209921      -2.10093188     -0.157000005       1229.92493      -1.56712389    
  -5.48999977       0.00000000     -0.157000005       414.273438      -1.56691968    
  -4.76741982       0.00000000     -0.246999994       414.273438      -1.56691968    
  -4.67581606     -0.930077016     -0.246999994       414.273438      -1.56691968    
  -5.38451099      -1.07104599     -0.157000005       414.273438      -1.56691968    
  -5.38451099       1.07104599     -0.157000005       423.474731       1.57874095    
  -4.67581606      0.930077016     -0.246999994       423.474731       1.57874095    
  -4.76741982       0.00000000     -0.246999994       423.474731       1.57874095    
  -5.48999977       0.00000000     -0.157000005       423.474731       1.57874095    
  -5.07209921       2.10093188     -0.157000005       1252.31812       1.58023596    
  -4.40452194       1.82441294     -0.246999994       1252.31812       1.58023596    
  -4.67581606      0.930077016     -0.246999994       1252.31812       1.58023596    
  -5.38451099       1.07104599     -0.157000005       1252.31812       1.58023596    
  -4.56476784       3.05008101     -0.157000005       2029.41431       1.57922685    
  -3.96396494       2.64863706     -0.246999994       2029.41431       1.57922685    
  -4.40452194       1.82441294     -0.246999994       2029.41431       1.57922685    
  -5.07209921       2.10093188     -0.157000005       2029.41431       1.57922685    
  -3.88201594       3.88201594     -0.157000005       2695.42944       1.57450163    
  -3.37107491       3.37107491     -0.246999994       2695.42944       1.57450163    
  -3.96396494       2.64863706     -0.246999994       2695.42944       1.57450163    
  -4.56476784       3.05008101     -0.157000005       2695.42944       1.57450163    
  -3.05008101       4.56476784     -0.157000005       3325.15479       1.57919323    
  -2.64863706       3.96396494     -0.246999994       3325.15479       1.57919323    
  -3.37107491       3.37107491     -0.246999994       3325.15479       1.57919323    
  -3.88201594       3.88201594     -0.157000005       3325.15479       1.57919323    
  -2.10093188       5.07209921     -0.157000005       3744.66992       1.57423246    
  -1.82441294       4.40452194     -0.246999994       3744.66992       1.57423246    
  -2.64863706       3.96396494     -0.246999994       3744.66992       1.57423246    
  -3.05008101       4.56476784     -0.157000005       3744.66992       1.57423246    
  -1.07104599       5.38451099     -0.157000005       4113.45996       1.57945979    
 -0.930077016       4.67581606     -0.246999994       4113.45996       1.57945979    
  -1.82441294       4.40452194     -0.246999994       4113.45996       1.57945979    
  -2.10093188       5.07209921     -0.157000005       4113.45996       1.57945979    
   0.00000000       5.48999977     -0.157000005       4226.48291       1.57408249    
   0.00000000       4.76741982     -0.246999994       4226.48291       1.57408249    
 -0.930077016       4.67581606     -0.246999994       4226.48291       1.57408249    
  -1.07104599       5.38451099     -0.157000005       4226.48291       1.57408249    
   1.07104599       5.38451099     -0.157000005       4272.41553       1.57930565    
  0.930077016       4.67581606     -0.246999994       4272.41553       1.57930565    
   0.00000000       4.76741982     -0.246999994       4272.41553       1.57930565    
   0.00000000       5.48999977     -0.157000005       4272.41553       1.57930565    
   2.10093188       5.07209921     -0.157000005       4064.60693       1.57444263    
   1.82441294       4.40452194     -0.246999994       4064.60693       1.57444263    
  0.930077016       4.67581606     -0.246999994       4064.60693       1.57444263    
   1.07104599       5.38451099     -0.157000005       4064.60693       1.57444263    
   3.05008101       4.56476784     -0.157000005       3741.46411       1.57371581    
   2.64863706       3.96396494     -0.246999994       3741.46411       1.57371581    
   1.82441294       4.40452194     -0.246999994       3741.46411       1.57371581    
   2.10093188       5.07209921     -0.157000005       3741.46411       1.57371581    
   3.88201594       3.88201594     -0.157000005       3317.60645       1.57990038    
   3.37107491       3.37107491     -0.246999994       3317.60645       1.57990038    
   2.64863706       3.96396494     -0.246999994       3317.60645       1.57990038    
   3.05008101       4.56476784     -0.157000005       3317.60645       1.57990038    
   4.56476784       3.05008101     -0.157000005       2706.70703       1.57435167    
   3.96396494       2.64863706     -0.246999994       2706.70703       1.57435167    
   3.37107491       3.37107491     -0.246999994       2706.70703       1.57435167    
   3.88201594       3.88201594     -0.157000005       2706.70703       1.57435167    
   5.07209921       2.10093188     -0.157000005       2020.67310       1.57912362    
   4.40452194       1.82441294     -0.246999994       2020.67310       1.57912362    
   3.96396494       2.64863706     -0.246999994       2020.67310       1.57912362    
   4.56476784       3.05008101     -0.157000005       2020.67310       1.57912362    
   5.38451099       1.07104599     -0.157000005       1230.25977       1.57461476    
   4.67581606      0.930077016     -0.246999994       1230.25977       1.57461476    
   4.40452194       1.82441294     -0.246999994       1230.25977       1.57461476    
   5.07209921       2.10093188     -0.157000005       1230.25977       1.57461476    
   5.48999977       0.00000000     -0.157000005       414.066711       1.57043505    
   4.76741982       0.00000000     -0.246999994       414.066711       1.57043505    
   4.67581606      0.930077016     -0.246999994       414.066711       1.57043505    
   5.38451099       1.07104599     -0.157000005       414.066711       1.57043505    
   5.38451099      -1.07104599     -0.157000005       418.253784      -1.57144177    
   4.67581606     -0.930077016     -0.246999994       418.253784      -1.57144177    
   4.76741982       0.00000000     -0.246999994       418.253784      -1.57144177    
   5.48999977       0.00000000     -0.157000005       418.253784      -1.57144177    
   5.07209921      -2.10093188     -0.157000005       1233.96497      -1.56619084    
   4.40452194      -1.82441294     -0.246999994       1233.96497      -1.56619084    
   4.67581606     -0.930077016     -0.246999994       1233.96497      -1.56619084    
   5.38451099      -1.07104599     -0.157000005       1233.96497      -1.56619084    
   4.56476784      -3.05008101     -0.157000005       2002.84656      -1.56766772    
   3.96396494      -2.64863706     -0.246999994       2002.84656      -1.56766772    
   4.40452194      -1.82441294     -0.246999994       2002.84656      -1.56766772    
   5.07209921      -2.10093188     -0.157000005       2002.84656      -1.56766772    
   3.88201594      -3.88201594     -0.157000005       2693.90576      -1.56774068    
   3.37107491      -3.37107491     -0.246999994       2693.90576      -1.56774068    
   3.96396494      -2.64863706     -0.246999994       2693.90576      -1.56774068    
   4.56476784      -3.05008101     -0.157000005       2693.90576      -1.56774068    
   3.05008101      -4.56476784     -0.157000005       3321.71777      -1.56185341    
   2.64863706      -3.96396494     -0.246999994       3321.71777      -1.56185341    
   3.37107491      -3.37107491     -0.246999994       3321.71777      -1.56185341    
   3.88201594      -3.88201594     -0.157000005       3321.71777      -1.56185341    
   2.10093188      -5.07209921     -0.157000005       3745.41162      -1.56770051    
   1.82441294      -4.40452194     -0.246999994       3745.41162      -1.56770051    
   2.64863706      -3.96396494     -0.246999994       3745.41162      -1.56770051    
   3.05008101      -4.56476784     -0.157000005       3745.41162      -1.56770051    
   1.07104599      -5.38451099     -0.157000005       4061.69263      -1.56721926    
  0.930077016      -4.67581606     -0.246999994       4061.69263      -1.56721926    
   1.82441294      -4.40452194     -0.246999994       4061.69263      -1.56721926    
   2.10093188      -5.07209921     -0.157000005       4061.69263      -1.56721926    
   0.00000000      -1.87709999     -0.606999993       1516.27063      -1.57080555    
   0.00000000      -1.36500001     -0.606999993       1516.27063      -1.57080555    
  0.266297996      -1.33877206     -0.606999993       1516.27063      -1.57080555    
  0.366203994      -1.84103203     -0.606999993       1516.27063      -1.57080555    
   0.00000000      -1.87709999     -0.606999993       57.7723083      -1.55506194    
   0.00000000      -2.59967995     -0.517000020       57.7723083      -1.55506194    
 -0.507171988      -2.54972792     -0.517000020       57.7723083      -1.55506194    
 -0.366203994      -1.84103203     -0.606999993       57.7723083      -1.55506194    
 -0.366203994      -1.84103203     -0.606999993       1516.06396      -1.57080495    
 -0.266297996      -1.33877206     -0.606999993       1516.06396      -1.57080495    
   0.00000000      -1.36500001     -0.606999993       1516.06396      -1.57080495    
   0.00000000      -1.87709999     -0.606999993       1516.06396      -1.57080495    
 -0.366203994      -1.84103203     -0.606999993       55.4886093      -1.55388486    
 -0.507171988      -2.54972792     -0.517000020       55.4886093      -1.55388486    
 -0.994853973      -2.40179110     -0.517000020       55.4886093      -1.55388486    
 -0.718334973      -1.73421395     -0.606999993       55.4886093      -1.55388486    
 -0.718334973      -1.73421395     -0.606999993       1458.03027      -1.57080078    
 -0.522363007      -1.26109600     -0.606999993       1458.03027      -1.57080078    
 -0.266297996      -1.33877206     -0.606999993       1458.03027      -1.57080078    
 -0.366203994      -1.84103203     -0.606999993       1458.03027      -1.57080078    
 -0.718334973      -1.73421395     -0.606999993       51.6695938      -1.55303597    
 -0.994853973      -2.40179110     -0.517000020       51.6695938      -1.55303597    
  -1.44430494      -2.16155505     -0.517000020       51.6695938      -1.55303597    
  -1.04286098      -1.56075203     -0.606999993       51.6695938      -1.55303597    
  -1.04286098      -1.56075203     -0.606999993       1344.39111      -1.57077193    
 -0.758352995      -1.13495600     -0.606999993       1344.39111      -1.57077193    
 -0.522363007      -1.26109600     -0.606999993       1344.39111      -1.57077193    
 -0.718334973      -1.73421395     -0.606999993       1344.39111      -1.57077193    
  -1.04286098      -1.56075203     -0.606999993       46.5038948      -1.55324423    
  -1.44430494      -2.16155505     -0.517000020       46.5038948      -1.55324423    
  -1.83825099      -1.83825099     -0.517000020       46.5038948      -1.55324423    
  -1.32730997      -1.32730997     -0.606999993       46.5038948      -1.55324423    
  -1.32730997      -1.32730997     -0.606999993       1178.85376      -1.57076705    
 -0.965201020     -0.965201020     -0.606999993       1178.85376      -1.57076705    
 -0.758352995      -1.13495600     -0.606999993       1178.85376      -1.57076705    
  -1.04286098      -1.56075203     -0.606999993       1178.85376      -1.57076705    
  -1.32730997      -1.32730997     -0.606999993       38.8787346      -1.55430341    
  -1.83825099      -1.83825099     -0.517000020       38.8787346      -1.55430341    
  -2.16155505      -1.44430494     -0.517000020       38.8787346      -1.55430341    
  -1.56075203      -1.04286098     -0.606999993       38.8787346      -1.55430341    
  -1.56075203      -1.04286098     -0.606999993       966.960022      -1.57078648    
  -1.13495600     -0.758352995     -0.606999993       966.960022      -1.57078648    
 -0.965201020     -0.965201020     -0.606999993       966.960022      -1.57078648    
  -1.32730997      -1.32730997     -0.606999993       966.960022      -1.57078648    
  -1.56075203      -1.04286098     -0.606999993       28.2649498      -1.55498946    
  -2.16155505      -1.44430494     -0.517000020       28.2649498      -1.55498946    
  -2.40179110     -0.994853973     -0.517000020       28.2649498      -1.55498946    
  -1.73421395     -0.718334973     -0.606999993       28.2649498      -1.55498946    
  -1.73421395     -0.718334973     -0.606999993       716.818481      -1.57083619    
  -1.26109600     -0.522363007     -0.606999993       716.818481      -1.57083619    
  -1.13495600     -0.758352995     -0.606999993       716.818481      -1.57083619    
  -1.56075203      -1.04286098     -0.606999993       716.818481      -1.57083619    
  -1.73421395     -0.718334973     -0.606999993       16.0642376      -1.55420768    
  -2.40179110     -0.994853973     -0.517000020       16.0642376      -1.55420768    
  -2.54972792     -0.507171988     -0.517000020       16.0642376      -1.55420768    
  -1.84103203     -0.366203994     -0.606999993       16.0642376      -1.55420768    
  -1.84103203     -0.366203994     -0.606999993       438.778015      -1.57093406    
  -1.33877206     -0.266297996     -0.606999993       438.778015      -1.57093406    
  -1.26109600     -0.522363007     -0.606999993       438.778015      -1.57093406    
  -1.73421395     -0.718334973     -0.606999993       438.778015      -1.57093406    
  -1.84103203     -0.366203994     -0.606999993       4.30919218      -1.55071974    
  -2.54972792     -0.507171988     -0.517000020       4.30919218      -1.55071974    
  -2.59967995       0.00000000     -0.517000020       4.30919218      -1.55071974    
  -1.87709999       0.00000000     -0.606999993       4.30919218      -1.55071974    
  -1.87709999       0.00000000     -0.606999993       144.324966      -1.57141662    
  -1.36500001       0.00000000     -0.606999993       144.324966      -1.57141662    
  -1.33877206     -0.266297996     -0.606999993       144.324966      -1.57141662    
  -1.84103203     -0.366203994     -0.606999993       144.324966      -1.57141662    
  -1.87709999       0.00000000     -0.606999993       6.48098707       1.58306670    
  -2.59967995       0.00000000     -0.517000020       6.48098707       1.58306670    
  -2.54972792      0.507171988     -0.517000020       6.48098707       1.58306670    
  -1.84103203      0.366203994     -0.606999993       6.48098707       1.58306670    
  -1.84103203      0.366203994     -0.606999993       155.032013       1.57144046    
  -1.33877206      0.266297996     -0.606999993       155.032013       1.57144046    
  -1.36500001       0.00000000     -0.606999993       155.032013       1.57144046    
  -1.87709999       0.00000000     -0.606999993       155.032013       1.57144046    
  -1.84103203      0.366203994     -0.606999993       17.5020332       1.58508348    
  -2.54972792      0.507171988     -0.517000020       17.5020332       1.58508348    
  -2.40179110      0.994853973     -0.517000020       17.5020332       1.58508348    
  -1.73421395      0.718334973     -0.606999993       17.5020332       1.58508348    
  -1.73421395      0.718334973     -0.606999993       448.308929       1.57105124    
  -1.26109600      0.522363007     -0.606999993       448.308929       1.57105124    
  -1.33877206      0.266297996     -0.606999993       448.308929       1.57105124    
  -1.84103203      0.366203994     -0.606999993       448.308929       1.57105124    
  -1.73421395      0.718334973     -0.606999993       28.8766823       1.58491516    
  -2.40179110      0.994853973     -0.517000020       28.8766823       1.58491516    
  -2.16155505       1.44430494     -0.517000020       28.8766823       1.58491516    
  -1.56075203       1.04286098     -0.606999993       28.8766823       1.58491516    
  -1.56075203       1.04286098     -0.606999993       724.460815       1.57097960    
  -1.13495600      0.758352995     -0.606999993       724.460815       1.57097960    
  -1.26109600      0.522363007     -0.606999993       724.460815       1.57097960    
  -1.73421395      0.718334973     -0.606999993       724.460815       1.57097960    
  -1.56075203       1.04286098     -0.606999993       39.0195847       1.58603013    
  -2.16155505       1.44430494     -0.517000020       39.0195847       1.58603013    
  -1.83825099       1.83825099     -0.517000020       39.0195847       1.58603013    
  -1.32730997       1.32730997     -0.606999993       39.0195847       1.58603013    
  -1.32730997       1.32730997     -0.606999993       972.502930       1.57095730    
 -0.965201020      0.965201020     -0.606999993       972.502930       1.57095730    
  -1.13495600      0.758352995     -0.606999993       972.502930       1.57095730    
  -1.56075203       1.04286098     -0.606999993       972.502930       1.57095730    
  -1.32730997       1.32730997     -0.606999993       46.4474335       1.58699179    
  -1.83825099       1.83825099     -0.517000020       46.4474335       1.58699179    
  -1.44430494       2.16155505     -0.517000020       46.4474335       1.58699179    
  -1.04286098       1.56075203     -0.606999993       46.4474335       1.58699179    
  -1.04286098       1.56075203     -0.606999993       1182.46570       1.57094336    
 -0.758352995       1.13495600     -0.606999993       1182.46570       1.57094336    
 -0.965201020      0.965201020     -0.606999993       1182.46570       1.57094336    
  -1.32730997       1.32730997     -0.606999993       1182.46570       1.57094336    
  -1.04286098       1.56075203     -0.606999993       51.5729179       1.58750367    
  -1.44430494       2.16155505     -0.517000020       51.5729179       1.58750367    
 -0.994853973       2.40179110     -0.517000020       51.5729179       1.58750367    
 -0.718334973       1.73421395     -0.606999993       51.5729179       1.58750367    
 -0.718334973       1.73421395     -0.606999993       1346.56384       1.57092261    
 -0.522363007       1.26109600     -0.606999993       1346.56384       1.57092261    
 -0.758352995       1.13495600     -0.606999993       1346.56384       1.57092261    
  -1.04286098       1.56075203     -0.606999993       1346.56384       1.57092261    
 -0.718334973       1.73421395     -0.606999993       55.3591843       1.58704889    
 -0.994853973       2.40179110     -0.517000020       55.3591843       1.58704889    
 -0.507171988       2.54972792     -0.517000020       55.3591843       1.58704889    
 -0.366203994       1.84103203     -0.606999993       55.3591843       1.58704889    
 -0.366203994       1.84103203     -0.606999993       1459.10608       1.57090878    
 -0.266297996       1.33877206     -0.606999993       1459.10608       1.57090878    
 -0.522363007       1.26109600     -0.606999993       1459.10608       1.57090878    
 -0.718334973       1.73421395     -0.606999993       1459.10608       1.57090878    
 -0.366203994       1.84103203     -0.606999993       57.7071381       1.58616412    
 -0.507171988       2.54972792     -0.517000020       57.7071381       1.58616412    
   0.00000000       2.59967995     -0.517000020       57.7071381       1.58616412    
   0.00000000       1.87709999     -0.606999993       57.7071381       1.58616412    
   0.00000000       1.87709999     -0.606999993       1516.12537       1.57089853    
   0.00000000       1.36500001     -0.606999993       1516.12537       1.57089853    
 -0.266297996       1.33877206     -0.606999993       1516.12537       1.57089853    
 -0.366203994       1.84103203     -0.606999993       1516.12537       1.57089853    
   0.00000000       1.87709999     -0.606999993       57.6421394       1.58638632    
   0.00000000       2.59967995     -0.517000020       57.6421394       1.58638632    
  0.507171988       2.54972792     -0.517000020       57.6421394       1.58638632    
  0.366203994       1.84103203     -0.606999993       57.6421394       1.58638632    
  0.366203994       1.84103203     -0.606999993       1515.27075       1.57089376    
  0.266297996       1.33877206     -0.606999993       1515.27075       1.57089376    
   0.00000000       1.36500001     -0.606999993       1515.27075       1.57089376    
   0.00000000       1.87709999     -0.606999993       1515.27075       1.57089376    
  0.366203994       1.84103203     -0.606999993       55.1290665       1.58732152    
  0.507171988       2.54972792     -0.517000020       55.1290665       1.58732152    
  0.994853973       2.40179110     -0.517000020       55.1290665       1.58732152    
  0.718334973       1.73421395     -0.606999993       55.1290665       1.58732152    
  0.718334973       1.73421395     -0.606999993       1456.59338       1.57089865    
  0.522363007       1.26109600     -0.606999993       1456.59338       1.57089865    
  0.266297996       1.33877206     -0.606999993       1456.59338       1.57089865    
  0.366203994       1.84103203     -0.606999993       1456.59338       1.57089865    
  0.718334973       1.73421395     -0.606999993       51.1689911       1.58812666    
  0.994853973       2.40179110     -0.517000020       51.1689911       1.58812666    
   1.44430494       2.16155505     -0.517000020       51.1689911       1.58812666    
   1.04286098       1.56075203     -0.606999993       51.1689911       1.58812666    
   1.04286098       1.56075203     -0.606999993       1342.55823       1.57093835    
  0.758352995       1.13495600     -0.606999993       1342.55823       1.57093835    
  0.522363007       1.26109600     -0.606999993       1342.55823       1.57093835    
  0.718334973       1.73421395     -0.606999993       1342.55823       1.57093835    
   1.04286098       1.56075203     -0.606999993       45.9423866       1.58820128    
   1.44430494       2.16155505     -0.517000020       45.9423866       1.58820128    
   1.83825099       1.83825099     -0.517000020       45.9423866       1.58820128    
   1.32730997       1.32730997     -0.606999993       45.9423866       1.58820128    
   1.32730997       1.32730997     -0.606999993       1177.03625       1.57095921    
  0.965201020      0.965201020     -0.606999993       1177.03625       1.57095921    
  0.758352995       1.13495600     -0.606999993       1177.03625       1.57095921    
   1.04286098       1.56075203     -0.606999993       1177.03625       1.57095921    
   1.32730997       1.32730997     -0.606999993       38.2026329       1.58722413    
   1.83825099       1.83825099     -0.517000020       38.2026329       1.58722413    
   2.16155505       1.44430494     -0.517000020       38.2026329       1.58722413    
   1.56075203       1.04286098     -0.606999993       38.2026329       1.58722413    
   1.56075203       1.04286098     -0.606999993       965.658386       1.57097137    
   1.13495600      0.758352995     -0.606999993       965.658386       1.57097137    
  0.965201020      0.965201020     -0.606999993       965.658386       1.57097137    
   1.32730997       1.32730997     -0.606999993       965.658386       1.57097137    
   1.56075203       1.04286098     -0.606999993       27.5066051       1.58710754    
   2.16155505       1.44430494     -0.517000020       27.5066051       1.58710754    
   2.40179110      0.994853973     -0.517000020       27.5066051       1.58710754    
   1.73421395      0.718334973     -0.606999993       27.5066051       1.58710754    
   1.73421395      0.718334973     -0.606999993       715.648499       1.57100582    
   1.26109600      0.522363007     -0.606999993       715.648499       1.57100582    
   1.13495600      0.758352995     -0.606999993       715.648499       1.57100582    
   1.56075203       1.04286098     -0.606999993       715.648499       1.57100582    
   1.73421395      0.718334973     -0.606999993       15.4290209       1.58861494    
   2.40179110      0.994853973     -0.517000020       15.4290209       1.58861494    
   2.54972792      0.507171988     -0.517000020       15.4290209       1.58861494    
   1.84103203      0.366203994     -0.606999993       15.4290209       1.58861494    
   1.84103203      0.366203994     -0.606999993       437.349091       1.57107663    
   1.33877206      0.266297996     -0.606999993       437.349091       1.57107663    
   1.26109600      0.522363007     -0.606999993       437.349091       1.57107663    
   1.73421395      0.718334973     -0.606999993       437.349091       1.57107663    
   1.84103203      0.366203994     -0.606999993       3.97434592       1.59755671    
   2.54972792      0.507171988     -0.517000020       3.97434592       1.59755671    
   2.59967995       0.00000000     -0.517000020       3.97434592       1.59755671    
   1.87709999       0.00000000     -0.606999993       3.97434592       1.59755671    
   1.87709999       0.00000000     -0.606999993       142.826462       1.57149398    
   1.36500001       0.00000000     -0.606999993       142.826462       1.57149398    
   1.33877206      0.266297996     -0.606999993       142.826462       1.57149398    
   1.84103203      0.366203994     -0.606999993       142.826462       1.57149398    
   1.87709999       0.00000000     -0.606999993       6.84142399      -1.56151211    
   2.59967995       0.00000000     -0.517000020       6.84142399      -1.56151211    
   2.54972792     -0.507171988     -0.517000020       6.84142399      -1.56151211    
   1.84103203     -0.366203994     -0.606999993       6.84142399      -1.56151211    
   1.84103203     -0.366203994     -0.606999993       156.561630      -1.57132041    
   1.33877206     -0.266297996     -0.606999993       156.561630      -1.57132041    
   1.36500001       0.00000000     -0.606999993       156.561630      -1.57132041    
   1.87709999       0.00000000     -0.606999993       156.561630      -1.57132041    
   1.84103203     -0.366203994     -0.606999993       18.1707420      -1.55718446    
   2.54972792     -0.507171988     -0.517000020       18.1707420      -1.55718446    
   2.40179110     -0.994853973     -0.517000020       18.1707420      -1.55718446    
   1.73421395     -0.718334973     -0.606999993       18.1707420      -1.55718446    
   1.73421395     -0.718334973     -0.606999993       449.856842      -1.57090557    
   1.26109600     -0.522363007     -0.606999993       449.856842      -1.57090557    
   1.33877206     -0.266297996     -0.606999993       449.856842      -1.57090557    
   1.84103203     -0.366203994     -0.606999993       449.856842      -1.57090557    
   1.73421395     -0.718334973     -0.606999993       29.6017342      -1.55604637    
   2.40179110     -0.994853973     -0.517000020       29.6017342      -1.55604637    
   2.16155505      -1.44430494     -0.517000020       29.6017342      -1.55604637    
   1.56075203      -1.04286098     -0.606999993       29.6017342      -1.55604637    
   1.56075203      -1.04286098     -0.606999993       725.809570      -1.57082903    
   1.13495600     -0.758352995     -0.606999993       725.809570      -1.57082903    
   1.26109600     -0.522363007     -0.606999993       725.809570      -1.57082903    