 VARIABLES="X" "Y" "Z" "abs(p) (Pa)" "angle(p) (rad)"
ZONE N=   2709,E =    2358, F=FEPOINT, ET=QUADRILATERAL
   0.00000000      -5.48999977     -0.157000005       2.54274297       1.81545711    
   0.00000000      -4.76741982     -0.246999994       2.54274297       1.81545711    
  0.930077016      -4.67581606     -0.246999994       2.54274297       1.81545711    
   1.07104599      -5.38451099     -0.157000005       2.54274297       1.81545711    
  -1.07104599      -5.38451099     -0.157000005       2.89417982       1.66426730    
 -0.930077016      -4.67581606     -0.246999994       2.89417982       1.66426730    
   0.00000000      -4.76741982     -0.246999994       2.89417982       1.66426730    
   0.00000000      -5.48999977     -0.157000005       2.89417982       1.66426730    
  -2.10093188      -5.07209921     -0.157000005       4.46472120       1.90918136    
  -1.82441294      -4.40452194     -0.246999994       4.46472120       1.90918136    
 -0.930077016      -4.67581606     -0.246999994       4.46472120       1.90918136    
  -1.07104599      -5.38451099     -0.157000005       4.46472120       1.90918136    
  -3.05008101      -4.56476784     -0.157000005       2.71321630       1.57343662    
  -2.64863706      -3.96396494     -0.246999994       2.71321630       1.57343662    
  -1.82441294      -4.40452194     -0.246999994       2.71321630       1.57343662    
  -2.10093188      -5.07209921     -0.157000005       2.71321630       1.57343662    
  -3.88201594      -3.88201594     -0.157000005       2.81666255       2.03076792    
  -3.37107491      -3.37107491     -0.246999994       2.81666255       2.03076792    
  -2.64863706      -3.96396494     -0.246999994       2.81666255       2.03076792    
  -3.05008101      -4.56476784     -0.157000005       2.81666255       2.03076792    
  -4.56476784      -3.05008101     -0.157000005       1.82548189     -0.173187122    
  -3.96396494      -2.64863706     -0.246999994       1.82548189     -0.173187122    
  -3.37107491      -3.37107491     -0.246999994       1.82548189     -0.173187122    
  -3.88201594      -3.88201594     -0.157000005       1.82548189     -0.173187122    
  -5.07209921      -2.10093188     -0.157000005       2.81672215       2.28374815    
  -4.40452194      -1.82441294     -0.246999994       2.81672215       2.28374815    
  -3.96396494      -2.64863706     -0.246999994       2.81672215       2.28374815    
  -4.56476784      -3.05008101     -0.157000005       2.81672215       2.28374815    
  -5.38451099      -1.07104599     -0.157000005       3.13902974       1.67833793    
  -4.67581606     -0.930077016     -0.246999994       3.13902974       1.67833793    
  -4.40452194      -1.82441294     -0.246999994       3.13902974       1.67833793    
  -5.07209921      -2.10093188     -0.157000005       3.13902974       1.67833793    
  -5.48999977       0.00000000     -0.157000005       4.30843210       1.73718774    
  -4.76741982       0.00000000     -0.246999994       4.30843210       1.73718774    
  -4.67581606     -0.930077016     -0.246999994       4.30843210       1.73718774    
  -5.38451099      -1.07104599     -0.157000005       4.30843210       1.73718774    
  -5.38451099       1.07104599     -0.157000005       4.39463663       1.83926582    
  -4.67581606      0.930077016     -0.246999994       4.39463663       1.83926582    
  -4.76741982       0.00000000     -0.246999994       4.39463663       1.83926582    
  -5.48999977       0.00000000     -0.157000005       4.39463663       1.83926582    
  -5.07209921       2.10093188     -0.157000005       4.67353439       1.72827816    
  -4.40452194       1.82441294     -0.246999994       4.67353439       1.72827816    
  -4.67581606      0.930077016     -0.246999994       4.67353439       1.72827816    
  -5.38451099       1.07104599     -0.157000005       4.67353439       1.72827816    
  -4.56476784       3.05008101     -0.157000005       4.30596828       1.83372593    
  -3.96396494       2.64863706     -0.246999994       4.30596828       1.83372593    
  -4.40452194       1.82441294     -0.246999994       4.30596828       1.83372593    
  -5.07209921       2.10093188     -0.157000005       4.30596828       1.83372593    
  -3.88201594       3.88201594     -0.157000005       2.76905203       1.70047307    
  -3.37107491       3.37107491     -0.246999994       2.76905203       1.70047307    
  -3.96396494       2.64863706     -0.246999994       2.76905203       1.70047307    
  -4.56476784       3.05008101     -0.157000005       2.76905203       1.70047307    
  -3.05008101       4.56476784     -0.157000005       4.49558973       1.83616209    
  -2.64863706       3.96396494     -0.246999994       4.49558973       1.83616209    
  -3.37107491       3.37107491     -0.246999994       4.49558973       1.83616209    
  -3.88201594       3.88201594     -0.157000005       4.49558973       1.83616209    
  -2.10093188       5.07209921     -0.157000005       2.63553286       1.66930389    
  -1.82441294       4.40452194     -0.246999994       2.63553286       1.66930389    
  -2.64863706       3.96396494     -0.246999994       2.63553286       1.66930389    
  -3.05008101       4.56476784     -0.157000005       2.63553286       1.66930389    
  -1.07104599       5.38451099     -0.157000005       4.70132446       1.85494661    
 -0.930077016       4.67581606     -0.246999994       4.70132446       1.85494661    
  -1.82441294       4.40452194     -0.246999994       4.70132446       1.85494661    
  -2.10093188       5.07209921     -0.157000005       4.70132446       1.85494661    
   0.00000000       5.48999977     -0.157000005       2.40728951       1.65043724    
   0.00000000       4.76741982     -0.246999994       2.40728951       1.65043724    
 -0.930077016       4.67581606     -0.246999994       2.40728951       1.65043724    
  -1.07104599       5.38451099     -0.157000005       2.40728951       1.65043724    
   1.07104599       5.38451099     -0.157000005       4.89774084       1.81571901    
  0.930077016       4.67581606     -0.246999994       4.89774084       1.81571901    
   0.00000000       4.76741982     -0.246999994       4.89774084       1.81571901    
   0.00000000       5.48999977     -0.157000005       4.89774084       1.81571901    
   2.10093188       5.07209921     -0.157000005       2.47851729       1.83644259    
   1.82441294       4.40452194     -0.246999994       2.47851729       1.83644259    
  0.930077016       4.67581606     -0.246999994       2.47851729       1.83644259    
   1.07104599       5.38451099     -0.157000005       2.47851729       1.83644259    
   3.05008101       4.56476784     -0.157000005       2.74540496       1.62037706    
   2.64863706       3.96396494     -0.246999994       2.74540496       1.62037706    
   1.82441294       4.40452194     -0.246999994       2.74540496       1.62037706    
   2.10093188       5.07209921     -0.157000005       2.74540496       1.62037706    
   3.88201594       3.88201594     -0.157000005       4.72397852       1.91238475    
   3.37107491       3.37107491     -0.246999994       4.72397852       1.91238475    
   2.64863706       3.96396494     -0.246999994       4.72397852       1.91238475    
   3.05008101       4.56476784     -0.157000005       4.72397852       1.91238475    
   4.56476784       3.05008101     -0.157000005       3.09054065       1.43716729    
   3.96396494       2.64863706     -0.246999994       3.09054065       1.43716729    
   3.37107491       3.37107491     -0.246999994       3.09054065       1.43716729    
   3.88201594       3.88201594     -0.157000005       3.09054065       1.43716729    
   5.07209921       2.10093188     -0.157000005       4.57943058       2.04034305    
   4.40452194       1.82441294     -0.246999994       4.57943058       2.04034305    
   3.96396494       2.64863706     -0.246999994       4.57943058       2.04034305    
   4.56476784       3.05008101     -0.157000005       4.57943058       2.04034305    
   5.38451099       1.07104599     -0.157000005       3.05371356       1.68481994    
   4.67581606      0.930077016     -0.246999994       3.05371356       1.68481994    
   4.40452194       1.82441294     -0.246999994       3.05371356       1.68481994    
   5.07209921       2.10093188     -0.157000005       3.05371356       1.68481994    
   5.48999977       0.00000000     -0.157000005       2.52730131       1.75648904    
   4.76741982       0.00000000     -0.246999994       2.52730131       1.75648904    
   4.67581606      0.930077016     -0.246999994       2.52730131       1.75648904    
   5.38451099       1.07104599     -0.157000005       2.52730131       1.75648904    
   5.38451099      -1.07104599     -0.157000005       2.77664518       1.84424996    
   4.67581606     -0.930077016     -0.246999994       2.77664518       1.84424996    
   4.76741982       0.00000000     -0.246999994       2.77664518       1.84424996    
   5.48999977       0.00000000     -0.157000005       2.77664518       1.84424996    
   5.07209921      -2.10093188     -0.157000005       2.90202212       1.72769284    
   4.40452194      -1.82441294     -0.246999994       2.90202212       1.72769284    
   4.67581606     -0.930077016     -0.246999994       2.90202212       1.72769284    
   5.38451099      -1.07104599     -0.157000005       2.90202212       1.72769284    
   4.56476784      -3.05008101     -0.157000005       2.54938149       1.84596813    
   3.96396494      -2.64863706     -0.246999994       2.54938149       1.84596813    
   4.40452194      -1.82441294     -0.246999994       2.54938149       1.84596813    
   5.07209921      -2.10093188     -0.157000005       2.54938149       1.84596813    
   3.88201594      -3.88201594     -0.157000005       2.79341984       1.69633234    
   3.37107491      -3.37107491     -0.246999994       2.79341984       1.69633234    
   3.96396494      -2.64863706     -0.246999994       2.79341984       1.69633234    
   4.56476784      -3.05008101     -0.157000005       2.79341984       1.69633234    
   3.05008101      -4.56476784     -0.157000005       4.57816792       1.83855665    
   2.64863706      -3.96396494     -0.246999994       4.57816792       1.83855665    
   3.37107491      -3.37107491     -0.246999994       4.57816792       1.83855665    
   3.88201594      -3.88201594     -0.157000005       4.57816792       1.83855665    
   2.10093188      -5.07209921     -0.157000005       2.62673903       1.72373843    
   1.82441294      -4.40452194     -0.246999994       2.62673903       1.72373843    
   2.64863706      -3.96396494     -0.246999994       2.62673903       1.72373843    
   3.05008101      -4.56476784     -0.157000005       2.62673903       1.72373843    
   1.07104599      -5.38451099     -0.157000005       2.88656497       1.80644059    
  0.930077016      -4.67581606     -0.246999994       2.88656497       1.80644059    
   1.82441294      -4.40452194     -0.246999994       2.88656497       1.80644059    
   2.10093188      -5.07209921     -0.157000005       2.88656497       1.80644059    
   0.00000000      -1.87709999     -0.606999993       4.19404459      -1.57100523    
   0.00000000      -1.36500001     -0.606999993       4.19404459      -1.57100523    
  0.266297996      -1.33877206     -0.606999993       4.19404459      -1.57100523    
  0.366203994      -1.84103203     -0.606999993       4.19404459      -1.57100523    
   0.00000000      -1.87709999     -0.606999993       1.21958101       1.52129233    
   0.00000000      -2.59967995     -0.517000020       1.21958101       1.52129233    
 -0.507171988      -2.54972792     -0.517000020       1.21958101       1.52129233    
 -0.366203994      -1.84103203     -0.606999993       1.21958101       1.52129233    
 -0.366203994      -1.84103203     -0.606999993       4.16877937      -1.57199621    
 -0.266297996      -1.33877206     -0.606999993       4.16877937      -1.57199621    
   0.00000000      -1.36500001     -0.606999993       4.16877937      -1.57199621    
   0.00000000      -1.87709999     -0.606999993       4.16877937      -1.57199621    
 -0.366203994      -1.84103203     -0.606999993       1.21429205       1.52734172    
 -0.507171988      -2.54972792     -0.517000020       1.21429205       1.52734172    
 -0.994853973      -2.40179110     -0.517000020       1.21429205       1.52734172    
 -0.718334973      -1.73421395     -0.606999993       1.21429205       1.52734172    
 -0.718334973      -1.73421395     -0.606999993       4.18286800      -1.57328296    
 -0.522363007      -1.26109600     -0.606999993       4.18286800      -1.57328296    
 -0.266297996      -1.33877206     -0.606999993       4.18286800      -1.57328296    
 -0.366203994      -1.84103203     -0.606999993       4.18286800      -1.57328296    
 -0.718334973      -1.73421395     -0.606999993       1.19786870       1.53872740    
 -0.994853973      -2.40179110     -0.517000020       1.19786870       1.53872740    
  -1.44430494      -2.16155505     -0.517000020       1.19786870       1.53872740    
  -1.04286098      -1.56075203     -0.606999993       1.19786870       1.53872740    
  -1.04286098      -1.56075203     -0.606999993       4.24408913      -1.57474291    
 -0.758352995      -1.13495600     -0.606999993       4.24408913      -1.57474291    
 -0.522363007      -1.26109600     -0.606999993       4.24408913      -1.57474291    
 -0.718334973      -1.73421395     -0.606999993       4.24408913      -1.57474291    
  -1.04286098      -1.56075203     -0.606999993       1.18024826       1.54759157    
  -1.44430494      -2.16155505     -0.517000020       1.18024826       1.54759157    
  -1.83825099      -1.83825099     -0.517000020       1.18024826       1.54759157    
  -1.32730997      -1.32730997     -0.606999993       1.18024826       1.54759157    
  -1.32730997      -1.32730997     -0.606999993       4.32406998      -1.57549930    
 -0.965201020     -0.965201020     -0.606999993       4.32406998      -1.57549930    
 -0.758352995      -1.13495600     -0.606999993       4.32406998      -1.57549930    
  -1.04286098      -1.56075203     -0.606999993       4.32406998      -1.57549930    
  -1.32730997      -1.32730997     -0.606999993       1.16374874       1.55166614    
  -1.83825099      -1.83825099     -0.517000020       1.16374874       1.55166614    
  -2.16155505      -1.44430494     -0.517000020       1.16374874       1.55166614    
  -1.56075203      -1.04286098     -0.606999993       1.16374874       1.55166614    
  -1.56075203      -1.04286098     -0.606999993       4.38685656      -1.57533216    
  -1.13495600     -0.758352995     -0.606999993       4.38685656      -1.57533216    
 -0.965201020     -0.965201020     -0.606999993       4.38685656      -1.57533216    
  -1.32730997      -1.32730997     -0.606999993       4.38685656      -1.57533216    
  -1.56075203      -1.04286098     -0.606999993       1.14984357       1.54407299    
  -2.16155505      -1.44430494     -0.517000020       1.14984357       1.54407299    
  -2.40179110     -0.994853973     -0.517000020       1.14984357       1.54407299    
  -1.73421395     -0.718334973     -0.606999993       1.14984357       1.54407299    
  -1.73421395     -0.718334973     -0.606999993       4.37960577      -1.57395208    
  -1.26109600     -0.522363007     -0.606999993       4.37960577      -1.57395208    
  -1.13495600     -0.758352995     -0.606999993       4.37960577      -1.57395208    
  -1.56075203      -1.04286098     -0.606999993       4.37960577      -1.57395208    
  -1.73421395     -0.718334973     -0.606999993       1.12886786       1.52497232    
  -2.40179110     -0.994853973     -0.517000020       1.12886786       1.52497232    
  -2.54972792     -0.507171988     -0.517000020       1.12886786       1.52497232    
  -1.84103203     -0.366203994     -0.606999993       1.12886786       1.52497232    
  -1.84103203     -0.366203994     -0.606999993       4.33488035      -1.57162666    
  -1.33877206     -0.266297996     -0.606999993       4.33488035      -1.57162666    
  -1.26109600     -0.522363007     -0.606999993       4.33488035      -1.57162666    
  -1.73421395     -0.718334973     -0.606999993       4.33488035      -1.57162666    
  -1.84103203     -0.366203994     -0.606999993       1.10012329       1.50430715    
  -2.54972792     -0.507171988     -0.517000020       1.10012329       1.50430715    
  -2.59967995       0.00000000     -0.517000020       1.10012329       1.50430715    
  -1.87709999       0.00000000     -0.606999993       1.10012329       1.50430715    
  -1.87709999       0.00000000     -0.606999993       4.28685331      -1.56941986    
  -1.36500001       0.00000000     -0.606999993       4.28685331      -1.56941986    
  -1.33877206     -0.266297996     -0.606999993       4.28685331      -1.56941986    
  -1.84103203     -0.366203994     -0.606999993       4.28685331      -1.56941986    
  -1.87709999       0.00000000     -0.606999993       1.07608771       1.49173224    
  -2.59967995       0.00000000     -0.517000020       1.07608771       1.49173224    
  -2.54972792      0.507171988     -0.517000020       1.07608771       1.49173224    
  -1.84103203      0.366203994     -0.606999993       1.07608771       1.49173224    
  -1.84103203      0.366203994     -0.606999993       4.24993229      -1.56778085    
  -1.33877206      0.266297996     -0.606999993       4.24993229      -1.56778085    
  -1.36500001       0.00000000     -0.606999993       4.24993229      -1.56778085    
  -1.87709999       0.00000000     -0.606999993       4.24993229      -1.56778085    
  -1.84103203      0.366203994     -0.606999993       1.07435751       1.49468625    
  -2.54972792      0.507171988     -0.517000020       1.07435751       1.49468625    
  -2.40179110      0.994853973     -0.517000020       1.07435751       1.49468625    
  -1.73421395      0.718334973     -0.606999993       1.07435751       1.49468625    
  -1.73421395      0.718334973     -0.606999993       4.23321295      -1.56715477    
  -1.26109600      0.522363007     -0.606999993       4.23321295      -1.56715477    
  -1.33877206      0.266297996     -0.606999993       4.23321295      -1.56715477    
  -1.84103203      0.366203994     -0.606999993       4.23321295      -1.56715477    
  -1.73421395      0.718334973     -0.606999993       1.08220124       1.50201130    
  -2.40179110      0.994853973     -0.517000020       1.08220124       1.50201130    
  -2.16155505       1.44430494     -0.517000020       1.08220124       1.50201130    
  -1.56075203       1.04286098     -0.606999993       1.08220124       1.50201130    
  -1.56075203       1.04286098     -0.606999993       4.23989248      -1.56733000    
  -1.13495600      0.758352995     -0.606999993       4.23989248      -1.56733000    
  -1.26109600      0.522363007     -0.606999993       4.23989248      -1.56733000    
  -1.73421395      0.718334973     -0.606999993       4.23989248      -1.56733000    
  -1.56075203       1.04286098     -0.606999993       1.08428192       1.50891423    
  -2.16155505       1.44430494     -0.517000020       1.08428192       1.50891423    
  -1.83825099       1.83825099     -0.517000020       1.08428192       1.50891423    
  -1.32730997       1.32730997     -0.606999993       1.08428192       1.50891423    
  -1.32730997       1.32730997     -0.606999993       4.26858759      -1.56780374    
 -0.965201020      0.965201020     -0.606999993       4.26858759      -1.56780374    
  -1.13495600      0.758352995     -0.606999993       4.26858759      -1.56780374    
  -1.56075203       1.04286098     -0.606999993       4.26858759      -1.56780374    
  -1.32730997       1.32730997     -0.606999993       1.07064700       1.51302695    
  -1.83825099       1.83825099     -0.517000020       1.07064700       1.51302695    
  -1.44430494       2.16155505     -0.517000020       1.07064700       1.51302695    
  -1.04286098       1.56075203     -0.606999993       1.07064700       1.51302695    
  -1.04286098       1.56075203     -0.606999993       4.30664778      -1.56861234    
 -0.758352995       1.13495600     -0.606999993       4.30664778      -1.56861234    
 -0.965201020      0.965201020     -0.606999993       4.30664778      -1.56861234    
  -1.32730997       1.32730997     -0.606999993       4.30664778      -1.56861234    
  -1.04286098       1.56075203     -0.606999993       1.05448794       1.51296246    
  -1.44430494       2.16155505     -0.517000020       1.05448794       1.51296246    
 -0.994853973       2.40179110     -0.517000020       1.05448794       1.51296246    
 -0.718334973       1.73421395     -0.606999993       1.05448794       1.51296246    
 -0.718334973       1.73421395     -0.606999993       4.33595371      -1.56935620    
 -0.522363007       1.26109600     -0.606999993       4.33595371      -1.56935620    
 -0.758352995       1.13495600     -0.606999993       4.33595371      -1.56935620    
  -1.04286098       1.56075203     -0.606999993       4.33595371      -1.56935620    
 -0.718334973       1.73421395     -0.606999993       1.05455136       1.51183224    
 -0.994853973       2.40179110     -0.517000020       1.05455136       1.51183224    
 -0.507171988       2.54972792     -0.517000020       1.05455136       1.51183224    
 -0.366203994       1.84103203     -0.606999993       1.05455136       1.51183224    
 -0.366203994       1.84103203     -0.606999993       4.33615255      -1.56987309    
 -0.266297996       1.33877206     -0.606999993       4.33615255      -1.56987309    
 -0.522363007       1.26109600     -0.606999993       4.33615255      -1.56987309    
 -0.718334973       1.73421395     -0.606999993       4.33615255      -1.56987309    
 -0.366203994       1.84103203     -0.606999993       1.08589733       1.51352346    
 -0.507171988       2.54972792     -0.517000020       1.08589733       1.51352346    
   0.00000000       2.59967995     -0.517000020       1.08589733       1.51352346    
   0.00000000       1.87709999     -0.606999993       1.08589733       1.51352346    
   0.00000000       1.87709999     -0.606999993       4.30672216      -1.57010627    
   0.00000000       1.36500001     -0.606999993       4.30672216      -1.57010627    
 -0.266297996       1.33877206     -0.606999993       4.30672216      -1.57010627    
 -0.366203994       1.84103203     -0.606999993       4.30672216      -1.57010627    
   0.00000000       1.87709999     -0.606999993       1.13463044       1.51896071    
   0.00000000       2.59967995     -0.517000020       1.13463044       1.51896071    
  0.507171988       2.54972792     -0.517000020       1.13463044       1.51896071    
  0.366203994       1.84103203     -0.606999993       1.13463044       1.51896071    
  0.366203994       1.84103203     -0.606999993       4.25836849      -1.57010174    
  0.266297996       1.33877206     -0.606999993       4.25836849      -1.57010174    
   0.00000000       1.36500001     -0.606999993       4.25836849      -1.57010174    
   0.00000000       1.87709999     -0.606999993       4.25836849      -1.57010174    
  0.366203994       1.84103203     -0.606999993       1.16699815       1.52197635    
  0.507171988       2.54972792     -0.517000020       1.16699815       1.52197635    
  0.994853973       2.40179110     -0.517000020       1.16699815       1.52197635    
  0.718334973       1.73421395     -0.606999993       1.16699815       1.52197635    
  0.718334973       1.73421395     -0.606999993       4.22244835      -1.56977630    
  0.522363007       1.26109600     -0.606999993       4.22244835      -1.56977630    
  0.266297996       1.33877206     -0.606999993       4.22244835      -1.56977630    
  0.366203994       1.84103203     -0.606999993       4.22244835      -1.56977630    
  0.718334973       1.73421395     -0.606999993       1.15620792       1.52043462    
  0.994853973       2.40179110     -0.517000020       1.15620792       1.52043462    
   1.44430494       2.16155505     -0.517000020       1.15620792       1.52043462    
   1.04286098       1.56075203     -0.606999993       1.15620792       1.52043462    
   1.04286098       1.56075203     -0.606999993       4.23303413      -1.56915975    
  0.758352995       1.13495600     -0.606999993       4.23303413      -1.56915975    
  0.522363007       1.26109600     -0.606999993       4.23303413      -1.56915975    
  0.718334973       1.73421395     -0.606999993       4.23303413      -1.56915975    
   1.04286098       1.56075203     -0.606999993       1.10271716       1.51398075    
   1.44430494       2.16155505     -0.517000020       1.10271716       1.51398075    
   1.83825099       1.83825099     -0.517000020       1.10271716       1.51398075    
   1.32730997       1.32730997     -0.606999993       1.10271716       1.51398075    
   1.32730997       1.32730997     -0.606999993       4.28457165      -1.56886077    
  0.965201020      0.965201020     -0.606999993       4.28457165      -1.56886077    
  0.758352995       1.13495600     -0.606999993       4.28457165      -1.56886077    
   1.04286098       1.56075203     -0.606999993       4.28457165      -1.56886077    
   1.32730997       1.32730997     -0.606999993       1.04362583       1.50753915    
   1.83825099       1.83825099     -0.517000020       1.04362583       1.50753915    
   2.16155505       1.44430494     -0.517000020       1.04362583       1.50753915    
   1.56075203       1.04286098     -0.606999993       1.04362583       1.50753915    
   1.56075203       1.04286098     -0.606999993       4.35031366      -1.56905508    
   1.13495600      0.758352995     -0.606999993       4.35031366      -1.56905508    
  0.965201020      0.965201020     -0.606999993       4.35031366      -1.56905508    
   1.32730997       1.32730997     -0.606999993       4.35031366      -1.56905508    
   1.56075203       1.04286098     -0.606999993       1.04110360       1.50800300    
   2.16155505       1.44430494     -0.517000020       1.04110360       1.50800300    
   2.40179110      0.994853973     -0.517000020       1.04110360       1.50800300    
   1.73421395      0.718334973     -0.606999993       1.04110360       1.50800300    
   1.73421395      0.718334973     -0.606999993       4.36664629      -1.56961107    
   1.26109600      0.522363007     -0.606999993       4.36664629      -1.56961107    
   1.13495600      0.758352995     -0.606999993       4.36664629      -1.56961107    
   1.56075203       1.04286098     -0.606999993       4.36664629      -1.56961107    
   1.73421395      0.718334973     -0.606999993       1.11197650       1.51553047    
   2.40179110      0.994853973     -0.517000020       1.11197650       1.51553047    
   2.54972792      0.507171988     -0.517000020       1.11197650       1.51553047    
   1.84103203      0.366203994     -0.606999993       1.11197650       1.51553047    
   1.84103203      0.366203994     -0.606999993       4.29526949      -1.57013190    
   1.33877206      0.266297996     -0.606999993       4.29526949      -1.57013190    
   1.26109600      0.522363007     -0.606999993       4.29526949      -1.57013190    
   1.73421395      0.718334973     -0.606999993       4.29526949      -1.57013190    
   1.84103203      0.366203994     -0.606999993       1.21239591       1.52502930    
   2.54972792      0.507171988     -0.517000020       1.21239591       1.52502930    
   2.59967995       0.00000000     -0.517000020       1.21239591       1.52502930    
   1.87709999       0.00000000     -0.606999993       1.21239591       1.52502930    
   1.87709999       0.00000000     -0.606999993       4.20427084      -1.57102132    
   1.36500001       0.00000000     -0.606999993       4.20427084      -1.57102132    
   1.33877206      0.266297996     -0.606999993       4.20427084      -1.57102132    
   1.84103203      0.366203994     -0.606999993       4.20427084      -1.57102132    
   1.87709999       0.00000000     -0.606999993       1.27281201       1.53106999    
   2.59967995       0.00000000     -0.517000020       1.27281201       1.53106999    
   2.54972792     -0.507171988     -0.517000020       1.27281201       1.53106999    
   1.84103203     -0.366203994     -0.606999993       1.27281201       1.53106999    
   1.84103203     -0.366203994     -0.606999993       4.15405893      -1.57194662    
   1.33877206     -0.266297996     -0.606999993       4.15405893      -1.57194662    
   1.36500001       0.00000000     -0.606999993       4.15405893      -1.57194662    
   1.87709999       0.00000000     -0.606999993       4.15405893      -1.57194662    
   1.84103203     -0.366203994     -0.606999993       1.26131451       1.53337801    
   2.54972792     -0.507171988     -0.517000020       1.26131451       1.53337801    
   2.40179110     -0.994853973     -0.517000020       1.26131451       1.53337801    
   1.73421395     -0.718334973     -0.606999993       1.26131451       1.53337801    
   1.73421395     -0.718334973     -0.606999993       4.16635275      -1.57245004    
   1.26109600     -0.522363007     -0.606999993       4.16635275      -1.57245004    
   1.33877206     -0.266297996     -0.606999993       4.16635275      -1.57245004    
   1.84103203     -0.366203994     -0.606999993       4.16635275      -1.57245004    
   1.73421395     -0.718334973     -0.606999993       1.19220233       1.52725601    
   2.40179110     -0.994853973     -0.517000020       1.19220233       1.52725601    
   2.16155505      -1.44430494     -0.517000020       1.19220233       1.52725601    
   1.56075203      -1.04286098     -0.606999993       1.19220233       1.52725601    
   1.56075203      -1.04286098     -0.606999993       4.22055483      -1.57275581    
   1.13495600     -0.758352995     -0.606999993       4.22055483      -1.57275581    
   1.26109600     -0.522363007     -0.606999993       4.22055483      -1.57275581    