 VARIABLES="X" "Y" "Z" "abs(p) (Pa)" "angle(p) (rad)"
ZONE N=   2709,E =    2358, F=FEPOINT, ET=QUADRILATERAL
   0.00000000      -5.48999977     -0.157000005       453.895111       2.12345409    
   0.00000000      -4.76741982     -0.246999994       453.895111       2.12345409    
  0.930077016      -4.67581606     -0.246999994       453.895111       2.12345409    
   1.07104599      -5.38451099     -0.157000005       453.895111       2.12345409    
  -1.07104599      -5.38451099     -0.157000005       453.301117       2.12378836    
 -0.930077016      -4.67581606     -0.246999994       453.301117       2.12378836    
   0.00000000      -4.76741982     -0.246999994       453.301117       2.12378836    
   0.00000000      -5.48999977     -0.157000005       453.301117       2.12378836    
  -2.10093188      -5.07209921     -0.157000005       431.193787       2.12702680    
  -1.82441294      -4.40452194     -0.246999994       431.193787       2.12702680    
 -0.930077016      -4.67581606     -0.246999994       431.193787       2.12702680    
  -1.07104599      -5.38451099     -0.157000005       431.193787       2.12702680    
  -3.05008101      -4.56476784     -0.157000005       401.131653       2.12408710    
  -2.64863706      -3.96396494     -0.246999994       401.131653       2.12408710    
  -1.82441294      -4.40452194     -0.246999994       401.131653       2.12408710    
  -2.10093188      -5.07209921     -0.157000005       401.131653       2.12408710    
  -3.88201594      -3.88201594     -0.157000005       351.520874       2.12422180    
  -3.37107491      -3.37107491     -0.246999994       351.520874       2.12422180    
  -2.64863706      -3.96396494     -0.246999994       351.520874       2.12422180    
  -3.05008101      -4.56476784     -0.157000005       351.520874       2.12422180    
  -4.56476784      -3.05008101     -0.157000005       284.522980       2.12846398    
  -3.96396494      -2.64863706     -0.246999994       284.522980       2.12846398    
  -3.37107491      -3.37107491     -0.246999994       284.522980       2.12846398    
  -3.88201594      -3.88201594     -0.157000005       284.522980       2.12846398    
  -5.07209921      -2.10093188     -0.157000005       213.635712       2.12543392    
  -4.40452194      -1.82441294     -0.246999994       213.635712       2.12543392    
  -3.96396494      -2.64863706     -0.246999994       213.635712       2.12543392    
  -4.56476784      -3.05008101     -0.157000005       213.635712       2.12543392    
  -5.38451099      -1.07104599     -0.157000005       131.932709       2.12512350    
  -4.67581606     -0.930077016     -0.246999994       131.932709       2.12512350    
  -4.40452194      -1.82441294     -0.246999994       131.932709       2.12512350    
  -5.07209921      -2.10093188     -0.157000005       131.932709       2.12512350    
  -5.48999977       0.00000000     -0.157000005       44.2031746       2.13066959    
  -4.76741982       0.00000000     -0.246999994       44.2031746       2.13066959    
  -4.67581606     -0.930077016     -0.246999994       44.2031746       2.13066959    
  -5.38451099      -1.07104599     -0.157000005       44.2031746       2.13066959    
  -5.38451099       1.07104599     -0.157000005       43.8884621      -1.01791310    
  -4.67581606      0.930077016     -0.246999994       43.8884621      -1.01791310    
  -4.76741982       0.00000000     -0.246999994       43.8884621      -1.01791310    
  -5.48999977       0.00000000     -0.157000005       43.8884621      -1.01791310    
  -5.07209921       2.10093188     -0.157000005       130.195831      -1.01513326    
  -4.40452194       1.82441294     -0.246999994       130.195831      -1.01513326    
  -4.67581606      0.930077016     -0.246999994       130.195831      -1.01513326    
  -5.38451099       1.07104599     -0.157000005       130.195831      -1.01513326    
  -4.56476784       3.05008101     -0.157000005       211.903152      -1.01498640    
  -3.96396494       2.64863706     -0.246999994       211.903152      -1.01498640    
  -4.40452194       1.82441294     -0.246999994       211.903152      -1.01498640    
  -5.07209921       2.10093188     -0.157000005       211.903152      -1.01498640    
  -3.88201594       3.88201594     -0.157000005       288.253052      -1.01785851    
  -3.37107491       3.37107491     -0.246999994       288.253052      -1.01785851    
  -3.96396494       2.64863706     -0.246999994       288.253052      -1.01785851    
  -4.56476784       3.05008101     -0.157000005       288.253052      -1.01785851    
  -3.05008101       4.56476784     -0.157000005       348.094391      -1.01509523    
  -2.64863706       3.96396494     -0.246999994       348.094391      -1.01509523    
  -3.37107491       3.37107491     -0.246999994       348.094391      -1.01509523    
  -3.88201594       3.88201594     -0.157000005       348.094391      -1.01509523    
  -2.10093188       5.07209921     -0.157000005       400.754578      -1.01788080    
  -1.82441294       4.40452194     -0.246999994       400.754578      -1.01788080    
  -2.64863706       3.96396494     -0.246999994       400.754578      -1.01788080    
  -3.05008101       4.56476784     -0.157000005       400.754578      -1.01788080    
  -1.07104599       5.38451099     -0.157000005       430.894806      -1.01508999    
 -0.930077016       4.67581606     -0.246999994       430.894806      -1.01508999    
  -1.82441294       4.40452194     -0.246999994       430.894806      -1.01508999    
  -2.10093188       5.07209921     -0.157000005       430.894806      -1.01508999    
   0.00000000       5.48999977     -0.157000005       452.175659      -1.01782763    
   0.00000000       4.76741982     -0.246999994       452.175659      -1.01782763    
 -0.930077016       4.67581606     -0.246999994       452.175659      -1.01782763    
  -1.07104599       5.38451099     -0.157000005       452.175659      -1.01782763    
   1.07104599       5.38451099     -0.157000005       448.095886      -1.01512873    
  0.930077016       4.67581606     -0.246999994       448.095886      -1.01512873    
   0.00000000       4.76741982     -0.246999994       448.095886      -1.01512873    
   0.00000000       5.48999977     -0.157000005       448.095886      -1.01512873    
   2.10093188       5.07209921     -0.157000005       435.082581      -1.01825047    
   1.82441294       4.40452194     -0.246999994       435.082581      -1.01825047    
  0.930077016       4.67581606     -0.246999994       435.082581      -1.01825047    
   1.07104599       5.38451099     -0.157000005       435.082581      -1.01825047    
   3.05008101       4.56476784     -0.157000005       400.991547      -1.01846719    
   2.64863706       3.96396494     -0.246999994       400.991547      -1.01846719    
   1.82441294       4.40452194     -0.246999994       400.991547      -1.01846719    
   2.10093188       5.07209921     -0.157000005       400.991547      -1.01846719    
   3.88201594       3.88201594     -0.157000005       347.095337      -1.01481771    
   3.37107491       3.37107491     -0.246999994       347.095337      -1.01481771    
   2.64863706       3.96396494     -0.246999994       347.095337      -1.01481771    
   3.05008101       4.56476784     -0.157000005       347.095337      -1.01481771    
   4.56476784       3.05008101     -0.157000005       284.931854      -1.01542008    
   3.96396494       2.64863706     -0.246999994       284.931854      -1.01542008    
   3.37107491       3.37107491     -0.246999994       284.931854      -1.01542008    
   3.88201594       3.88201594     -0.157000005       284.931854      -1.01542008    
   5.07209921       2.10093188     -0.157000005       210.645523      -1.01459944    
   4.40452194       1.82441294     -0.246999994       210.645523      -1.01459944    
   3.96396494       2.64863706     -0.246999994       210.645523      -1.01459944    
   4.56476784       3.05008101     -0.157000005       210.645523      -1.01459944    
   5.38451099       1.07104599     -0.157000005       131.028152      -1.01913083    
   4.67581606      0.930077016     -0.246999994       131.028152      -1.01913083    
   4.40452194       1.82441294     -0.246999994       131.028152      -1.01913083    
   5.07209921       2.10093188     -0.157000005       131.028152      -1.01913083    
   5.48999977       0.00000000     -0.157000005       44.0668297      -1.02488458    
   4.76741982       0.00000000     -0.246999994       44.0668297      -1.02488458    
   4.67581606      0.930077016     -0.246999994       44.0668297      -1.02488458    
   5.38451099       1.07104599     -0.157000005       44.0668297      -1.02488458    
   5.38451099      -1.07104599     -0.157000005       45.0773239       2.13017607    
   4.67581606     -0.930077016     -0.246999994       45.0773239       2.13017607    
   4.76741982       0.00000000     -0.246999994       45.0773239       2.13017607    
   5.48999977       0.00000000     -0.157000005       45.0773239       2.13017607    
   5.07209921      -2.10093188     -0.157000005       132.634354       2.12558198    
   4.40452194      -1.82441294     -0.246999994       132.634354       2.12558198    
   4.67581606     -0.930077016     -0.246999994       132.634354       2.12558198    
   5.38451099      -1.07104599     -0.157000005       132.634354       2.12558198    
   4.56476784      -3.05008101     -0.157000005       215.160843       2.12466955    
   3.96396494      -2.64863706     -0.246999994       215.160843       2.12466955    
   4.40452194      -1.82441294     -0.246999994       215.160843       2.12466955    
   5.07209921      -2.10093188     -0.157000005       215.160843       2.12466955    
   3.88201594      -3.88201594     -0.157000005       289.085388       2.12458277    
   3.37107491      -3.37107491     -0.246999994       289.085388       2.12458277    
   3.96396494      -2.64863706     -0.246999994       289.085388       2.12458277    
   4.56476784      -3.05008101     -0.157000005       289.085388       2.12458277    
   3.05008101      -4.56476784     -0.157000005       348.584778       2.12730122    
   2.64863706      -3.96396494     -0.246999994       348.584778       2.12730122    
   3.37107491      -3.37107491     -0.246999994       348.584778       2.12730122    
   3.88201594      -3.88201594     -0.157000005       348.584778       2.12730122    
   2.10093188      -5.07209921     -0.157000005       401.752502       2.12395620    
   1.82441294      -4.40452194     -0.246999994       401.752502       2.12395620    
   2.64863706      -3.96396494     -0.246999994       401.752502       2.12395620    
   3.05008101      -4.56476784     -0.157000005       401.752502       2.12395620    
   1.07104599      -5.38451099     -0.157000005       436.521088       2.12346196    
  0.930077016      -4.67581606     -0.246999994       436.521088       2.12346196    
   1.82441294      -4.40452194     -0.246999994       436.521088       2.12346196    
   2.10093188      -5.07209921     -0.157000005       436.521088       2.12346196    
   0.00000000      -1.87709999     -0.606999993       909.121826      -1.63262880    
   0.00000000      -1.36500001     -0.606999993       909.121826      -1.63262880    
  0.266297996      -1.33877206     -0.606999993       909.121826      -1.63262880    
  0.366203994      -1.84103203     -0.606999993       909.121826      -1.63262880    
   0.00000000      -1.87709999     -0.606999993       321.351776      -1.82171929    
   0.00000000      -2.59967995     -0.517000020       321.351776      -1.82171929    
 -0.507171988      -2.54972792     -0.517000020       321.351776      -1.82171929    
 -0.366203994      -1.84103203     -0.606999993       321.351776      -1.82171929    
 -0.366203994      -1.84103203     -0.606999993       909.225403      -1.63265777    
 -0.266297996      -1.33877206     -0.606999993       909.225403      -1.63265777    
   0.00000000      -1.36500001     -0.606999993       909.225403      -1.63265777    
   0.00000000      -1.87709999     -0.606999993       909.225403      -1.63265777    
 -0.366203994      -1.84103203     -0.606999993       308.472931      -1.82260740    
 -0.507171988      -2.54972792     -0.517000020       308.472931      -1.82260740    
 -0.994853973      -2.40179110     -0.517000020       308.472931      -1.82260740    
 -0.718334973      -1.73421395     -0.606999993       308.472931      -1.82260740    
 -0.718334973      -1.73421395     -0.606999993       873.895264      -1.63290751    
 -0.522363007      -1.26109600     -0.606999993       873.895264      -1.63290751    
 -0.266297996      -1.33877206     -0.606999993       873.895264      -1.63290751    
 -0.366203994      -1.84103203     -0.606999993       873.895264      -1.63290751    
 -0.718334973      -1.73421395     -0.606999993       283.798004      -1.82412124    
 -0.994853973      -2.40179110     -0.517000020       283.798004      -1.82412124    
  -1.44430494      -2.16155505     -0.517000020       283.798004      -1.82412124    
  -1.04286098      -1.56075203     -0.606999993       283.798004      -1.82412124    
  -1.04286098      -1.56075203     -0.606999993       804.984558      -1.63330007    
 -0.758352995      -1.13495600     -0.606999993       804.984558      -1.63330007    
 -0.522363007      -1.26109600     -0.606999993       804.984558      -1.63330007    
 -0.718334973      -1.73421395     -0.606999993       804.984558      -1.63330007    
  -1.04286098      -1.56075203     -0.606999993       248.974518      -1.82527781    
  -1.44430494      -2.16155505     -0.517000020       248.974518      -1.82527781    
  -1.83825099      -1.83825099     -0.517000020       248.974518      -1.82527781    
  -1.32730997      -1.32730997     -0.606999993       248.974518      -1.82527781    
  -1.32730997      -1.32730997     -0.606999993       705.525024      -1.63369989    
 -0.965201020     -0.965201020     -0.606999993       705.525024      -1.63369989    
 -0.758352995      -1.13495600     -0.606999993       705.525024      -1.63369989    
  -1.04286098      -1.56075203     -0.606999993       705.525024      -1.63369989    
  -1.32730997      -1.32730997     -0.606999993       205.307785      -1.82482553    
  -1.83825099      -1.83825099     -0.517000020       205.307785      -1.82482553    
  -2.16155505      -1.44430494     -0.517000020       205.307785      -1.82482553    
  -1.56075203      -1.04286098     -0.606999993       205.307785      -1.82482553    
  -1.56075203      -1.04286098     -0.606999993       579.532227      -1.63392401    
  -1.13495600     -0.758352995     -0.606999993       579.532227      -1.63392401    
 -0.965201020     -0.965201020     -0.606999993       579.532227      -1.63392401    
  -1.32730997      -1.32730997     -0.606999993       579.532227      -1.63392401    
  -1.56075203      -1.04286098     -0.606999993       153.912018      -1.82184148    
  -2.16155505      -1.44430494     -0.517000020       153.912018      -1.82184148    
  -2.40179110     -0.994853973     -0.517000020       153.912018      -1.82184148    
  -1.73421395     -0.718334973     -0.606999993       153.912018      -1.82184148    
  -1.73421395     -0.718334973     -0.606999993       431.824585      -1.63386178    
  -1.26109600     -0.522363007     -0.606999993       431.824585      -1.63386178    
  -1.13495600     -0.758352995     -0.606999993       431.824585      -1.63386178    
  -1.56075203      -1.04286098     -0.606999993       431.824585      -1.63386178    
  -1.73421395     -0.718334973     -0.606999993       96.1866837      -1.81661367    
  -2.40179110     -0.994853973     -0.517000020       96.1866837      -1.81661367    
  -2.54972792     -0.507171988     -0.517000020       96.1866837      -1.81661367    
  -1.84103203     -0.366203994     -0.606999993       96.1866837      -1.81661367    
  -1.84103203     -0.366203994     -0.606999993       267.418396      -1.63380182    
  -1.33877206     -0.266297996     -0.606999993       267.418396      -1.63380182    
  -1.26109600     -0.522363007     -0.606999993       267.418396      -1.63380182    
  -1.73421395     -0.718334973     -0.606999993       267.418396      -1.63380182    
  -1.84103203     -0.366203994     -0.606999993       34.2377701      -1.80670762    
  -2.54972792     -0.507171988     -0.517000020       34.2377701      -1.80670762    
  -2.59967995       0.00000000     -0.517000020       34.2377701      -1.80670762    
  -1.87709999       0.00000000     -0.606999993       34.2377701      -1.80670762    
  -1.87709999       0.00000000     -0.606999993       92.2224655      -1.63562751    
  -1.36500001       0.00000000     -0.606999993       92.2224655      -1.63562751    
  -1.33877206     -0.266297996     -0.606999993       92.2224655      -1.63562751    
  -1.84103203     -0.366203994     -0.606999993       92.2224655      -1.63562751    
  -1.87709999       0.00000000     -0.606999993       29.2894955       1.31409621    
  -2.59967995       0.00000000     -0.517000020       29.2894955       1.31409621    
  -2.54972792      0.507171988     -0.517000020       29.2894955       1.31409621    
  -1.84103203      0.366203994     -0.606999993       29.2894955       1.31409621    
  -1.84103203      0.366203994     -0.606999993       86.7989273       1.51337063    
  -1.33877206      0.266297996     -0.606999993       86.7989273       1.51337063    
  -1.36500001       0.00000000     -0.606999993       86.7989273       1.51337063    
  -1.87709999       0.00000000     -0.606999993       86.7989273       1.51337063    
  -1.84103203      0.366203994     -0.606999993       91.6168060       1.32017279    
  -2.54972792      0.507171988     -0.517000020       91.6168060       1.32017279    
  -2.40179110      0.994853973     -0.517000020       91.6168060       1.32017279    
  -1.73421395      0.718334973     -0.606999993       91.6168060       1.32017279    
  -1.73421395      0.718334973     -0.606999993       262.510498       1.51066732    
  -1.26109600      0.522363007     -0.606999993       262.510498       1.51066732    
  -1.33877206      0.266297996     -0.606999993       262.510498       1.51066732    
  -1.84103203      0.366203994     -0.606999993       262.510498       1.51066732    
  -1.73421395      0.718334973     -0.606999993       150.018738       1.31845880    
  -2.40179110      0.994853973     -0.517000020       150.018738       1.31845880    
  -2.16155505       1.44430494     -0.517000020       150.018738       1.31845880    
  -1.56075203       1.04286098     -0.606999993       150.018738       1.31845880    
  -1.56075203       1.04286098     -0.606999993       427.899658       1.50980890    
  -1.13495600      0.758352995     -0.606999993       427.899658       1.50980890    
  -1.26109600      0.522363007     -0.606999993       427.899658       1.50980890    
  -1.73421395      0.718334973     -0.606999993       427.899658       1.50980890    
  -1.56075203       1.04286098     -0.606999993       202.175980       1.31658995    
  -2.16155505       1.44430494     -0.517000020       202.175980       1.31658995    
  -1.83825099       1.83825099     -0.517000020       202.175980       1.31658995    
  -1.32730997       1.32730997     -0.606999993       202.175980       1.31658995    
  -1.32730997       1.32730997     -0.606999993       576.647034       1.50932527    
 -0.965201020      0.965201020     -0.606999993       576.647034       1.50932527    
  -1.13495600      0.758352995     -0.606999993       576.647034       1.50932527    
  -1.56075203       1.04286098     -0.606999993       576.647034       1.50932527    
  -1.32730997       1.32730997     -0.606999993       246.589951       1.31651330    
  -1.83825099       1.83825099     -0.517000020       246.589951       1.31651330    
  -1.44430494       2.16155505     -0.517000020       246.589951       1.31651330    
  -1.04286098       1.56075203     -0.606999993       246.589951       1.31651330    
  -1.04286098       1.56075203     -0.606999993       703.314880       1.50920200    
 -0.758352995       1.13495600     -0.606999993       703.314880       1.50920200    
 -0.965201020      0.965201020     -0.606999993       703.314880       1.50920200    
  -1.32730997       1.32730997     -0.606999993       703.314880       1.50920200    
  -1.04286098       1.56075203     -0.606999993       282.184448       1.31803524    
  -1.44430494       2.16155505     -0.517000020       282.184448       1.31803524    
 -0.994853973       2.40179110     -0.517000020       282.184448       1.31803524    
 -0.718334973       1.73421395     -0.606999993       282.184448       1.31803524    
 -0.718334973       1.73421395     -0.606999993       803.438965       1.50935423    
 -0.522363007       1.26109600     -0.606999993       803.438965       1.50935423    
 -0.758352995       1.13495600     -0.606999993       803.438965       1.50935423    
  -1.04286098       1.56075203     -0.606999993       803.438965       1.50935423    
 -0.718334973       1.73421395     -0.606999993       307.691345       1.32007909    
 -0.994853973       2.40179110     -0.517000020       307.691345       1.32007909    
 -0.507171988       2.54972792     -0.517000020       307.691345       1.32007909    
 -0.366203994       1.84103203     -0.606999993       307.691345       1.32007909    
 -0.366203994       1.84103203     -0.606999993       873.121094       1.50960457    
 -0.266297996       1.33877206     -0.606999993       873.121094       1.50960457    
 -0.522363007       1.26109600     -0.606999993       873.121094       1.50960457    
 -0.718334973       1.73421395     -0.606999993       873.121094       1.50960457    
 -0.366203994       1.84103203     -0.606999993       321.449890       1.32162678    
 -0.507171988       2.54972792     -0.517000020       321.449890       1.32162678    
   0.00000000       2.59967995     -0.517000020       321.449890       1.32162678    
   0.00000000       1.87709999     -0.606999993       321.449890       1.32162678    
   0.00000000       1.87709999     -0.606999993       909.345825       1.50980151    
   0.00000000       1.36500001     -0.606999993       909.345825       1.50980151    
 -0.266297996       1.33877206     -0.606999993       909.345825       1.50980151    
 -0.366203994       1.84103203     -0.606999993       909.345825       1.50980151    
   0.00000000       1.87709999     -0.606999993       322.088135       1.32219136    
   0.00000000       2.59967995     -0.517000020       322.088135       1.32219136    
  0.507171988       2.54972792     -0.517000020       322.088135       1.32219136    
  0.366203994       1.84103203     -0.606999993       322.088135       1.32219136    
  0.366203994       1.84103203     -0.606999993       910.240479       1.50986099    
  0.266297996       1.33877206     -0.606999993       910.240479       1.50986099    
   0.00000000       1.36500001     -0.606999993       910.240479       1.50986099    
   0.00000000       1.87709999     -0.606999993       910.240479       1.50986099    
  0.366203994       1.84103203     -0.606999993       309.569641       1.32181001    
  0.507171988       2.54972792     -0.517000020       309.569641       1.32181001    
  0.994853973       2.40179110     -0.517000020       309.569641       1.32181001    
  0.718334973       1.73421395     -0.606999993       309.569641       1.32181001    
  0.718334973       1.73421395     -0.606999993       875.739075       1.50978673    
  0.522363007       1.26109600     -0.606999993       875.739075       1.50978673    
  0.266297996       1.33877206     -0.606999993       875.739075       1.50978673    
  0.366203994       1.84103203     -0.606999993       875.739075       1.50978673    
  0.718334973       1.73421395     -0.606999993       285.242462       1.32110834    
  0.994853973       2.40179110     -0.517000020       285.242462       1.32110834    
   1.44430494       2.16155505     -0.517000020       285.242462       1.32110834    
   1.04286098       1.56075203     -0.606999993       285.242462       1.32110834    
   1.04286098       1.56075203     -0.606999993       807.595093       1.50966585    
  0.758352995       1.13495600     -0.606999993       807.595093       1.50966585    
  0.522363007       1.26109600     -0.606999993       807.595093       1.50966585    
  0.718334973       1.73421395     -0.606999993       807.595093       1.50966585    
   1.04286098       1.56075203     -0.606999993       250.690704       1.32121813    
   1.44430494       2.16155505     -0.517000020       250.690704       1.32121813    
   1.83825099       1.83825099     -0.517000020       250.690704       1.32121813    
   1.32730997       1.32730997     -0.606999993       250.690704       1.32121813    
   1.32730997       1.32730997     -0.606999993       708.766235       1.50965643    
  0.965201020      0.965201020     -0.606999993       708.766235       1.50965643    
  0.758352995       1.13495600     -0.606999993       708.766235       1.50965643    
   1.04286098       1.56075203     -0.606999993       708.766235       1.50965643    
   1.32730997       1.32730997     -0.606999993       207.055740       1.32333612    
   1.83825099       1.83825099     -0.517000020       207.055740       1.32333612    
   2.16155505       1.44430494     -0.517000020       207.055740       1.32333612    
   1.56075203       1.04286098     -0.606999993       207.055740       1.32333612    
   1.56075203       1.04286098     -0.606999993       582.930359       1.50992870    
   1.13495600      0.758352995     -0.606999993       582.930359       1.50992870    
  0.965201020      0.965201020     -0.606999993       582.930359       1.50992870    
   1.32730997       1.32730997     -0.606999993       582.930359       1.50992870    
   1.56075203       1.04286098     -0.606999993       155.289261       1.32806087    
   2.16155505       1.44430494     -0.517000020       155.289261       1.32806087    
   2.40179110      0.994853973     -0.517000020       155.289261       1.32806087    
   1.73421395      0.718334973     -0.606999993       155.289261       1.32806087    
   1.73421395      0.718334973     -0.606999993       434.288025       1.51055753    
   1.26109600      0.522363007     -0.606999993       434.288025       1.51055753    
   1.13495600      0.758352995     -0.606999993       434.288025       1.51055753    
   1.56075203       1.04286098     -0.606999993       434.288025       1.51055753    
   1.73421395      0.718334973     -0.606999993       96.9250641       1.33549058    
   2.40179110      0.994853973     -0.517000020       96.9250641       1.33549058    
   2.54972792      0.507171988     -0.517000020       96.9250641       1.33549058    
   1.84103203      0.366203994     -0.606999993       96.9250641       1.33549058    
   1.84103203      0.366203994     -0.606999993       268.566589       1.51166964    
   1.33877206      0.266297996     -0.606999993       268.566589       1.51166964    
   1.26109600      0.522363007     -0.606999993       268.566589       1.51166964    
   1.73421395      0.718334973     -0.606999993       268.566589       1.51166964    
   1.84103203      0.366203994     -0.606999993       34.3756676       1.35612822    
   2.54972792      0.507171988     -0.517000020       34.3756676       1.35612822    
   2.59967995       0.00000000     -0.517000020       34.3756676       1.35612822    
   1.87709999       0.00000000     -0.606999993       34.3756676       1.35612822    
   1.87709999       0.00000000     -0.606999993       92.3020782       1.51543689    
   1.36500001       0.00000000     -0.606999993       92.3020782       1.51543689    
   1.33877206      0.266297996     -0.606999993       92.3020782       1.51543689    
   1.84103203      0.366203994     -0.606999993       92.3020782       1.51543689    
   1.87709999       0.00000000     -0.606999993       29.5756378      -1.84830546    
   2.59967995       0.00000000     -0.517000020       29.5756378      -1.84830546    
   2.54972792     -0.507171988     -0.517000020       29.5756378      -1.84830546    
   1.84103203     -0.366203994     -0.606999993       29.5756378      -1.84830546    
   1.84103203     -0.366203994     -0.606999993       87.5365677      -1.63733733    
   1.33877206     -0.266297996     -0.606999993       87.5365677      -1.63733733    
   1.36500001       0.00000000     -0.606999993       87.5365677      -1.63733733    
   1.87709999       0.00000000     -0.606999993       87.5365677      -1.63733733    
   1.84103203     -0.366203994     -0.606999993       92.0232010      -1.82894814    
   2.54972792     -0.507171988     -0.517000020       92.0232010      -1.82894814    
   2.40179110     -0.994853973     -0.517000020       92.0232010      -1.82894814    
   1.73421395     -0.718334973     -0.606999993       92.0232010      -1.82894814    
   1.73421395     -0.718334973     -0.606999993       263.735809      -1.63401079    
   1.26109600     -0.522363007     -0.606999993       263.735809      -1.63401079    
   1.33877206     -0.266297996     -0.606999993       263.735809      -1.63401079    
   1.84103203     -0.366203994     -0.606999993       263.735809      -1.63401079    
   1.73421395     -0.718334973     -0.606999993       150.351059      -1.82840192    
   2.40179110     -0.994853973     -0.517000020       150.351059      -1.82840192    
   2.16155505      -1.44430494     -0.517000020       150.351059      -1.82840192    
   1.56075203      -1.04286098     -0.606999993       150.351059      -1.82840192    
   1.56075203      -1.04286098     -0.606999993       429.321350      -1.63377357    
   1.13495600     -0.758352995     -0.606999993       429.321350      -1.63377357    
   1.26109600     -0.522363007     -0.606999993       429.321350      -1.63377357    