 VARIABLES="X" "Y" "Z" "abs(p) (Pa)" "angle(p) (rad)"
ZONE N=   2709,E =    2358, F=FEPOINT, ET=QUADRILATERAL
   0.00000000      -5.48999977     -0.157000005       114.721352      -1.57154250    
   0.00000000      -4.76741982     -0.246999994       114.721352      -1.57154250    
  0.930077016      -4.67581606     -0.246999994       114.721352      -1.57154250    
   1.07104599      -5.38451099     -0.157000005       114.721352      -1.57154250    
  -1.07104599      -5.38451099     -0.157000005       120.080444       1.57197940    
 -0.930077016      -4.67581606     -0.246999994       120.080444       1.57197940    
   0.00000000      -4.76741982     -0.246999994       120.080444       1.57197940    
   0.00000000      -5.48999977     -0.157000005       120.080444       1.57197940    
  -2.10093188      -5.07209921     -0.157000005       352.677063       1.57135499    
  -1.82441294      -4.40452194     -0.246999994       352.677063       1.57135499    
 -0.930077016      -4.67581606     -0.246999994       352.677063       1.57135499    
  -1.07104599      -5.38451099     -0.157000005       352.677063       1.57135499    
  -3.05008101      -4.56476784     -0.157000005       566.235596       1.57123590    
  -2.64863706      -3.96396494     -0.246999994       566.235596       1.57123590    
  -1.82441294      -4.40452194     -0.246999994       566.235596       1.57123590    
  -2.10093188      -5.07209921     -0.157000005       566.235596       1.57123590    
  -3.88201594      -3.88201594     -0.157000005       761.710266       1.57118428    
  -3.37107491      -3.37107491     -0.246999994       761.710266       1.57118428    
  -2.64863706      -3.96396494     -0.246999994       761.710266       1.57118428    
  -3.05008101      -4.56476784     -0.157000005       761.710266       1.57118428    
  -4.56476784      -3.05008101     -0.157000005       935.664551       1.57115400    
  -3.96396494      -2.64863706     -0.246999994       935.664551       1.57115400    
  -3.37107491      -3.37107491     -0.246999994       935.664551       1.57115400    
  -3.88201594      -3.88201594     -0.157000005       935.664551       1.57115400    
  -5.07209921      -2.10093188     -0.157000005       1057.89954       1.57114244    
  -4.40452194      -1.82441294     -0.246999994       1057.89954       1.57114244    
  -3.96396494      -2.64863706     -0.246999994       1057.89954       1.57114244    
  -4.56476784      -3.05008101     -0.157000005       1057.89954       1.57114244    
  -5.38451099      -1.07104599     -0.157000005       1146.75256       1.57113433    
  -4.67581606     -0.930077016     -0.246999994       1146.75256       1.57113433    
  -4.40452194      -1.82441294     -0.246999994       1146.75256       1.57113433    
  -5.07209921      -2.10093188     -0.157000005       1146.75256       1.57113433    
  -5.48999977       0.00000000     -0.157000005       1202.16699       1.57112741    
  -4.76741982       0.00000000     -0.246999994       1202.16699       1.57112741    
  -4.67581606     -0.930077016     -0.246999994       1202.16699       1.57112741    
  -5.38451099      -1.07104599     -0.157000005       1202.16699       1.57112741    
  -5.38451099       1.07104599     -0.157000005       1203.56104       1.57112694    
  -4.67581606      0.930077016     -0.246999994       1203.56104       1.57112694    
  -4.76741982       0.00000000     -0.246999994       1203.56104       1.57112694    
  -5.48999977       0.00000000     -0.157000005       1203.56104       1.57112694    
  -5.07209921       2.10093188     -0.157000005       1157.09839       1.57113063    
  -4.40452194       1.82441294     -0.246999994       1157.09839       1.57113063    
  -4.67581606      0.930077016     -0.246999994       1157.09839       1.57113063    
  -5.38451099       1.07104599     -0.157000005       1157.09839       1.57113063    
  -4.56476784       3.05008101     -0.157000005       1064.94238       1.57113922    
  -3.96396494       2.64863706     -0.246999994       1064.94238       1.57113922    
  -4.40452194       1.82441294     -0.246999994       1064.94238       1.57113922    
  -5.07209921       2.10093188     -0.157000005       1064.94238       1.57113922    
  -3.88201594       3.88201594     -0.157000005       925.818237       1.57115710    
  -3.37107491       3.37107491     -0.246999994       925.818237       1.57115710    
  -3.96396494       2.64863706     -0.246999994       925.818237       1.57115710    
  -4.56476784       3.05008101     -0.157000005       925.818237       1.57115710    
  -3.05008101       4.56476784     -0.157000005       763.710632       1.57118106    
  -2.64863706       3.96396494     -0.246999994       763.710632       1.57118106    
  -3.37107491       3.37107491     -0.246999994       763.710632       1.57118106    
  -3.88201594       3.88201594     -0.157000005       763.710632       1.57118106    
  -2.10093188       5.07209921     -0.157000005       563.799866       1.57123506    
  -1.82441294       4.40452194     -0.246999994       563.799866       1.57123506    
  -2.64863706       3.96396494     -0.246999994       563.799866       1.57123506    
  -3.05008101       4.56476784     -0.157000005       563.799866       1.57123506    
  -1.07104599       5.38451099     -0.157000005       348.718719       1.57135630    
 -0.930077016       4.67581606     -0.246999994       348.718719       1.57135630    
  -1.82441294       4.40452194     -0.246999994       348.718719       1.57135630    
  -2.10093188       5.07209921     -0.157000005       348.718719       1.57135630    
   0.00000000       5.48999977     -0.157000005       116.276131       1.57200181    
   0.00000000       4.76741982     -0.246999994       116.276131       1.57200181    
 -0.930077016       4.67581606     -0.246999994       116.276131       1.57200181    
  -1.07104599       5.38451099     -0.157000005       116.276131       1.57200181    
   1.07104599       5.38451099     -0.157000005       120.004364      -1.57149470    
  0.930077016       4.67581606     -0.246999994       120.004364      -1.57149470    
   0.00000000       4.76741982     -0.246999994       120.004364      -1.57149470    
   0.00000000       5.48999977     -0.157000005       120.004364      -1.57149470    
   2.10093188       5.07209921     -0.157000005       349.049011      -1.57087839    
   1.82441294       4.40452194     -0.246999994       349.049011      -1.57087839    
  0.930077016       4.67581606     -0.246999994       349.049011      -1.57087839    
   1.07104599       5.38451099     -0.157000005       349.049011      -1.57087839    
   3.05008101       4.56476784     -0.157000005       566.204041      -1.57075548    
   2.64863706       3.96396494     -0.246999994       566.204041      -1.57075548    
   1.82441294       4.40452194     -0.246999994       566.204041      -1.57075548    
   2.10093188       5.07209921     -0.157000005       566.204041      -1.57075548    
   3.88201594       3.88201594     -0.157000005       768.094482      -1.57070589    
   3.37107491       3.37107491     -0.246999994       768.094482      -1.57070589    
   2.64863706       3.96396494     -0.246999994       768.094482      -1.57070589    
   3.05008101       4.56476784     -0.157000005       768.094482      -1.57070589    
   4.56476784       3.05008101     -0.157000005       934.337830      -1.57067955    
   3.96396494       2.64863706     -0.246999994       934.337830      -1.57067955    
   3.37107491       3.37107491     -0.246999994       934.337830      -1.57067955    
   3.88201594       3.88201594     -0.157000005       934.337830      -1.57067955    
   5.07209921       2.10093188     -0.157000005       1066.87219      -1.57066488    
   4.40452194       1.82441294     -0.246999994       1066.87219      -1.57066488    
   3.96396494       2.64863706     -0.246999994       1066.87219      -1.57066488    
   4.56476784       3.05008101     -0.157000005       1066.87219      -1.57066488    
   5.38451099       1.07104599     -0.157000005       1145.88782      -1.57065511    
   4.67581606      0.930077016     -0.246999994       1145.88782      -1.57065511    
   4.40452194       1.82441294     -0.246999994       1145.88782      -1.57065511    
   5.07209921       2.10093188     -0.157000005       1145.88782      -1.57065511    
   5.48999977       0.00000000     -0.157000005       1188.60742      -1.57065105    
   4.76741982       0.00000000     -0.246999994       1188.60742      -1.57065105    
   4.67581606      0.930077016     -0.246999994       1188.60742      -1.57065105    
   5.38451099       1.07104599     -0.157000005       1188.60742      -1.57065105    
   5.38451099      -1.07104599     -0.157000005       1187.47986      -1.57065105    
   4.67581606     -0.930077016     -0.246999994       1187.47986      -1.57065105    
   4.76741982       0.00000000     -0.246999994       1187.47986      -1.57065105    
   5.48999977       0.00000000     -0.157000005       1187.47986      -1.57065105    
   5.07209921      -2.10093188     -0.157000005       1141.14087      -1.57065499    
   4.40452194      -1.82441294     -0.246999994       1141.14087      -1.57065499    
   4.67581606     -0.930077016     -0.246999994       1141.14087      -1.57065499    
   5.38451099      -1.07104599     -0.157000005       1141.14087      -1.57065499    
   4.56476784      -3.05008101     -0.157000005       1051.03430      -1.57066357    
   3.96396494      -2.64863706     -0.246999994       1051.03430      -1.57066357    
   4.40452194      -1.82441294     -0.246999994       1051.03430      -1.57066357    
   5.07209921      -2.10093188     -0.157000005       1051.03430      -1.57066357    
   3.88201594      -3.88201594     -0.157000005       921.277771      -1.57067895    
   3.37107491      -3.37107491     -0.246999994       921.277771      -1.57067895    
   3.96396494      -2.64863706     -0.246999994       921.277771      -1.57067895    
   4.56476784      -3.05008101     -0.157000005       921.277771      -1.57067895    
   3.05008101      -4.56476784     -0.157000005       761.142151      -1.57070696    
   2.64863706      -3.96396494     -0.246999994       761.142151      -1.57070696    
   3.37107491      -3.37107491     -0.246999994       761.142151      -1.57070696    
   3.88201594      -3.88201594     -0.157000005       761.142151      -1.57070696    
   2.10093188      -5.07209921     -0.157000005       561.554138      -1.57075810    
   1.82441294      -4.40452194     -0.246999994       561.554138      -1.57075810    
   2.64863706      -3.96396494     -0.246999994       561.554138      -1.57075810    
   3.05008101      -4.56476784     -0.157000005       561.554138      -1.57075810    
   1.07104599      -5.38451099     -0.157000005       344.562775      -1.57088459    
  0.930077016      -4.67581606     -0.246999994       344.562775      -1.57088459    
   1.82441294      -4.40452194     -0.246999994       344.562775      -1.57088459    
   2.10093188      -5.07209921     -0.157000005       344.562775      -1.57088459    
   0.00000000      -1.87709999     -0.606999993       60.8725510      -1.57250464    
   0.00000000      -1.36500001     -0.606999993       60.8725510      -1.57250464    
  0.266297996      -1.33877206     -0.606999993       60.8725510      -1.57250464    
  0.366203994      -1.84103203     -0.606999993       60.8725510      -1.57250464    
   0.00000000      -1.87709999     -0.606999993       95.5174637       1.57209480    
   0.00000000      -2.59967995     -0.517000020       95.5174637       1.57209480    
 -0.507171988      -2.54972792     -0.517000020       95.5174637       1.57209480    
 -0.366203994      -1.84103203     -0.606999993       95.5174637       1.57209480    
 -0.366203994      -1.84103203     -0.606999993       58.3692932       1.57281244    
 -0.266297996      -1.33877206     -0.606999993       58.3692932       1.57281244    
   0.00000000      -1.36500001     -0.606999993       58.3692932       1.57281244    
   0.00000000      -1.87709999     -0.606999993       58.3692932       1.57281244    
 -0.366203994      -1.84103203     -0.606999993       281.109680       1.57132792    
 -0.507171988      -2.54972792     -0.517000020       281.109680       1.57132792    
 -0.994853973      -2.40179110     -0.517000020       281.109680       1.57132792    
 -0.718334973      -1.73421395     -0.606999993       281.109680       1.57132792    
 -0.718334973      -1.73421395     -0.606999993       175.272507       1.57154322    
 -0.522363007      -1.26109600     -0.606999993       175.272507       1.57154322    
 -0.266297996      -1.33877206     -0.606999993       175.272507       1.57154322    
 -0.366203994      -1.84103203     -0.606999993       175.272507       1.57154322    
 -0.718334973      -1.73421395     -0.606999993       454.865631       1.57117522    
 -0.994853973      -2.40179110     -0.517000020       454.865631       1.57117522    
  -1.44430494      -2.16155505     -0.517000020       454.865631       1.57117522    
  -1.04286098      -1.56075203     -0.606999993       454.865631       1.57117522    
  -1.04286098      -1.56075203     -0.606999993       285.505188       1.57129669    
 -0.758352995      -1.13495600     -0.606999993       285.505188       1.57129669    
 -0.522363007      -1.26109600     -0.606999993       285.505188       1.57129669    
 -0.718334973      -1.73421395     -0.606999993       285.505188       1.57129669    
  -1.04286098      -1.56075203     -0.606999993       612.102478       1.57111073    
  -1.44430494      -2.16155505     -0.517000020       612.102478       1.57111073    
  -1.83825099      -1.83825099     -0.517000020       612.102478       1.57111073    
  -1.32730997      -1.32730997     -0.606999993       612.102478       1.57111073    
  -1.32730997      -1.32730997     -0.606999993       385.552155       1.57119381    
 -0.965201020     -0.965201020     -0.606999993       385.552155       1.57119381    
 -0.758352995      -1.13495600     -0.606999993       385.552155       1.57119381    
  -1.04286098      -1.56075203     -0.606999993       385.552155       1.57119381    
  -1.32730997      -1.32730997     -0.606999993       748.167908       1.57107675    
  -1.83825099      -1.83825099     -0.517000020       748.167908       1.57107675    
  -2.16155505      -1.44430494     -0.517000020       748.167908       1.57107675    
  -1.56075203      -1.04286098     -0.606999993       748.167908       1.57107675    
  -1.56075203      -1.04286098     -0.606999993       471.889557       1.57114017    
  -1.13495600     -0.758352995     -0.606999993       471.889557       1.57114017    
 -0.965201020     -0.965201020     -0.606999993       471.889557       1.57114017    
  -1.32730997      -1.32730997     -0.606999993       471.889557       1.57114017    
  -1.56075203      -1.04286098     -0.606999993       856.212402       1.57105780    
  -2.16155505      -1.44430494     -0.517000020       856.212402       1.57105780    
  -2.40179110     -0.994853973     -0.517000020       856.212402       1.57105780    
  -1.73421395     -0.718334973     -0.606999993       856.212402       1.57105780    
  -1.73421395     -0.718334973     -0.606999993       540.293579       1.57111013    
  -1.26109600     -0.522363007     -0.606999993       540.293579       1.57111013    
  -1.13495600     -0.758352995     -0.606999993       540.293579       1.57111013    
  -1.56075203      -1.04286098     -0.606999993       540.293579       1.57111013    
  -1.73421395     -0.718334973     -0.606999993       929.529480       1.57104802    
  -2.40179110     -0.994853973     -0.517000020       929.529480       1.57104802    
  -2.54972792     -0.507171988     -0.517000020       929.529480       1.57104802    
  -1.84103203     -0.366203994     -0.606999993       929.529480       1.57104802    
  -1.84103203     -0.366203994     -0.606999993       587.191833       1.57109380    
  -1.33877206     -0.266297996     -0.606999993       587.191833       1.57109380    
  -1.26109600     -0.522363007     -0.606999993       587.191833       1.57109380    
  -1.73421395     -0.718334973     -0.606999993       587.191833       1.57109380    
  -1.84103203     -0.366203994     -0.606999993       965.844482       1.57104409    
  -2.54972792     -0.507171988     -0.517000020       965.844482       1.57104409    
  -2.59967995       0.00000000     -0.517000020       965.844482       1.57104409    
  -1.87709999       0.00000000     -0.606999993       965.844482       1.57104409    
  -1.87709999       0.00000000     -0.606999993       610.940857       1.57108700    
  -1.36500001       0.00000000     -0.606999993       610.940857       1.57108700    
  -1.33877206     -0.266297996     -0.606999993       610.940857       1.57108700    
  -1.84103203     -0.366203994     -0.606999993       610.940857       1.57108700    
  -1.87709999       0.00000000     -0.606999993       966.134644       1.57104397    
  -2.59967995       0.00000000     -0.517000020       966.134644       1.57104397    
  -2.54972792      0.507171988     -0.517000020       966.134644       1.57104397    
  -1.84103203      0.366203994     -0.606999993       966.134644       1.57104397    
  -1.84103203      0.366203994     -0.606999993       611.464355       1.57108676    
  -1.33877206      0.266297996     -0.606999993       611.464355       1.57108676    
  -1.36500001       0.00000000     -0.606999993       611.464355       1.57108676    
  -1.87709999       0.00000000     -0.606999993       611.464355       1.57108676    
  -1.84103203      0.366203994     -0.606999993       930.792786       1.57104754    
  -2.54972792      0.507171988     -0.517000020       930.792786       1.57104754    
  -2.40179110      0.994853973     -0.517000020       930.792786       1.57104754    
  -1.73421395      0.718334973     -0.606999993       930.792786       1.57104754    
  -1.73421395      0.718334973     -0.606999993       588.894043       1.57109308    
  -1.26109600      0.522363007     -0.606999993       588.894043       1.57109308    
  -1.33877206      0.266297996     -0.606999993       588.894043       1.57109308    
  -1.84103203      0.366203994     -0.606999993       588.894043       1.57109308    
  -1.73421395      0.718334973     -0.606999993       858.860962       1.57105672    
  -2.40179110      0.994853973     -0.517000020       858.860962       1.57105672    
  -2.16155505       1.44430494     -0.517000020       858.860962       1.57105672    
  -1.56075203       1.04286098     -0.606999993       858.860962       1.57105672    
  -1.56075203       1.04286098     -0.606999993       543.319031       1.57110810    
  -1.13495600      0.758352995     -0.606999993       543.319031       1.57110810    
  -1.26109600      0.522363007     -0.606999993       543.319031       1.57110810    
  -1.73421395      0.718334973     -0.606999993       543.319031       1.57110810    
  -1.56075203       1.04286098     -0.606999993       751.635559       1.57107449    
  -2.16155505       1.44430494     -0.517000020       751.635559       1.57107449    
  -1.83825099       1.83825099     -0.517000020       751.635559       1.57107449    
  -1.32730997       1.32730997     -0.606999993       751.635559       1.57107449    
  -1.32730997       1.32730997     -0.606999993       476.023376       1.57113659    
 -0.965201020      0.965201020     -0.606999993       476.023376       1.57113659    
  -1.13495600      0.758352995     -0.606999993       476.023376       1.57113659    
  -1.56075203       1.04286098     -0.606999993       476.023376       1.57113659    
  -1.32730997       1.32730997     -0.606999993       615.180786       1.57110775    
  -1.83825099       1.83825099     -0.517000020       615.180786       1.57110775    
  -1.44430494       2.16155505     -0.517000020       615.180786       1.57110775    
  -1.04286098       1.56075203     -0.606999993       615.180786       1.57110775    
  -1.04286098       1.56075203     -0.606999993       390.221161       1.57118845    
 -0.758352995       1.13495600     -0.606999993       390.221161       1.57118845    
 -0.965201020      0.965201020     -0.606999993       390.221161       1.57118845    
  -1.32730997       1.32730997     -0.606999993       390.221161       1.57118845    
  -1.04286098       1.56075203     -0.606999993       456.923004       1.57117128    
  -1.44430494       2.16155505     -0.517000020       456.923004       1.57117128    
 -0.994853973       2.40179110     -0.517000020       456.923004       1.57117128    
 -0.718334973       1.73421395     -0.606999993       456.923004       1.57117128    
 -0.718334973       1.73421395     -0.606999993       290.081787       1.57128763    
 -0.522363007       1.26109600     -0.606999993       290.081787       1.57128763    
 -0.758352995       1.13495600     -0.606999993       290.081787       1.57128763    
  -1.04286098       1.56075203     -0.606999993       290.081787       1.57128763    
 -0.718334973       1.73421395     -0.606999993       282.165680       1.57132220    
 -0.994853973       2.40179110     -0.517000020       282.165680       1.57132220    
 -0.507171988       2.54972792     -0.517000020       282.165680       1.57132220    
 -0.366203994       1.84103203     -0.606999993       282.165680       1.57132220    
 -0.366203994       1.84103203     -0.606999993       179.315506       1.57152462    
 -0.266297996       1.33877206     -0.606999993       179.315506       1.57152462    
 -0.522363007       1.26109600     -0.606999993       179.315506       1.57152462    
 -0.718334973       1.73421395     -0.606999993       179.315506       1.57152462    
 -0.366203994       1.84103203     -0.606999993       95.7381516       1.57208359    
 -0.507171988       2.54972792     -0.517000020       95.7381516       1.57208359    
   0.00000000       2.59967995     -0.517000020       95.7381516       1.57208359    
   0.00000000       1.87709999     -0.606999993       95.7381516       1.57208359    
   0.00000000       1.87709999     -0.606999993       61.6184006       1.57270432    
   0.00000000       1.36500001     -0.606999993       61.6184006       1.57270432    
 -0.266297996       1.33877206     -0.606999993       61.6184006       1.57270432    
 -0.366203994       1.84103203     -0.606999993       61.6184006       1.57270432    
   0.00000000       1.87709999     -0.606999993       95.0617218      -1.57181871    
   0.00000000       2.59967995     -0.517000020       95.0617218      -1.57181871    
  0.507171988       2.54972792     -0.517000020       95.0617218      -1.57181871    
  0.366203994       1.84103203     -0.606999993       95.0617218      -1.57181871    
  0.366203994       1.84103203     -0.606999993       58.5627708      -1.57257509    
  0.266297996       1.33877206     -0.606999993       58.5627708      -1.57257509    
   0.00000000       1.36500001     -0.606999993       58.5627708      -1.57257509    
   0.00000000       1.87709999     -0.606999993       58.5627708      -1.57257509    
  0.366203994       1.84103203     -0.606999993       281.428650      -1.57105231    
  0.507171988       2.54972792     -0.517000020       281.428650      -1.57105231    
  0.994853973       2.40179110     -0.517000020       281.428650      -1.57105231    
  0.718334973       1.73421395     -0.606999993       281.428650      -1.57105231    
  0.718334973       1.73421395     -0.606999993       176.238419      -1.57131386    
  0.522363007       1.26109600     -0.606999993       176.238419      -1.57131386    
  0.266297996       1.33877206     -0.606999993       176.238419      -1.57131386    
  0.366203994       1.84103203     -0.606999993       176.238419      -1.57131386    
  0.718334973       1.73421395     -0.606999993       456.074554      -1.57090437    
  0.994853973       2.40179110     -0.517000020       456.074554      -1.57090437    
   1.44430494       2.16155505     -0.517000020       456.074554      -1.57090437    
   1.04286098       1.56075203     -0.606999993       456.074554      -1.57090437    
   1.04286098       1.56075203     -0.606999993       287.003082      -1.57107258    
  0.758352995       1.13495600     -0.606999993       287.003082      -1.57107258    
  0.522363007       1.26109600     -0.606999993       287.003082      -1.57107258    
  0.718334973       1.73421395     -0.606999993       287.003082      -1.57107258    
   1.04286098       1.56075203     -0.606999993       614.140320      -1.57084370    
   1.44430494       2.16155505     -0.517000020       614.140320      -1.57084370    
   1.83825099       1.83825099     -0.517000020       614.140320      -1.57084370    
   1.32730997       1.32730997     -0.606999993       614.140320      -1.57084370    
   1.32730997       1.32730997     -0.606999993       387.127441      -1.57097435    
  0.965201020      0.965201020     -0.606999993       387.127441      -1.57097435    
  0.758352995       1.13495600     -0.606999993       387.127441      -1.57097435    
   1.04286098       1.56075203     -0.606999993       387.127441      -1.57097435    
   1.32730997       1.32730997     -0.606999993       750.321228      -1.57081175    
   1.83825099       1.83825099     -0.517000020       750.321228      -1.57081175    
   2.16155505       1.44430494     -0.517000020       750.321228      -1.57081175    
   1.56075203       1.04286098     -0.606999993       750.321228      -1.57081175    
   1.56075203       1.04286098     -0.606999993       472.963074      -1.57092285    
   1.13495600      0.758352995     -0.606999993       472.963074      -1.57092285    
  0.965201020      0.965201020     -0.606999993       472.963074      -1.57092285    
   1.32730997       1.32730997     -0.606999993       472.963074      -1.57092285    
   1.56075203       1.04286098     -0.606999993       857.245361      -1.57079315    
   2.16155505       1.44430494     -0.517000020       857.245361      -1.57079315    
   2.40179110      0.994853973     -0.517000020       857.245361      -1.57079315    
   1.73421395      0.718334973     -0.606999993       857.245361      -1.57079315    
   1.73421395      0.718334973     -0.606999993       540.504822      -1.57089341    
   1.26109600      0.522363007     -0.606999993       540.504822      -1.57089341    
   1.13495600      0.758352995     -0.606999993       540.504822      -1.57089341    
   1.56075203       1.04286098     -0.606999993       540.504822      -1.57089341    
   1.73421395      0.718334973     -0.606999993       928.893860      -1.57078242    
   2.40179110      0.994853973     -0.517000020       928.893860      -1.57078242    
   2.54972792      0.507171988     -0.517000020       928.893860      -1.57078242    
   1.84103203      0.366203994     -0.606999993       928.893860      -1.57078242    
   1.84103203      0.366203994     -0.606999993       586.393982      -1.57087660    
   1.33877206      0.266297996     -0.606999993       586.393982      -1.57087660    
   1.26109600      0.522363007     -0.606999993       586.393982      -1.57087660    
   1.73421395      0.718334973     -0.606999993       586.393982      -1.57087660    
   1.84103203      0.366203994     -0.606999993       964.032043      -1.57077754    
   2.54972792      0.507171988     -0.517000020       964.032043      -1.57077754    
   2.59967995       0.00000000     -0.517000020       964.032043      -1.57077754    
   1.87709999       0.00000000     -0.606999993       964.032043      -1.57077754    
   1.87709999       0.00000000     -0.606999993       609.310486      -1.57086909    
   1.36500001       0.00000000     -0.606999993       609.310486      -1.57086909    
   1.33877206      0.266297996     -0.606999993       609.310486      -1.57086909    
   1.84103203      0.366203994     -0.606999993       609.310486      -1.57086909    
   1.87709999       0.00000000     -0.606999993       963.638550      -1.57077754    
   2.59967995       0.00000000     -0.517000020       963.638550      -1.57077754    
   2.54972792     -0.507171988     -0.517000020       963.638550      -1.57077754    
   1.84103203     -0.366203994     -0.606999993       963.638550      -1.57077754    
   1.84103203     -0.366203994     -0.606999993       609.236267      -1.57086897    
   1.33877206     -0.266297996     -0.606999993       609.236267      -1.57086897    
   1.36500001       0.00000000     -0.606999993       609.236267      -1.57086897    
   1.87709999       0.00000000     -0.606999993       609.236267      -1.57086897    
   1.84103203     -0.366203994     -0.606999993       927.368469      -1.57078266    
   2.54972792     -0.507171988     -0.517000020       927.368469      -1.57078266    
   2.40179110     -0.994853973     -0.517000020       927.368469      -1.57078266    
   1.73421395     -0.718334973     -0.606999993       927.368469      -1.57078266    
   1.73421395     -0.718334973     -0.606999993       586.013000      -1.57087672    
   1.26109600     -0.522363007     -0.606999993       586.013000      -1.57087672    
   1.33877206     -0.266297996     -0.606999993       586.013000      -1.57087672    
   1.84103203     -0.366203994     -0.606999993       586.013000      -1.57087672    
   1.73421395     -0.718334973     -0.606999993       854.194397      -1.57079363    
   2.40179110     -0.994853973     -0.517000020       854.194397      -1.57079363    
   2.16155505      -1.44430494     -0.517000020       854.194397      -1.57079363    
   1.56075203      -1.04286098     -0.606999993       854.194397      -1.57079363    
   1.56075203      -1.04286098     -0.606999993       539.705078      -1.57089329    
   1.13495600     -0.758352995     -0.606999993       539.705078      -1.57089329    
   1.26109600     -0.522363007     -0.606999993       539.705078      -1.57089329    