 VARIABLES="X" "Y" "Z" "abs(p) (Pa)" "angle(p) (rad)"
ZONE N=   2709,E =    2358, F=FEPOINT, ET=QUADRILATERAL
   0.00000000      -5.48999977     -0.157000005       423.277649      -1.37342572    
   0.00000000      -4.76741982     -0.246999994       423.277649      -1.37342572    
  0.930077016      -4.67581606     -0.246999994       423.277649      -1.37342572    
   1.07104599      -5.38451099     -0.157000005       423.277649      -1.37342572    
  -1.07104599      -5.38451099     -0.157000005       442.514557       1.77572739    
 -0.930077016      -4.67581606     -0.246999994       442.514557       1.77572739    
   0.00000000      -4.76741982     -0.246999994       442.514557       1.77572739    
   0.00000000      -5.48999977     -0.157000005       442.514557       1.77572739    
  -2.10093188      -5.07209921     -0.157000005       1298.85449       1.77117097    
  -1.82441294      -4.40452194     -0.246999994       1298.85449       1.77117097    
 -0.930077016      -4.67581606     -0.246999994       1298.85449       1.77117097    
  -1.07104599      -5.38451099     -0.157000005       1298.85449       1.77117097    
  -3.05008101      -4.56476784     -0.157000005       2088.00635       1.77269197    
  -2.64863706      -3.96396494     -0.246999994       2088.00635       1.77269197    
  -1.82441294      -4.40452194     -0.246999994       2088.00635       1.77269197    
  -2.10093188      -5.07209921     -0.157000005       2088.00635       1.77269197    
  -3.88201594      -3.88201594     -0.157000005       2808.46533       1.77206826    
  -3.37107491      -3.37107491     -0.246999994       2808.46533       1.77206826    
  -2.64863706      -3.96396494     -0.246999994       2808.46533       1.77206826    
  -3.05008101      -4.56476784     -0.157000005       2808.46533       1.77206826    
  -4.56476784      -3.05008101     -0.157000005       3444.63989       1.76949358    
  -3.96396494      -2.64863706     -0.246999994       3444.63989       1.76949358    
  -3.37107491      -3.37107491     -0.246999994       3444.63989       1.76949358    
  -3.88201594      -3.88201594     -0.157000005       3444.63989       1.76949358    
  -5.07209921      -2.10093188     -0.157000005       3900.08545       1.77180719    
  -4.40452194      -1.82441294     -0.246999994       3900.08545       1.77180719    
  -3.96396494      -2.64863706     -0.246999994       3900.08545       1.77180719    
  -4.56476784      -3.05008101     -0.157000005       3900.08545       1.77180719    
  -5.38451099      -1.07104599     -0.157000005       4227.43359       1.77201962    
  -4.67581606     -0.930077016     -0.246999994       4227.43359       1.77201962    
  -4.40452194      -1.82441294     -0.246999994       4227.43359       1.77201962    
  -5.07209921      -2.10093188     -0.157000005       4227.43359       1.77201962    
  -5.48999977       0.00000000     -0.157000005       4424.72314       1.76972783    
  -4.76741982       0.00000000     -0.246999994       4424.72314       1.76972783    
  -4.67581606     -0.930077016     -0.246999994       4424.72314       1.76972783    
  -5.38451099      -1.07104599     -0.157000005       4424.72314       1.76972783    
  -5.38451099       1.07104599     -0.157000005       4427.73730       1.76937270    
  -4.67581606      0.930077016     -0.246999994       4427.73730       1.76937270    
  -4.76741982       0.00000000     -0.246999994       4427.73730       1.76937270    
  -5.48999977       0.00000000     -0.157000005       4427.73730       1.76937270    
  -5.07209921       2.10093188     -0.157000005       4256.40820       1.76935375    
  -4.40452194       1.82441294     -0.246999994       4256.40820       1.76935375    
  -4.67581606      0.930077016     -0.246999994       4256.40820       1.76935375    
  -5.38451099       1.07104599     -0.157000005       4256.40820       1.76935375    
  -4.56476784       3.05008101     -0.157000005       3917.76562       1.76955485    
  -3.96396494       2.64863706     -0.246999994       3917.76562       1.76955485    
  -4.40452194       1.82441294     -0.246999994       3917.76562       1.76955485    
  -5.07209921       2.10093188     -0.157000005       3917.76562       1.76955485    
  -3.88201594       3.88201594     -0.157000005       3409.89648       1.77159059    
  -3.37107491       3.37107491     -0.246999994       3409.89648       1.77159059    
  -3.96396494       2.64863706     -0.246999994       3409.89648       1.77159059    
  -4.56476784       3.05008101     -0.157000005       3409.89648       1.77159059    
  -3.05008101       4.56476784     -0.157000005       2809.97461       1.76987517    
  -2.64863706       3.96396494     -0.246999994       2809.97461       1.76987517    
  -3.37107491       3.37107491     -0.246999994       2809.97461       1.76987517    
  -3.88201594       3.88201594     -0.157000005       2809.97461       1.76987517    
  -2.10093188       5.07209921     -0.157000005       2075.45288       1.77143562    
  -1.82441294       4.40452194     -0.246999994       2075.45288       1.77143562    
  -2.64863706       3.96396494     -0.246999994       2075.45288       1.77143562    
  -3.05008101       4.56476784     -0.157000005       2075.45288       1.77143562    
  -1.07104599       5.38451099     -0.157000005       1281.42786       1.76966155    
 -0.930077016       4.67581606     -0.246999994       1281.42786       1.76966155    
  -1.82441294       4.40452194     -0.246999994       1281.42786       1.76966155    
  -2.10093188       5.07209921     -0.157000005       1281.42786       1.76966155    
   0.00000000       5.48999977     -0.157000005       425.496552       1.77003264    
   0.00000000       4.76741982     -0.246999994       425.496552       1.77003264    
 -0.930077016       4.67581606     -0.246999994       425.496552       1.77003264    
  -1.07104599       5.38451099     -0.157000005       425.496552       1.77003264    
   1.07104599       5.38451099     -0.157000005       445.004913      -1.37069869    
  0.930077016       4.67581606     -0.246999994       445.004913      -1.37069869    
   0.00000000       4.76741982     -0.246999994       445.004913      -1.37069869    
   0.00000000       5.48999977     -0.157000005       445.004913      -1.37069869    
   2.10093188       5.07209921     -0.157000005       1290.31604      -1.36916697    
   1.82441294       4.40452194     -0.246999994       1290.31604      -1.36916697    
  0.930077016       4.67581606     -0.246999994       1290.31604      -1.36916697    
   1.07104599       5.38451099     -0.157000005       1290.31604      -1.36916697    
   3.05008101       4.56476784     -0.157000005       2090.80542      -1.36979234    
   2.64863706       3.96396494     -0.246999994       2090.80542      -1.36979234    
   1.82441294       4.40452194     -0.246999994       2090.80542      -1.36979234    
   2.10093188       5.07209921     -0.157000005       2090.80542      -1.36979234    
   3.88201594       3.88201594     -0.157000005       2831.04810      -1.37239313    
   3.37107491       3.37107491     -0.246999994       2831.04810      -1.37239313    
   2.64863706       3.96396494     -0.246999994       2831.04810      -1.37239313    
   3.05008101       4.56476784     -0.157000005       2831.04810      -1.37239313    
   4.56476784       3.05008101     -0.157000005       3443.25562      -1.37209177    
   3.96396494       2.64863706     -0.246999994       3443.25562      -1.37209177    
   3.37107491       3.37107491     -0.246999994       3443.25562      -1.37209177    
   3.88201594       3.88201594     -0.157000005       3443.25562      -1.37209177    
   5.07209921       2.10093188     -0.157000005       3930.69043      -1.37248516    
   4.40452194       1.82441294     -0.246999994       3930.69043      -1.37248516    
   3.96396494       2.64863706     -0.246999994       3930.69043      -1.37248516    
   4.56476784       3.05008101     -0.157000005       3930.69043      -1.37248516    
   5.38451099       1.07104599     -0.157000005       4228.16309      -1.36982989    
   4.67581606      0.930077016     -0.246999994       4228.16309      -1.36982989    
   4.40452194       1.82441294     -0.246999994       4228.16309      -1.36982989    
   5.07209921       2.10093188     -0.157000005       4228.16309      -1.36982989    
   5.48999977       0.00000000     -0.157000005       4386.85547      -1.36932111    
   4.76741982       0.00000000     -0.246999994       4386.85547      -1.36932111    
   4.67581606      0.930077016     -0.246999994       4386.85547      -1.36932111    
   5.38451099       1.07104599     -0.157000005       4386.85547      -1.36932111    
   5.38451099      -1.07104599     -0.157000005       4382.61035      -1.36924279    
   4.67581606     -0.930077016     -0.246999994       4382.61035      -1.36924279    
   4.76741982       0.00000000     -0.246999994       4382.61035      -1.36924279    
   5.48999977       0.00000000     -0.157000005       4382.61035      -1.36924279    
   5.07209921      -2.10093188     -0.157000005       4211.40234      -1.36925507    
   4.40452194      -1.82441294     -0.246999994       4211.40234      -1.36925507    
   4.67581606     -0.930077016     -0.246999994       4211.40234      -1.36925507    
   5.38451099      -1.07104599     -0.157000005       4211.40234      -1.36925507    
   4.56476784      -3.05008101     -0.157000005       3878.37646      -1.36934173    
   3.96396494      -2.64863706     -0.246999994       3878.37646      -1.36934173    
   4.40452194      -1.82441294     -0.246999994       3878.37646      -1.36934173    
   5.07209921      -2.10093188     -0.157000005       3878.37646      -1.36934173    
   3.88201594      -3.88201594     -0.157000005       3398.81592      -1.36966467    
   3.37107491      -3.37107491     -0.246999994       3398.81592      -1.36966467    
   3.96396494      -2.64863706     -0.246999994       3398.81592      -1.36966467    
   4.56476784      -3.05008101     -0.157000005       3398.81592      -1.36966467    
   3.05008101      -4.56476784     -0.157000005       2804.36182      -1.37188649    
   2.64863706      -3.96396494     -0.246999994       2804.36182      -1.37188649    
   3.37107491      -3.37107491     -0.246999994       2804.36182      -1.37188649    
   3.88201594      -3.88201594     -0.157000005       2804.36182      -1.37188649    
   2.10093188      -5.07209921     -0.157000005       2070.77466      -1.37037957    
   1.82441294      -4.40452194     -0.246999994       2070.77466      -1.37037957    
   2.64863706      -3.96396494     -0.246999994       2070.77466      -1.37037957    
   3.05008101      -4.56476784     -0.157000005       2070.77466      -1.37037957    
   1.07104599      -5.38451099     -0.157000005       1270.93884      -1.37054849    
  0.930077016      -4.67581606     -0.246999994       1270.93884      -1.37054849    
   1.82441294      -4.40452194     -0.246999994       1270.93884      -1.37054849    
   2.10093188      -5.07209921     -0.157000005       1270.93884      -1.37054849    
   0.00000000      -1.87709999     -0.606999993       266.945618      -1.49162734    
   0.00000000      -1.36500001     -0.606999993       266.945618      -1.49162734    
  0.266297996      -1.33877206     -0.606999993       266.945618      -1.49162734    
  0.366203994      -1.84103203     -0.606999993       266.945618      -1.49162734    
   0.00000000      -1.87709999     -0.606999993       342.909882       1.66983402    
   0.00000000      -2.59967995     -0.517000020       342.909882       1.66983402    
 -0.507171988      -2.54972792     -0.517000020       342.909882       1.66983402    
 -0.366203994      -1.84103203     -0.606999993       342.909882       1.66983402    
 -0.366203994      -1.84103203     -0.606999993       252.644974       1.65594709    
 -0.266297996      -1.33877206     -0.606999993       252.644974       1.65594709    
   0.00000000      -1.36500001     -0.606999993       252.644974       1.65594709    
   0.00000000      -1.87709999     -0.606999993       252.644974       1.65594709    
 -0.366203994      -1.84103203     -0.606999993       1014.45154       1.66669381    
 -0.507171988      -2.54972792     -0.517000020       1014.45154       1.66669381    
 -0.994853973      -2.40179110     -0.517000020       1014.45154       1.66669381    
 -0.718334973      -1.73421395     -0.606999993       1014.45154       1.66669381    
 -0.718334973      -1.73421395     -0.606999993       762.159058       1.65331411    
 -0.522363007      -1.26109600     -0.606999993       762.159058       1.65331411    
 -0.266297996      -1.33877206     -0.606999993       762.159058       1.65331411    
 -0.366203994      -1.84103203     -0.606999993       762.159058       1.65331411    
 -0.718334973      -1.73421395     -0.606999993       1643.49243       1.66508031    
 -0.994853973      -2.40179110     -0.517000020       1643.49243       1.66508031    
  -1.44430494      -2.16155505     -0.517000020       1643.49243       1.66508031    
  -1.04286098      -1.56075203     -0.606999993       1643.49243       1.66508031    
  -1.04286098      -1.56075203     -0.606999993       1242.57642       1.65201175    
 -0.758352995      -1.13495600     -0.606999993       1242.57642       1.65201175    
 -0.522363007      -1.26109600     -0.606999993       1242.57642       1.65201175    
 -0.718334973      -1.73421395     -0.606999993       1242.57642       1.65201175    
  -1.04286098      -1.56075203     -0.606999993       2212.71582       1.66387010    
  -1.44430494      -2.16155505     -0.517000020       2212.71582       1.66387010    
  -1.83825099      -1.83825099     -0.517000020       2212.71582       1.66387010    
  -1.32730997      -1.32730997     -0.606999993       2212.71582       1.66387010    
  -1.32730997      -1.32730997     -0.606999993       1677.88867       1.65100527    
 -0.965201020     -0.965201020     -0.606999993       1677.88867       1.65100527    
 -0.758352995      -1.13495600     -0.606999993       1677.88867       1.65100527    
  -1.04286098      -1.56075203     -0.606999993       1677.88867       1.65100527    
  -1.32730997      -1.32730997     -0.606999993       2705.01636       1.66316020    
  -1.83825099      -1.83825099     -0.517000020       2705.01636       1.66316020    
  -2.16155505      -1.44430494     -0.517000020       2705.01636       1.66316020    
  -1.56075203      -1.04286098     -0.606999993       2705.01636       1.66316020    
  -1.56075203      -1.04286098     -0.606999993       2052.54663       1.65037262    
  -1.13495600     -0.758352995     -0.606999993       2052.54663       1.65037262    
 -0.965201020     -0.965201020     -0.606999993       2052.54663       1.65037262    
  -1.32730997      -1.32730997     -0.606999993       2052.54663       1.65037262    
  -1.56075203      -1.04286098     -0.606999993       3095.61572       1.66301501    
  -2.16155505      -1.44430494     -0.517000020       3095.61572       1.66301501    
  -2.40179110     -0.994853973     -0.517000020       3095.61572       1.66301501    
  -1.73421395     -0.718334973     -0.606999993       3095.61572       1.66301501    
  -1.73421395     -0.718334973     -0.606999993       2349.16626       1.65017521    
  -1.26109600     -0.522363007     -0.606999993       2349.16626       1.65017521    
  -1.13495600     -0.758352995     -0.606999993       2349.16626       1.65017521    
  -1.56075203      -1.04286098     -0.606999993       2349.16626       1.65017521    
  -1.73421395     -0.718334973     -0.606999993       3360.63745       1.66324031    
  -2.40179110     -0.994853973     -0.517000020       3360.63745       1.66324031    
  -2.54972792     -0.507171988     -0.517000020       3360.63745       1.66324031    
  -1.84103203     -0.366203994     -0.606999993       3360.63745       1.66324031    
  -1.84103203     -0.366203994     -0.606999993       2552.86206       1.65027070    
  -1.33877206     -0.266297996     -0.606999993       2552.86206       1.65027070    
  -1.26109600     -0.522363007     -0.606999993       2552.86206       1.65027070    
  -1.73421395     -0.718334973     -0.606999993       2552.86206       1.65027070    
  -1.84103203     -0.366203994     -0.606999993       3491.89014       1.66348207    
  -2.54972792     -0.507171988     -0.517000020       3491.89014       1.66348207    
  -2.59967995       0.00000000     -0.517000020       3491.89014       1.66348207    
  -1.87709999       0.00000000     -0.606999993       3491.89014       1.66348207    
  -1.87709999       0.00000000     -0.606999993       2656.29419       1.65040112    
  -1.36500001       0.00000000     -0.606999993       2656.29419       1.65040112    
  -1.33877206     -0.266297996     -0.606999993       2656.29419       1.65040112    
  -1.84103203     -0.366203994     -0.606999993       2656.29419       1.65040112    
  -1.87709999       0.00000000     -0.606999993       3492.94385       1.66343439    
  -2.59967995       0.00000000     -0.517000020       3492.94385       1.66343439    
  -2.54972792      0.507171988     -0.517000020       3492.94385       1.66343439    
  -1.84103203      0.366203994     -0.606999993       3492.94385       1.66343439    
  -1.84103203      0.366203994     -0.606999993       2658.50024       1.65033960    
  -1.33877206      0.266297996     -0.606999993       2658.50024       1.65033960    
  -1.36500001       0.00000000     -0.606999993       2658.50024       1.65033960    
  -1.87709999       0.00000000     -0.606999993       2658.50024       1.65033960    
  -1.84103203      0.366203994     -0.606999993       3365.18652       1.66304255    
  -2.54972792      0.507171988     -0.517000020       3365.18652       1.66304255    
  -2.40179110      0.994853973     -0.517000020       3365.18652       1.66304255    
  -1.73421395      0.718334973     -0.606999993       3365.18652       1.66304255    
  -1.73421395      0.718334973     -0.606999993       2560.00879       1.65004694    
  -1.26109600      0.522363007     -0.606999993       2560.00879       1.65004694    
  -1.33877206      0.266297996     -0.606999993       2560.00879       1.65004694    
  -1.84103203      0.366203994     -0.606999993       2560.00879       1.65004694    
  -1.73421395      0.718334973     -0.606999993       3105.31982       1.66254425    
  -2.40179110      0.994853973     -0.517000020       3105.31982       1.66254425    
  -2.16155505       1.44430494     -0.517000020       3105.31982       1.66254425    
  -1.56075203       1.04286098     -0.606999993       3105.31982       1.66254425    
  -1.56075203       1.04286098     -0.606999993       2361.81274       1.64969599    
  -1.13495600      0.758352995     -0.606999993       2361.81274       1.64969599    
  -1.26109600      0.522363007     -0.606999993       2361.81274       1.64969599    
  -1.73421395      0.718334973     -0.606999993       2361.81274       1.64969599    
  -1.56075203       1.04286098     -0.606999993       2717.98608       1.66231000    
  -2.16155505       1.44430494     -0.517000020       2717.98608       1.66231000    
  -1.83825099       1.83825099     -0.517000020       2717.98608       1.66231000    
  -1.32730997       1.32730997     -0.606999993       2717.98608       1.66231000    
  -1.32730997       1.32730997     -0.606999993       2069.79370       1.64954686    
 -0.965201020      0.965201020     -0.606999993       2069.79370       1.64954686    
  -1.13495600      0.758352995     -0.606999993       2069.79370       1.64954686    
  -1.56075203       1.04286098     -0.606999993       2069.79370       1.64954686    
  -1.32730997       1.32730997     -0.606999993       2224.77808       1.66259933    
  -1.83825099       1.83825099     -0.517000020       2224.77808       1.66259933    
  -1.44430494       2.16155505     -0.517000020       2224.77808       1.66259933    
  -1.04286098       1.56075203     -0.606999993       2224.77808       1.66259933    
  -1.04286098       1.56075203     -0.606999993       1697.44116       1.64978540    
 -0.758352995       1.13495600     -0.606999993       1697.44116       1.64978540    
 -0.965201020      0.965201020     -0.606999993       1697.44116       1.64978540    
  -1.32730997       1.32730997     -0.606999993       1697.44116       1.64978540    
  -1.04286098       1.56075203     -0.606999993       1652.39075       1.66332114    
  -1.44430494       2.16155505     -0.517000020       1652.39075       1.66332114    
 -0.994853973       2.40179110     -0.517000020       1652.39075       1.66332114    
 -0.718334973       1.73421395     -0.606999993       1652.39075       1.66332114    
 -0.718334973       1.73421395     -0.606999993       1262.00818       1.65036726    
 -0.522363007       1.26109600     -0.606999993       1262.00818       1.65036726    
 -0.758352995       1.13495600     -0.606999993       1262.00818       1.65036726    
  -1.04286098       1.56075203     -0.606999993       1262.00818       1.65036726    
 -0.718334973       1.73421395     -0.606999993       1020.18799       1.66410589    
 -0.994853973       2.40179110     -0.517000020       1020.18799       1.66410589    
 -0.507171988       2.54972792     -0.517000020       1020.18799       1.66410589    
 -0.366203994       1.84103203     -0.606999993       1020.18799       1.66410589    
 -0.366203994       1.84103203     -0.606999993       779.879272       1.65104401    
 -0.266297996       1.33877206     -0.606999993       779.879272       1.65104401    
 -0.522363007       1.26109600     -0.606999993       779.879272       1.65104401    
 -0.718334973       1.73421395     -0.606999993       779.879272       1.65104401    
 -0.366203994       1.84103203     -0.606999993       345.998413       1.66369820    
 -0.507171988       2.54972792     -0.517000020       345.998413       1.66369820    
   0.00000000       2.59967995     -0.517000020       345.998413       1.66369820    
   0.00000000       1.87709999     -0.606999993       345.998413       1.66369820    
   0.00000000       1.87709999     -0.606999993       267.567535       1.65139401    
   0.00000000       1.36500001     -0.606999993       267.567535       1.65139401    
 -0.266297996       1.33877206     -0.606999993       267.567535       1.65139401    
 -0.366203994       1.84103203     -0.606999993       267.567535       1.65139401    
   0.00000000       1.87709999     -0.606999993       344.011566      -1.47481489    
   0.00000000       2.59967995     -0.517000020       344.011566      -1.47481489    
  0.507171988       2.54972792     -0.517000020       344.011566      -1.47481489    
  0.366203994       1.84103203     -0.606999993       344.011566      -1.47481489    
  0.366203994       1.84103203     -0.606999993       255.525146      -1.48985457    
  0.266297996       1.33877206     -0.606999993       255.525146      -1.48985457    
   0.00000000       1.36500001     -0.606999993       255.525146      -1.48985457    
   0.00000000       1.87709999     -0.606999993       255.525146      -1.48985457    
  0.366203994       1.84103203     -0.606999993       1018.21460      -1.47650707    
  0.507171988       2.54972792     -0.517000020       1018.21460      -1.47650707    
  0.994853973       2.40179110     -0.517000020       1018.21460      -1.47650707    
  0.718334973       1.73421395     -0.606999993       1018.21460      -1.47650707    
  0.718334973       1.73421395     -0.606999993       768.070618      -1.49044693    
  0.522363007       1.26109600     -0.606999993       768.070618      -1.49044693    
  0.266297996       1.33877206     -0.606999993       768.070618      -1.49044693    
  0.366203994       1.84103203     -0.606999993       768.070618      -1.49044693    
  0.718334973       1.73421395     -0.606999993       1650.39807      -1.47774971    
  0.994853973       2.40179110     -0.517000020       1650.39807      -1.47774971    
   1.44430494       2.16155505     -0.517000020       1650.39807      -1.47774971    
   1.04286098       1.56075203     -0.606999993       1650.39807      -1.47774971    
   1.04286098       1.56075203     -0.606999993       1250.79517      -1.49120927    
  0.758352995       1.13495600     -0.606999993       1250.79517      -1.49120927    
  0.522363007       1.26109600     -0.606999993       1250.79517      -1.49120927    
  0.718334973       1.73421395     -0.606999993       1250.79517      -1.49120927    
   1.04286098       1.56075203     -0.606999993       2222.63599      -1.47868347    
   1.44430494       2.16155505     -0.517000020       2222.63599      -1.47868347    
   1.83825099       1.83825099     -0.517000020       2222.63599      -1.47868347    
   1.32730997       1.32730997     -0.606999993       2222.63599      -1.47868347    
   1.32730997       1.32730997     -0.606999993       1686.97144      -1.49182618    
  0.965201020      0.965201020     -0.606999993       1686.97144      -1.49182618    
  0.758352995       1.13495600     -0.606999993       1686.97144      -1.49182618    
   1.04286098       1.56075203     -0.606999993       1686.97144      -1.49182618    
   1.32730997       1.32730997     -0.606999993       2715.50513      -1.47909856    
   1.83825099       1.83825099     -0.517000020       2715.50513      -1.47909856    
   2.16155505       1.44430494     -0.517000020       2715.50513      -1.47909856    
   1.56075203       1.04286098     -0.606999993       2715.50513      -1.47909856    
   1.56075203       1.04286098     -0.606999993       2060.31372      -1.49208677    
   1.13495600      0.758352995     -0.606999993       2060.31372      -1.49208677    
  0.965201020      0.965201020     -0.606999993       2060.31372      -1.49208677    
   1.32730997       1.32730997     -0.606999993       2060.31372      -1.49208677    
   1.56075203       1.04286098     -0.606999993       3102.37256      -1.47894585    
   2.16155505       1.44430494     -0.517000020       3102.37256      -1.47894585    
   2.40179110      0.994853973     -0.517000020       3102.37256      -1.47894585    
   1.73421395      0.718334973     -0.606999993       3102.37256      -1.47894585    
   1.73421395      0.718334973     -0.606999993       2353.72998      -1.49195087    
   1.26109600      0.522363007     -0.606999993       2353.72998      -1.49195087    
   1.13495600      0.758352995     -0.606999993       2353.72998      -1.49195087    
   1.56075203       1.04286098     -0.606999993       2353.72998      -1.49195087    
   1.73421395      0.718334973     -0.606999993       3361.75659      -1.47851026    
   2.40179110      0.994853973     -0.517000020       3361.75659      -1.47851026    
   2.54972792      0.507171988     -0.517000020       3361.75659      -1.47851026    
   1.84103203      0.366203994     -0.606999993       3361.75659      -1.47851026    
   1.84103203      0.366203994     -0.606999993       2553.52344      -1.49161482    
   1.33877206      0.266297996     -0.606999993       2553.52344      -1.49161482    
   1.26109600      0.522363007     -0.606999993       2553.52344      -1.49161482    
   1.73421395      0.718334973     -0.606999993       2553.52344      -1.49161482    
   1.84103203      0.366203994     -0.606999993       3489.22803      -1.47818744    
   2.54972792      0.507171988     -0.517000020       3489.22803      -1.47818744    
   2.59967995       0.00000000     -0.517000020       3489.22803      -1.47818744    
   1.87709999       0.00000000     -0.606999993       3489.22803      -1.47818744    
   1.87709999       0.00000000     -0.606999993       2653.85522      -1.49135423    
   1.36500001       0.00000000     -0.606999993       2653.85522      -1.49135423    
   1.33877206      0.266297996     -0.606999993       2653.85522      -1.49135423    
   1.84103203      0.366203994     -0.606999993       2653.85522      -1.49135423    
   1.87709999       0.00000000     -0.606999993       3488.23242      -1.47822571    
   2.59967995       0.00000000     -0.517000020       3488.23242      -1.47822571    
   2.54972792     -0.507171988     -0.517000020       3488.23242      -1.47822571    
   1.84103203     -0.366203994     -0.606999993       3488.23242      -1.47822571    
   1.84103203     -0.366203994     -0.606999993       2653.77832      -1.49134505    
   1.33877206     -0.266297996     -0.606999993       2653.77832      -1.49134505    
   1.36500001       0.00000000     -0.606999993       2653.77832      -1.49134505    
   1.87709999       0.00000000     -0.606999993       2653.77832      -1.49134505    
   1.84103203     -0.366203994     -0.606999993       3357.35156      -1.47857797    
   2.54972792     -0.507171988     -0.517000020       3357.35156      -1.47857797    
   2.40179110     -0.994853973     -0.517000020       3357.35156      -1.47857797    
   1.73421395     -0.718334973     -0.606999993       3357.35156      -1.47857797    
   1.73421395     -0.718334973     -0.606999993       2552.76294      -1.49155378    
   1.26109600     -0.522363007     -0.606999993       2552.76294      -1.49155378    
   1.33877206     -0.266297996     -0.606999993       2552.76294      -1.49155378    
   1.84103203     -0.366203994     -0.606999993       2552.76294      -1.49155378    
   1.73421395     -0.718334973     -0.606999993       3093.06177      -1.47895157    
   2.40179110     -0.994853973     -0.517000020       3093.06177      -1.47895157    
   2.16155505      -1.44430494     -0.517000020       3093.06177      -1.47895157    
   1.56075203      -1.04286098     -0.606999993       3093.06177      -1.47895157    
   1.56075203      -1.04286098     -0.606999993       2351.75366      -1.49175549    
   1.13495600     -0.758352995     -0.606999993       2351.75366      -1.49175549    
   1.26109600     -0.522363007     -0.606999993       2351.75366      -1.49175549    