VARIABLES="w (rad/s)"  
"A   1   1" "B   1   1"
"A   1   2" "B   1   2"
"A   1   3" "B   1   3"
"A   1   4" "B   1   4"
"A   1   5" "B   1   5"
"A   1   6" "B   1   6"
"A   2   1" "B   2   1"
"A   2   2" "B   2   2"
"A   2   3" "B   2   3"
"A   2   4" "B   2   4"
"A   2   5" "B   2   5"
"A   2   6" "B   2   6"
"A   3   1" "B   3   1"
"A   3   2" "B   3   2"
"A   3   3" "B   3   3"
"A   3   4" "B   3   4"
"A   3   5" "B   3   5"
"A   3   6" "B   3   6"
"A   4   1" "B   4   1"
"A   4   2" "B   4   2"
"A   4   3" "B   4   3"
"A   4   4" "B   4   4"
"A   4   5" "B   4   5"
"A   4   6" "B   4   6"
"A   5   1" "B   5   1"
"A   5   2" "B   5   2"
"A   5   3" "B   5   3"
"A   5   4" "B   5   4"
"A   5   5" "B   5   5"
"A   5   6" "B   5   6"
"A   6   1" "B   6   1"
"A   6   2" "B   6   2"
"A   6   3" "B   6   3"
"A   6   4" "B   6   4"
"A   6   5" "B   6   5"
"A   6   6" "B   6   6"
Zone t="Motion of body    1 in DoF   1",I=    50,F=POINT
  0.1000000E+00 -0.4762648E+04  0.1667443E-04  0.9110604E+02  0.2102199E-06 -0.5382155E+02 -0.4732052E-01 -0.2644508E+02  0.2340032E-05  0.2002612E+05  0.5775890E-03  0.1454463E+01 -0.6065239E-08  0.3014216E+04  0.3825679E-03 -0.4287386E+02  0.7227762E-06  0.5578008E+01 -0.3403171E-03  0.3936855E+03  0.5165599E-05  0.1755908E+05 -0.4056905E-03 -0.3717003E+01 -0.1630779E-05 -0.4762648E+04  0.1667443E-04  0.9110604E+02  0.2102199E-06 -0.5382155E+02 -0.4732052E-01 -0.2644508E+02  0.2340032E-05  0.2002612E+05  0.5775890E-03  0.1454463E+01 -0.6065239E-08  0.3014216E+04  0.3825679E-03 -0.4287386E+02  0.7227762E-06  0.5578008E+01 -0.3403171E-03  0.3936855E+03  0.5165599E-05  0.1755908E+05 -0.4056905E-03 -0.3717003E+01 -0.1630779E-05 -0.4762648E+04  0.1667443E-04  0.9110604E+02  0.2102199E-06 -0.5382155E+02 -0.4732052E-01 -0.2644508E+02  0.2340032E-05  0.2002612E+05  0.5775890E-03  0.1454463E+01 -0.6065239E-08  0.3014216E+04  0.3825679E-03 -0.4287386E+02  0.7227762E-06  0.5578008E+01 -0.3403171E-03  0.3936855E+03  0.5165599E-05  0.1755908E+05 -0.4056905E-03 -0.3717003E+01 -0.1630779E-05
  0.2204082E+00 -0.4697854E+04  0.5330760E-02  0.8978188E+02  0.1692966E-04 -0.5467814E+02 -0.4846592E+00 -0.2479728E+02 -0.3778982E-04  0.2031037E+05  0.1549302E+00  0.1463249E+01 -0.1153175E-06  0.3053866E+04  0.9665541E-01 -0.4266258E+02  0.1046064E-04  0.5650504E+01  0.2780946E-02  0.3906332E+03  0.4159594E-03  0.1757085E+05 -0.1124886E+00 -0.4109412E+01 -0.2584670E-03 -0.4697854E+04  0.5330760E-02  0.8978188E+02  0.1692966E-04 -0.5467814E+02 -0.4846592E+00 -0.2479728E+02 -0.3778982E-04  0.2031037E+05  0.1549302E+00  0.1463249E+01 -0.1153175E-06  0.3053866E+04  0.9665541E-01 -0.4266258E+02  0.1046064E-04  0.5650504E+01  0.2780946E-02  0.3906332E+03  0.4159594E-03  0.1757085E+05 -0.1124886E+00 -0.4109412E+01 -0.2584670E-03 -0.4697854E+04  0.5330760E-02  0.8978188E+02  0.1692966E-04 -0.5467814E+02 -0.4846592E+00 -0.2479728E+02 -0.3778982E-04  0.2031037E+05  0.1549302E+00  0.1463249E+01 -0.1153175E-06  0.3053866E+04  0.9665541E-01 -0.4266258E+02  0.1046064E-04  0.5650504E+01  0.2780946E-02  0.3906332E+03  0.4159594E-03  0.1757085E+05 -0.1124886E+00 -0.4109412E+01 -0.2584670E-03
  0.3408163E+00 -0.4583987E+04  0.1135666E+00  0.8745516E+02  0.3098266E-03 -0.5447312E+02 -0.1636335E+01 -0.2010286E+02 -0.3668884E-03  0.2081596E+05  0.3212827E+01  0.1478085E+01  0.1070739E-04  0.3138091E+04  0.1909891E+01 -0.4241598E+02  0.4653913E-03  0.5757936E+01  0.4216575E-01  0.3860692E+03  0.4127709E-02  0.1760686E+05 -0.1969782E+01 -0.4842819E+01 -0.4897441E-02 -0.4583987E+04  0.1135666E+00  0.8745516E+02  0.3098266E-03 -0.5447312E+02 -0.1636335E+01 -0.2010286E+02 -0.3668884E-03  0.2081596E+05  0.3212827E+01  0.1478085E+01  0.1070739E-04  0.3138091E+04  0.1909891E+01 -0.4241598E+02  0.4653913E-03  0.5757936E+01  0.4216575E-01  0.3860692E+03  0.4127709E-02  0.1760686E+05 -0.1969782E+01 -0.4842819E+01 -0.4897441E-02 -0.4583987E+04  0.1135666E+00  0.8745516E+02  0.3098266E-03 -0.5447312E+02 -0.1636335E+01 -0.2010286E+02 -0.3668884E-03  0.2081596E+05  0.3212827E+01  0.1478085E+01  0.1070739E-04  0.3138091E+04  0.1909891E+01 -0.4241598E+02  0.4653913E-03  0.5757936E+01  0.4216575E-01  0.3860692E+03  0.4127709E-02  0.1760686E+05 -0.1969782E+01 -0.4842819E+01 -0.4897441E-02
  0.4612245E+00 -0.4421284E+04  0.9513194E+00  0.8435158E+02  0.2153948E-02 -0.5341874E+02 -0.3568349E+01 -0.1364837E+02  0.3346081E-02  0.2157039E+05  0.2603911E+02  0.1498648E+01  0.1203894E-03  0.3281388E+04  0.1440055E+02 -0.4211432E+02  0.5220430E-03  0.5852335E+01  0.1780883E+00  0.3798429E+03  0.2747108E-01  0.1769294E+05 -0.1202884E+02 -0.5943733E+01 -0.3948342E-01 -0.4421284E+04  0.9513194E+00  0.8435158E+02  0.2153948E-02 -0.5341874E+02 -0.3568349E+01 -0.1364837E+02  0.3346081E-02  0.2157039E+05  0.2603911E+02  0.1498648E+01  0.1203894E-03  0.3281388E+04  0.1440055E+02 -0.4211432E+02  0.5220430E-03  0.5852335E+01  0.1780883E+00  0.3798429E+03  0.2747108E-01  0.1769294E+05 -0.1202884E+02 -0.5943733E+01 -0.3948342E-01 -0.4421284E+04  0.9513194E+00  0.8435158E+02  0.2153948E-02 -0.5341874E+02 -0.3568349E+01 -0.1364837E+02  0.3346081E-02  0.2157039E+05  0.2603911E+02  0.1498648E+01  0.1203894E-03  0.3281388E+04  0.1440055E+02 -0.4211432E+02  0.5220430E-03  0.5852335E+01  0.1780883E+00  0.3798429E+03  0.2747108E-01  0.1769294E+05 -0.1202884E+02 -0.5943733E+01 -0.3948342E-01
  0.5816327E+00 -0.4209362E+04  0.4847311E+01  0.8045094E+02  0.8052661E-02 -0.5123301E+02 -0.6049340E+01 -0.6014387E+01  0.5396519E-01  0.2265635E+05  0.1273291E+03  0.1529863E+01  0.7664969E-03  0.3487045E+04  0.6428986E+02 -0.4178393E+02 -0.1581058E-01  0.5807787E+01  0.4494617E+00  0.3719809E+03  0.1180437E+00  0.1786526E+05 -0.3714492E+02 -0.7495430E+01 -0.1900349E+00 -0.4209362E+04  0.4847311E+01  0.8045094E+02  0.8052661E-02 -0.5123301E+02 -0.6049340E+01 -0.6014387E+01  0.5396519E-01  0.2265635E+05  0.1273291E+03  0.1529863E+01  0.7664969E-03  0.3487045E+04  0.6428986E+02 -0.4178393E+02 -0.1581058E-01  0.5807787E+01  0.4494617E+00  0.3719809E+03  0.1180437E+00  0.1786526E+05 -0.3714492E+02 -0.7495430E+01 -0.1900349E+00 -0.4209362E+04  0.4847311E+01  0.8045094E+02  0.8052661E-02 -0.5123301E+02 -0.6049340E+01 -0.6014387E+01  0.5396519E-01  0.2265635E+05  0.1273291E+03  0.1529863E+01  0.7664969E-03  0.3487045E+04  0.6428986E+02 -0.4178393E+02 -0.1581058E-01  0.5807787E+01  0.4494617E+00  0.3719809E+03  0.1180437E+00  0.1786526E+05 -0.3714492E+02 -0.7495430E+01 -0.1900349E+00
  0.7020409E+00 -0.3948839E+04  0.1800246E+02  0.7592362E+02  0.1751296E-01 -0.4795885E+02 -0.8602238E+01  0.2509371E+01  0.3531756E+00  0.2408052E+05  0.4505709E+03  0.1573869E+01  0.3399825E-02  0.3746327E+04  0.2043384E+03 -0.4154812E+02 -0.1170445E+00  0.5541877E+01  0.8311066E+00  0.3629343E+03  0.3909608E+00  0.1822784E+05 -0.5305056E+02 -0.9505433E+01 -0.6600944E+00 -0.3948839E+04  0.1800246E+02  0.7592362E+02  0.1751296E-01 -0.4795885E+02 -0.8602238E+01  0.2509371E+01  0.3531756E+00  0.2408052E+05  0.4505709E+03  0.1573869E+01  0.3399825E-02  0.3746327E+04  0.2043384E+03 -0.4154812E+02 -0.1170445E+00  0.5541877E+01  0.8311066E+00  0.3629343E+03  0.3909608E+00  0.1822784E+05 -0.5305056E+02 -0.9505433E+01 -0.6600944E+00 -0.3948839E+04  0.1800246E+02  0.7592362E+02  0.1751296E-01 -0.4795885E+02 -0.8602238E+01  0.2509371E+01  0.3531756E+00  0.2408052E+05  0.4505709E+03  0.1573869E+01  0.3399825E-02  0.3746327E+04  0.2043384E+03 -0.4154812E+02 -0.1170445E+00  0.5541877E+01  0.8311066E+00  0.3629343E+03  0.3909608E+00  0.1822784E+05 -0.5305056E+02 -0.9505433E+01 -0.6600944E+00
  0.8224490E+00 -0.3641614E+04  0.5322723E+02  0.7083984E+02  0.1123241E-01 -0.4477003E+02 -0.1112225E+02  0.1413282E+02  0.1530785E+01  0.2577989E+05  0.1261896E+04  0.1630599E+01  0.1182103E-01  0.3990068E+04  0.5071263E+03 -0.4131168E+02 -0.4818157E+00  0.5147549E+01  0.1264846E+01  0.3532269E+03  0.1148787E+01  0.1876966E+05  0.5781561E+02 -0.1182959E+02 -0.1806793E+01 -0.3641614E+04  0.5322723E+02  0.7083984E+02  0.1123241E-01 -0.4477003E+02 -0.1112225E+02  0.1413282E+02  0.1530785E+01  0.2577989E+05  0.1261896E+04  0.1630599E+01  0.1182103E-01  0.3990068E+04  0.5071263E+03 -0.4131168E+02 -0.4818157E+00  0.5147549E+01  0.1264846E+01  0.3532269E+03  0.1148787E+01  0.1876966E+05  0.5781561E+02 -0.1182959E+02 -0.1806793E+01 -0.3641614E+04  0.5322723E+02  0.7083984E+02  0.1123241E-01 -0.4477003E+02 -0.1112225E+02  0.1413282E+02  0.1530785E+01  0.2577989E+05  0.1261896E+04  0.1630599E+01  0.1182103E-01  0.3990068E+04  0.5071263E+03 -0.4131168E+02 -0.4818157E+00  0.5147549E+01  0.1264846E+01  0.3532269E+03  0.1148787E+01  0.1876966E+05  0.5781561E+02 -0.1182959E+02 -0.1806793E+01
  0.9428571E+00 -0.3298439E+04  0.1313576E+03  0.6532418E+02 -0.7642557E-01 -0.4144052E+02 -0.1330137E+02  0.2617761E+02  0.4942690E+01  0.2756192E+05  0.2935200E+04  0.1704421E+01  0.3386691E-01  0.4149032E+04  0.1034855E+04 -0.4109823E+02 -0.1417729E+01  0.4628582E+01  0.1664683E+01  0.3430106E+03  0.3107839E+01  0.1951906E+05  0.5532016E+03 -0.1417884E+02 -0.4101576E+01 -0.3298439E+04  0.1313576E+03  0.6532418E+02 -0.7642557E-01 -0.4144052E+02 -0.1330137E+02  0.2617761E+02  0.4942690E+01  0.2756192E+05  0.2935200E+04  0.1704421E+01  0.3386691E-01  0.4149032E+04  0.1034855E+04 -0.4109823E+02 -0.1417729E+01  0.4628582E+01  0.1664683E+01  0.3430106E+03  0.3107839E+01  0.1951906E+05  0.5532016E+03 -0.1417884E+02 -0.4101576E+01 -0.3298439E+04  0.1313576E+03  0.6532418E+02 -0.7642557E-01 -0.4144052E+02 -0.1330137E+02  0.2617761E+02  0.4942690E+01  0.2756192E+05  0.2935200E+04  0.1704421E+01  0.3386691E-01  0.4149032E+04  0.1034855E+04 -0.4109823E+02 -0.1417729E+01  0.4628582E+01  0.1664683E+01  0.3430106E+03  0.3107839E+01  0.1951906E+05  0.5532016E+03 -0.1417884E+02 -0.4101576E+01
  0.1063265E+01 -0.2938271E+04  0.2781599E+03  0.5958525E+02 -0.3848757E+00 -0.3849013E+02 -0.1533717E+02  0.3909964E+02  0.1282541E+02  0.2904255E+05  0.5834468E+04  0.1793450E+01  0.8248017E-01  0.4131421E+04  0.1793545E+04 -0.4055706E+02 -0.3256138E+01  0.4082716E+01  0.1984364E+01  0.3323113E+03  0.7510574E+01  0.2024565E+05  0.1770660E+04 -0.1603607E+02 -0.7933438E+01 -0.2938271E+04  0.2781599E+03  0.5958525E+02 -0.3848757E+00 -0.3849013E+02 -0.1533717E+02  0.3909964E+02  0.1282541E+02  0.2904255E+05  0.5834468E+04  0.1793450E+01  0.8248017E-01  0.4131421E+04  0.1793545E+04 -0.4055706E+02 -0.3256138E+01  0.4082716E+01  0.1984364E+01  0.3323113E+03  0.7510574E+01  0.2024565E+05  0.1770660E+04 -0.1603607E+02 -0.7933438E+01 -0.2938271E+04  0.2781599E+03  0.5958525E+02 -0.3848757E+00 -0.3849013E+02 -0.1533717E+02  0.3909964E+02  0.1282541E+02  0.2904255E+05  0.5834468E+04  0.1793450E+01  0.8248017E-01  0.4131421E+04  0.1793545E+04 -0.4055706E+02 -0.3256138E+01  0.4082716E+01  0.1984364E+01  0.3323113E+03  0.7510574E+01  0.2024565E+05  0.1770660E+04 -0.1603607E+02 -0.7933438E+01
  0.1183674E+01 -0.2586934E+04  0.5153056E+03  0.5377098E+02 -0.1113751E+01 -0.3532903E+02 -0.1661201E+02  0.5042775E+02  0.2753626E+02  0.2979658E+05  0.1011054E+05  0.1889675E+01  0.1742127E+00  0.3881137E+04  0.2703669E+04 -0.3921776E+02 -0.6104717E+01  0.3532726E+01  0.2162151E+01  0.3199749E+03  0.1570640E+02  0.2057677E+05  0.3926814E+04 -0.1683857E+02 -0.1335052E+02 -0.2586934E+04  0.5153056E+03  0.5377098E+02 -0.1113751E+01 -0.3532903E+02 -0.1661201E+02  0.5042775E+02  0.2753626E+02  0.2979658E+05  0.1011054E+05  0.1889675E+01  0.1742127E+00  0.3881137E+04  0.2703669E+04 -0.3921776E+02 -0.6104717E+01  0.3532726E+01  0.2162151E+01  0.3199749E+03  0.1570640E+02  0.2057677E+05  0.3926814E+04 -0.1683857E+02 -0.1335052E+02 -0.2586934E+04  0.5153056E+03  0.5377098E+02 -0.1113751E+01 -0.3532903E+02 -0.1661201E+02  0.5042775E+02  0.2753626E+02  0.2979658E+05  0.1011054E+05  0.1889675E+01  0.1742127E+00  0.3881137E+04  0.2703669E+04 -0.3921776E+02 -0.6104717E+01  0.3532726E+01  0.2162151E+01  0.3199749E+03  0.1570640E+02  0.2057677E+05  0.3926814E+04 -0.1683857E+02 -0.1335052E+02
  0.1304082E+01 -0.2272198E+04  0.8495301E+03  0.4819159E+02 -0.2434562E+01 -0.3270188E+02 -0.1781777E+02  0.5718107E+02  0.4998034E+02  0.2949105E+05  0.1554393E+05  0.1984364E+01  0.3250032E+00  0.3422639E+04  0.3620592E+04 -0.3680169E+02 -0.9596522E+01  0.3061173E+01  0.2226215E+01  0.3045783E+03  0.2797575E+02  0.2020837E+05  0.6909857E+04 -0.1629496E+02 -0.1989599E+02 -0.2272198E+04  0.8495301E+03  0.4819159E+02 -0.2434562E+01 -0.3270188E+02 -0.1781777E+02  0.5718107E+02  0.4998034E+02  0.2949105E+05  0.1554393E+05  0.1984364E+01  0.3250032E+00  0.3422639E+04  0.3620592E+04 -0.3680169E+02 -0.9596522E+01  0.3061173E+01  0.2226215E+01  0.3045783E+03  0.2797575E+02  0.2020837E+05  0.6909857E+04 -0.1629496E+02 -0.1989599E+02 -0.2272198E+04  0.8495301E+03  0.4819159E+02 -0.2434562E+01 -0.3270188E+02 -0.1781777E+02  0.5718107E+02  0.4998034E+02  0.2949105E+05  0.1554393E+05  0.1984364E+01  0.3250032E+00  0.3422639E+04  0.3620592E+04 -0.3680169E+02 -0.9596522E+01  0.3061173E+01  0.2226215E+01  0.3045783E+03  0.2797575E+02  0.2020837E+05  0.6909857E+04 -0.1629496E+02 -0.1989599E+02
  0.1424490E+01 -0.2012764E+04  0.1267989E+04  0.4312654E+02 -0.4384522E+01 -0.3037786E+02 -0.1902481E+02  0.5686512E+02  0.7831738E+02  0.2806579E+05  0.2157310E+05  0.2065871E+01  0.5452396E+00  0.2836936E+04  0.4394733E+04 -0.3342279E+02 -0.1297412E+02  0.2682531E+01  0.2193768E+01  0.2852563E+03  0.4266890E+02  0.1905640E+05  0.1026807E+05 -0.1444434E+02 -0.2672547E+02 -0.2012764E+04  0.1267989E+04  0.4312654E+02 -0.4384522E+01 -0.3037786E+02 -0.1902481E+02  0.5686512E+02  0.7831738E+02  0.2806579E+05  0.2157310E+05  0.2065871E+01  0.5452396E+00  0.2836936E+04  0.4394733E+04 -0.3342279E+02 -0.1297412E+02  0.2682531E+01  0.2193768E+01  0.2852563E+03  0.4266890E+02  0.1905640E+05  0.1026807E+05 -0.1444434E+02 -0.2672547E+02 -0.2012764E+04  0.1267989E+04  0.4312654E+02 -0.4384522E+01 -0.3037786E+02 -0.1902481E+02  0.5686512E+02  0.7831738E+02  0.2806579E+05  0.2157310E+05  0.2065871E+01  0.5452396E+00  0.2836936E+04  0.4394733E+04 -0.3342279E+02 -0.1297412E+02  0.2682531E+01  0.2193768E+01  0.2852563E+03  0.4266890E+02  0.1905640E+05  0.1026807E+05 -0.1444434E+02 -0.2672547E+02
  0.1544898E+01 -0.1813938E+04  0.1742904E+04  0.3868872E+02 -0.6819768E+01 -0.2828377E+02 -0.2096095E+02  0.4880238E+02  0.1079924E+03  0.2570336E+05  0.2749632E+05  0.2125136E+01  0.8371279E+00  0.2200283E+04  0.4926242E+04 -0.2932079E+02 -0.1540615E+02  0.2364215E+01  0.2119287E+01  0.2619895E+03  0.5654064E+02  0.1722087E+05  0.1341231E+05 -0.1159170E+02 -0.3292449E+02 -0.1813938E+04  0.1742904E+04  0.3868872E+02 -0.6819768E+01 -0.2828377E+02 -0.2096095E+02  0.4880238E+02  0.1079924E+03  0.2570336E+05  0.2749632E+05  0.2125136E+01  0.8371279E+00  0.2200283E+04  0.4926242E+04 -0.2932079E+02 -0.1540615E+02  0.2364215E+01  0.2119287E+01  0.2619895E+03  0.5654064E+02  0.1722087E+05  0.1341231E+05 -0.1159170E+02 -0.3292449E+02 -0.1813938E+04  0.1742904E+04  0.3868872E+02 -0.6819768E+01 -0.2828377E+02 -0.2096095E+02  0.4880238E+02  0.1079924E+03  0.2570336E+05  0.2749632E+05  0.2125136E+01  0.8371279E+00  0.2200283E+04  0.4926242E+04 -0.2932079E+02 -0.1540615E+02  0.2364215E+01  0.2119287E+01  0.2619895E+03  0.5654064E+02  0.1722087E+05  0.1341231E+05 -0.1159170E+02 -0.3292449E+02
  0.1665306E+01 -0.1670937E+04  0.2240977E+04  0.3503300E+02 -0.9396072E+01 -0.2653217E+02 -0.1978965E+02  0.3550647E+02  0.1336782E+03  0.2268669E+05  0.3268919E+05  0.2148699E+01  0.1192297E+01  0.1605109E+04  0.5193180E+04 -0.2516489E+02 -0.1630732E+02  0.2133724E+01  0.1826499E+01  0.2369444E+03  0.6586954E+02  0.1500928E+05  0.1581924E+05 -0.8233403E+01 -0.3781043E+02 -0.1670937E+04  0.2240977E+04  0.3503300E+02 -0.9396072E+01 -0.2653217E+02 -0.1978965E+02  0.3550647E+02  0.1336782E+03  0.2268669E+05  0.3268919E+05  0.2148699E+01  0.1192297E+01  0.1605109E+04  0.5193180E+04 -0.2516489E+02 -0.1630732E+02  0.2133724E+01  0.1826499E+01  0.2369444E+03  0.6586954E+02  0.1500928E+05  0.1581924E+05 -0.8233403E+01 -0.3781043E+02 -0.1670937E+04  0.2240977E+04  0.3503300E+02 -0.9396072E+01 -0.2653217E+02 -0.1978965E+02  0.3550647E+02  0.1336782E+03  0.2268669E+05  0.3268919E+05  0.2148699E+01  0.1192297E+01  0.1605109E+04  0.5193180E+04 -0.2516489E+02 -0.1630732E+02  0.2133724E+01  0.1826499E+01  0.2369444E+03  0.6586954E+02  0.1500928E+05  0.1581924E+05 -0.8233403E+01 -0.3781043E+02
  0.1785714E+01 -0.1576713E+04  0.2732066E+04  0.3213321E+02 -0.1178994E+02 -0.2510332E+02 -0.1994582E+02  0.1928326E+02  0.1519068E+03  0.1937319E+05  0.3673699E+05  0.2144369E+01  0.1605015E+01  0.1112482E+04  0.5217850E+04 -0.2133500E+02 -0.1559435E+02  0.1986081E+01  0.1627129E+01  0.2120698E+03  0.6911636E+02  0.1281688E+05  0.1735840E+05 -0.4836894E+01 -0.4102047E+02 -0.1576713E+04  0.2732066E+04  0.3213321E+02 -0.1178994E+02 -0.2510332E+02 -0.1994582E+02  0.1928326E+02  0.1519068E+03  0.1937319E+05  0.3673699E+05  0.2144369E+01  0.1605015E+01  0.1112482E+04  0.5217850E+04 -0.2133500E+02 -0.1559435E+02  0.1986081E+01  0.1627129E+01  0.2120698E+03  0.6911636E+02  0.1281688E+05  0.1735840E+05 -0.4836894E+01 -0.4102047E+02 -0.1576713E+04  0.2732066E+04  0.3213321E+02 -0.1178994E+02 -0.2510332E+02 -0.1994582E+02  0.1928326E+02  0.1519068E+03  0.1937319E+05  0.3673699E+05  0.2144369E+01  0.1605015E+01  0.1112482E+04  0.5217850E+04 -0.2133500E+02 -0.1559435E+02  0.1986081E+01  0.1627129E+01  0.2120698E+03  0.6911636E+02  0.1281688E+05  0.1735840E+05 -0.4836894E+01 -0.4102047E+02
  0.1906122E+01 -0.1516514E+04  0.3191867E+04  0.2974813E+02 -0.1368556E+02 -0.2409916E+02 -0.1989979E+02  0.1825232E+01  0.1587007E+03  0.1605990E+05  0.3943161E+05  0.2107743E+01  0.2059545E+01  0.7021827E+03  0.5036678E+04 -0.1813392E+02 -0.1350332E+02  0.1873840E+01  0.1405891E+01  0.1889930E+03  0.6569467E+02  0.1073626E+05  0.1788747E+05 -0.1708699E+01 -0.4249263E+02 -0.1516514E+04  0.3191867E+04  0.2974813E+02 -0.1368556E+02 -0.2409916E+02 -0.1989979E+02  0.1825232E+01  0.1587007E+03  0.1605990E+05  0.3943161E+05  0.2107743E+01  0.2059545E+01  0.7021827E+03  0.5036678E+04 -0.1813392E+02 -0.1350332E+02  0.1873840E+01  0.1405891E+01  0.1889930E+03  0.6569467E+02  0.1073626E+05  0.1788747E+05 -0.1708699E+01 -0.4249263E+02 -0.1516514E+04  0.3191867E+04  0.2974813E+02 -0.1368556E+02 -0.2409916E+02 -0.1989979E+02  0.1825232E+01  0.1587007E+03  0.1605990E+05  0.3943161E+05  0.2107743E+01  0.2059545E+01  0.7021827E+03  0.5036678E+04 -0.1813392E+02 -0.1350332E+02  0.1873840E+01  0.1405891E+01  0.1889930E+03  0.6569467E+02  0.1073626E+05  0.1788747E+05 -0.1708699E+01 -0.4249263E+02
  0.2026531E+01 -0.1482663E+04  0.3600776E+04  0.2786296E+02 -0.1469557E+02 -0.2304291E+02 -0.2115124E+02 -0.1364260E+02  0.1535944E+03  0.1292481E+05  0.4071544E+05  0.2039235E+01  0.2538982E+01  0.3998779E+03  0.4728300E+04 -0.1551635E+02 -0.1038191E+02  0.1815416E+01  0.1333787E+01  0.1682936E+03  0.5649196E+02  0.8960792E+04  0.1766442E+05  0.9869921E+00 -0.4234626E+02 -0.1482663E+04  0.3600776E+04  0.2786296E+02 -0.1469557E+02 -0.2304291E+02 -0.2115124E+02 -0.1364260E+02  0.1535944E+03  0.1292481E+05  0.4071544E+05  0.2039235E+01  0.2538982E+01  0.3998779E+03  0.4728300E+04 -0.1551635E+02 -0.1038191E+02  0.1815416E+01  0.1333787E+01  0.1682936E+03  0.5649196E+02  0.8960792E+04  0.1766442E+05  0.9869921E+00 -0.4234626E+02 -0.1482663E+04  0.3600776E+04  0.2786296E+02 -0.1469557E+02 -0.2304291E+02 -0.2115124E+02 -0.1364260E+02  0.1535944E+03  0.1292481E+05  0.4071544E+05  0.2039235E+01  0.2538982E+01  0.3998779E+03  0.4728300E+04 -0.1551635E+02 -0.1038191E+02  0.1815416E+01  0.1333787E+01  0.1682936E+03  0.5649196E+02  0.8960792E+04  0.1766442E+05  0.9869921E+00 -0.4234626E+02
  0.2146939E+01 -0.1462534E+04  0.3948512E+04  0.2615952E+02 -0.1493159E+02 -0.2249862E+02 -0.2197588E+02 -0.2586341E+02  0.1395752E+03  0.1013307E+05  0.4069586E+05  0.1945624E+01  0.3031324E+01  0.1869500E+03  0.4305473E+04 -0.1377159E+02 -0.6793655E+01  0.1773357E+01  0.1265349E+01  0.1516567E+03  0.4394392E+02  0.7522399E+04  0.1675618E+05  0.3093666E+01 -0.4085784E+02 -0.1462534E+04  0.3948512E+04  0.2615952E+02 -0.1493159E+02 -0.2249862E+02 -0.2197588E+02 -0.2586341E+02  0.1395752E+03  0.1013307E+05  0.4069586E+05  0.1945624E+01  0.3031324E+01  0.1869500E+03  0.4305473E+04 -0.1377159E+02 -0.6793655E+01  0.1773357E+01  0.1265349E+01  0.1516567E+03  0.4394392E+02  0.7522399E+04  0.1675618E+05  0.3093666E+01 -0.4085784E+02 -0.1462534E+04  0.3948512E+04  0.2615952E+02 -0.1493159E+02 -0.2249862E+02 -0.2197588E+02 -0.2586341E+02  0.1395752E+03  0.1013307E+05  0.4069586E+05  0.1945624E+01  0.3031324E+01  0.1869500E+03  0.4305473E+04 -0.1377159E+02 -0.6793655E+01  0.1773357E+01  0.1265349E+01  0.1516567E+03  0.4394392E+02  0.7522399E+04  0.1675618E+05  0.3093666E+01 -0.4085784E+02
  0.2267347E+01 -0.1450792E+04  0.4224433E+04  0.2467798E+02 -0.1413434E+02 -0.2184692E+02 -0.2384837E+02 -0.3406248E+02  0.1174113E+03  0.7726969E+04  0.3949937E+05  0.1826472E+01  0.3508916E+01  0.4452749E+02  0.3860169E+04 -0.1245841E+02 -0.3099034E+01  0.1737906E+01  0.1310875E+01  0.1375253E+03  0.2941595E+02  0.6379615E+04  0.1547095E+05  0.4679337E+01 -0.3829704E+02 -0.1450792E+04  0.4224433E+04  0.2467798E+02 -0.1413434E+02 -0.2184692E+02 -0.2384837E+02 -0.3406248E+02  0.1174113E+03  0.7726969E+04  0.3949937E+05  0.1826472E+01  0.3508916E+01  0.4452749E+02  0.3860169E+04 -0.1245841E+02 -0.3099034E+01  0.1737906E+01  0.1310875E+01  0.1375253E+03  0.2941595E+02  0.6379615E+04  0.1547095E+05  0.4679337E+01 -0.3829704E+02 -0.1450792E+04  0.4224433E+04  0.2467798E+02 -0.1413434E+02 -0.2184692E+02 -0.2384837E+02 -0.3406248E+02  0.1174113E+03  0.7726969E+04  0.3949937E+05  0.1826472E+01  0.3508916E+01  0.4452749E+02  0.3860169E+04 -0.1245841E+02 -0.3099034E+01  0.1737906E+01  0.1310875E+01  0.1375253E+03  0.2941595E+02  0.6379615E+04  0.1547095E+05  0.4679337E+01 -0.3829704E+02
  0.2387755E+01 -0.1438417E+04  0.4428541E+04  0.2307088E+02 -0.1259387E+02 -0.2105142E+02 -0.2637072E+02 -0.3816301E+02  0.8975183E+02  0.5762614E+04  0.3736541E+05  0.1692845E+01  0.3966584E+01 -0.3423406E+02  0.3362709E+04 -0.1177024E+02  0.1589858E+00  0.1659061E+01  0.1432080E+01  0.1267365E+03  0.1538466E+02  0.5542418E+04  0.1388061E+05  0.5697998E+01 -0.3502584E+02 -0.1438417E+04  0.4428541E+04  0.2307088E+02 -0.1259387E+02 -0.2105142E+02 -0.2637072E+02 -0.3816301E+02  0.8975183E+02  0.5762614E+04  0.3736541E+05  0.1692845E+01  0.3966584E+01 -0.3423406E+02  0.3362709E+04 -0.1177024E+02  0.1589858E+00  0.1659061E+01  0.1432080E+01  0.1267365E+03  0.1538466E+02  0.5542418E+04  0.1388061E+05  0.5697998E+01 -0.3502584E+02 -0.1438417E+04  0.4428541E+04  0.2307088E+02 -0.1259387E+02 -0.2105142E+02 -0.2637072E+02 -0.3816301E+02  0.8975183E+02  0.5762614E+04  0.3736541E+05  0.1692845E+01  0.3966584E+01 -0.3423406E+02  0.3362709E+04 -0.1177024E+02  0.1589858E+00  0.1659061E+01  0.1432080E+01  0.1267365E+03  0.1538466E+02  0.5542418E+04  0.1388061E+05  0.5697998E+01 -0.3502584E+02
  0.2508163E+01 -0.1422614E+04  0.4559132E+04  0.2161191E+02 -0.1044269E+02 -0.1832674E+02 -0.2931243E+02 -0.3917255E+02  0.6599944E+02  0.4206261E+04  0.3450086E+05  0.1548177E+01  0.4383569E+01 -0.7141983E+02  0.2921970E+04 -0.1123384E+02  0.2909700E+01  0.1526681E+01  0.1751515E+01  0.1174731E+03  0.3084959E+01  0.4916826E+04  0.1222762E+05  0.6288799E+01 -0.3126303E+02 -0.1422614E+04  0.4559132E+04  0.2161191E+02 -0.1044269E+02 -0.1832674E+02 -0.2931243E+02 -0.3917255E+02  0.6599944E+02  0.4206261E+04  0.3450086E+05  0.1548177E+01  0.4383569E+01 -0.7141983E+02  0.2921970E+04 -0.1123384E+02  0.2909700E+01  0.1526681E+01  0.1751515E+01  0.1174731E+03  0.3084959E+01  0.4916826E+04  0.1222762E+05  0.6288799E+01 -0.3126303E+02 -0.1422614E+04  0.4559132E+04  0.2161191E+02 -0.1044269E+02 -0.1832674E+02 -0.2931243E+02 -0.3917255E+02  0.6599944E+02  0.4206261E+04  0.3450086E+05  0.1548177E+01  0.4383569E+01 -0.7141983E+02  0.2921970E+04 -0.1123384E+02  0.2909700E+01  0.1526681E+01  0.1751515E+01  0.1174731E+03  0.3084959E+01  0.4916826E+04  0.1222762E+05  0.6288799E+01 -0.3126303E+02
  0.2628571E+01 -0.1397850E+04  0.4623428E+04  0.1990405E+02 -0.7807487E+01 -0.1730165E+02 -0.3148488E+02 -0.3670462E+02  0.3814245E+02  0.3044430E+04  0.3115977E+05  0.1398342E+01  0.4749110E+01 -0.7926559E+02  0.2433953E+04 -0.1091866E+02  0.5195971E+01  0.1438635E+01  0.1887092E+01  0.1098890E+03 -0.7600444E+01  0.4454206E+04  0.1050371E+05  0.6464852E+01 -0.2747257E+02 -0.1397850E+04  0.4623428E+04  0.1990405E+02 -0.7807487E+01 -0.1730165E+02 -0.3148488E+02 -0.3670462E+02  0.3814245E+02  0.3044430E+04  0.3115977E+05  0.1398342E+01  0.4749110E+01 -0.7926559E+02  0.2433953E+04 -0.1091866E+02  0.5195971E+01  0.1438635E+01  0.1887092E+01  0.1098890E+03 -0.7600444E+01  0.4454206E+04  0.1050371E+05  0.6464852E+01 -0.2747257E+02 -0.1397850E+04  0.4623428E+04  0.1990405E+02 -0.7807487E+01 -0.1730165E+02 -0.3148488E+02 -0.3670462E+02  0.3814245E+02  0.3044430E+04  0.3115977E+05  0.1398342E+01  0.4749110E+01 -0.7926559E+02  0.2433953E+04 -0.1091866E+02  0.5195971E+01  0.1438635E+01  0.1887092E+01  0.1098890E+03 -0.7600444E+01  0.4454206E+04  0.1050371E+05  0.6464852E+01 -0.2747257E+02
  0.2748980E+01 -0.1363769E+04  0.4628792E+04  0.1823142E+02 -0.5096525E+01 -0.1567130E+02 -0.3413614E+02 -0.3327722E+02  0.1815222E+02  0.2216606E+04  0.2756975E+05  0.1252023E+01  0.5072875E+01 -0.5660793E+02  0.2045160E+04 -0.1058922E+02  0.6652124E+01  0.1265211E+01  0.2057242E+01  0.1028853E+03 -0.1521779E+02  0.4184743E+04  0.8914995E+04  0.6342146E+01 -0.2352539E+02 -0.1363769E+04  0.4628792E+04  0.1823142E+02 -0.5096525E+01 -0.1567130E+02 -0.3413614E+02 -0.3327722E+02  0.1815222E+02  0.2216606E+04  0.2756975E+05  0.1252023E+01  0.5072875E+01 -0.5660793E+02  0.2045160E+04 -0.1058922E+02  0.6652124E+01  0.1265211E+01  0.2057242E+01  0.1028853E+03 -0.1521779E+02  0.4184743E+04  0.8914995E+04  0.6342146E+01 -0.2352539E+02 -0.1363769E+04  0.4628792E+04  0.1823142E+02 -0.5096525E+01 -0.1567130E+02 -0.3413614E+02 -0.3327722E+02  0.1815222E+02  0.2216606E+04  0.2756975E+05  0.1252023E+01  0.5072875E+01 -0.5660793E+02  0.2045160E+04 -0.1058922E+02  0.6652124E+01  0.1265211E+01  0.2057242E+01  0.1028853E+03 -0.1521779E+02  0.4184743E+04  0.8914995E+04  0.6342146E+01 -0.2352539E+02
  0.2869388E+01 -0.1318820E+04  0.4583863E+04  0.1656186E+02 -0.2336174E+01 -0.1518385E+02 -0.3839668E+02 -0.2891303E+02  0.1856655E+01  0.1658129E+04  0.2389555E+05  0.1106480E+01  0.5320477E+01 -0.3472559E+02  0.1676210E+04 -0.1038716E+02  0.7681936E+01  0.1200481E+01  0.2127696E+01  0.9692370E+02 -0.2067726E+02  0.3965054E+04  0.7412562E+04  0.6008969E+01 -0.1994762E+02 -0.1318820E+04  0.4583863E+04  0.1656186E+02 -0.2336174E+01 -0.1518385E+02 -0.3839668E+02 -0.2891303E+02  0.1856655E+01  0.1658129E+04  0.2389555E+05  0.1106480E+01  0.5320477E+01 -0.3472559E+02  0.1676210E+04 -0.1038716E+02  0.7681936E+01  0.1200481E+01  0.2127696E+01  0.9692370E+02 -0.2067726E+02  0.3965054E+04  0.7412562E+04  0.6008969E+01 -0.1994762E+02 -0.1318820E+04  0.4583863E+04  0.1656186E+02 -0.2336174E+01 -0.1518385E+02 -0.3839668E+02 -0.2891303E+02  0.1856655E+01  0.1658129E+04  0.2389555E+05  0.1106480E+01  0.5320477E+01 -0.3472559E+02  0.1676210E+04 -0.1038716E+02  0.7681936E+01  0.1200481E+01  0.2127696E+01  0.9692370E+02 -0.2067726E+02  0.3965054E+04  0.7412562E+04  0.6008969E+01 -0.1994762E+02
  0.2989796E+01 -0.1262559E+04  0.4501535E+04  0.1471524E+02 -0.3860578E-01 -0.1302421E+02 -0.3725954E+02 -0.2290813E+02 -0.1069597E+02  0.1328790E+04  0.2031906E+05  0.9730438E+00  0.5510415E+01  0.1114311E+02  0.1351290E+04 -0.1007371E+02  0.7885901E+01  0.1072082E+01  0.2232473E+01  0.9129533E+02 -0.2326761E+02  0.3846303E+04  0.6089105E+04  0.5463457E+01 -0.1671299E+02 -0.1262559E+04  0.4501535E+04  0.1471524E+02 -0.3860578E-01 -0.1302421E+02 -0.3725954E+02 -0.2290813E+02 -0.1069597E+02  0.1328790E+04  0.2031906E+05  0.9730438E+00  0.5510415E+01  0.1114311E+02  0.1351290E+04 -0.1007371E+02  0.7885901E+01  0.1072082E+01  0.2232473E+01  0.9129533E+02 -0.2326761E+02  0.3846303E+04  0.6089105E+04  0.5463457E+01 -0.1671299E+02 -0.1262559E+04  0.4501535E+04  0.1471524E+02 -0.3860578E-01 -0.1302421E+02 -0.3725954E+02 -0.2290813E+02 -0.1069597E+02  0.1328790E+04  0.2031906E+05  0.9730438E+00  0.5510415E+01  0.1114311E+02  0.1351290E+04 -0.1007371E+02  0.7885901E+01  0.1072082E+01  0.2232473E+01  0.9129533E+02 -0.2326761E+02  0.3846303E+04  0.6089105E+04  0.5463457E+01 -0.1671299E+02
  0.3110204E+01 -0.1197931E+04  0.4389146E+04  0.1317704E+02  0.2618851E+01 -0.1134058E+02 -0.3771210E+02 -0.2056042E+02 -0.1959769E+02  0.1146511E+04  0.1692749E+05  0.8534124E+00  0.5652238E+01  0.4842701E+02  0.1090381E+04 -0.9653893E+01  0.7855915E+01  0.9149529E+00  0.2097892E+01  0.8556136E+02 -0.2392094E+02  0.3762836E+04  0.4967285E+04  0.5188546E+01 -0.1361649E+02 -0.1197931E+04  0.4389146E+04  0.1317704E+02  0.2618851E+01 -0.1134058E+02 -0.3771210E+02 -0.2056042E+02 -0.1959769E+02  0.1146511E+04  0.1692749E+05  0.8534124E+00  0.5652238E+01  0.4842701E+02  0.1090381E+04 -0.9653893E+01  0.7855915E+01  0.9149529E+00  0.2097892E+01  0.8556136E+02 -0.2392094E+02  0.3762836E+04  0.4967285E+04  0.5188546E+01 -0.1361649E+02 -0.1197931E+04  0.4389146E+04  0.1317704E+02  0.2618851E+01 -0.1134058E+02 -0.3771210E+02 -0.2056042E+02 -0.1959769E+02  0.1146511E+04  0.1692749E+05  0.8534124E+00  0.5652238E+01  0.4842701E+02  0.1090381E+04 -0.9653893E+01  0.7855915E+01  0.9149529E+00  0.2097892E+01  0.8556136E+02 -0.2392094E+02  0.3762836E+04  0.4967285E+04  0.5188546E+01 -0.1361649E+02