VARIABLES="w (rad/s)"  
"abs(F   1   1)" "angle(F   1   1)"
"abs(F   1   2)" "angle(F   1   2)"
"abs(F   1   3)" "angle(F   1   3)"
"abs(F   1   4)" "angle(F   1   4)"
"abs(F   1   5)" "angle(F   1   5)"
"abs(F   1   6)" "angle(F   1   6)"
"abs(F   2   1)" "angle(F   2   1)"
"abs(F   2   2)" "angle(F   2   2)"
"abs(F   2   3)" "angle(F   2   3)"
"abs(F   2   4)" "angle(F   2   4)"
"abs(F   2   5)" "angle(F   2   5)"
"abs(F   2   6)" "angle(F   2   6)"
"abs(F   3   1)" "angle(F   3   1)"
"abs(F   3   2)" "angle(F   3   2)"
"abs(F   3   3)" "angle(F   3   3)"
"abs(F   3   4)" "angle(F   3   4)"
"abs(F   3   5)" "angle(F   3   5)"
"abs(F   3   6)" "angle(F   3   6)"
Zone t="Excitation force - beta =   0.000 deg",I=    50,F=POINT
  0.1000000E+00  0.3816629E+03 -0.1570764E+01  0.3272727E+00 -0.2289024E+01  0.8811676E+06 -0.8159100E-04  0.1732946E+02 -0.3912351E-01  0.8080812E+04 -0.1571449E+01  0.4396951E+00 -0.8841387E-02  0.4589616E+04 -0.7413003E+00  0.5482806E+03 -0.3093070E+01  0.1412151E+04 -0.3121608E+01  0.1348848E+04 -0.3051255E+01  0.2060087E+05  0.4217297E+00  0.4529043E+04  0.1184586E-02  0.0000000E+00  0.0000000E+00  0.0000000E+00  0.0000000E+00  0.0000000E+00  0.0000000E+00  0.0000000E+00  0.0000000E+00  0.0000000E+00  0.0000000E+00  0.0000000E+00  0.0000000E+00
  0.2204082E+00  0.1842830E+04 -0.1570682E+01  0.1559485E+01 -0.2250497E+01  0.8638675E+06 -0.1902993E-02  0.4315247E+02 -0.6061340E-01  0.3894945E+05 -0.1570944E+01  0.4376786E+00 -0.4436779E-01  0.1471882E+05 -0.1344680E+01  0.5120056E+03 -0.2909061E+01  0.2918888E+05 -0.3139186E+01  0.1267714E+04 -0.2700934E+01  0.4255993E+05  0.1115999E+01  0.4490888E+04  0.4196724E-02  0.0000000E+00  0.0000000E+00  0.0000000E+00  0.0000000E+00  0.0000000E+00  0.0000000E+00  0.0000000E+00  0.0000000E+00  0.0000000E+00  0.0000000E+00  0.0000000E+00  0.0000000E+00
  0.3408163E+00  0.4358236E+04 -0.1570542E+01  0.3720846E+01 -0.2226767E+01  0.8339781E+06 -0.9441620E-02  0.8530470E+02 -0.4549812E-01  0.9183400E+05 -0.1570730E+01  0.4558370E+00 -0.1052811E+00  0.3169512E+05 -0.1470933E+01  0.4907853E+03 -0.2628158E+01  0.6896473E+05  0.3135884E+01  0.1394074E+04 -0.2223836E+01  0.8298964E+05  0.1346748E+01  0.4407311E+04  0.4992897E-02  0.0000000E+00  0.0000000E+00  0.0000000E+00  0.0000000E+00  0.0000000E+00  0.0000000E+00  0.0000000E+00  0.0000000E+00  0.0000000E+00  0.0000000E+00  0.0000000E+00  0.0000000E+00
  0.4612245E+00  0.7851396E+04 -0.1569995E+01  0.6822420E+01 -0.2213884E+01  0.7942269E+06 -0.2620872E-01  0.1424472E+03 -0.1928670E-01  0.1647249E+06 -0.1570161E+01  0.5293636E+00 -0.1703512E+00  0.5141457E+05 -0.1512357E+01  0.5013396E+03 -0.2360383E+01  0.1098359E+06  0.3118800E+01  0.1702570E+04 -0.1872214E+01  0.1253883E+06  0.1427310E+01  0.4268279E+04 -0.4422186E-04  0.0000000E+00  0.0000000E+00  0.0000000E+00  0.0000000E+00  0.0000000E+00  0.0000000E+00  0.0000000E+00  0.0000000E+00  0.0000000E+00  0.0000000E+00  0.0000000E+00  0.0000000E+00
  0.5816327E+00  0.1220147E+05 -0.1568728E+01  0.1092250E+02 -0.2194037E+01  0.7473918E+06 -0.5404766E-01  0.2107218E+03  0.2715881E-01  0.2545869E+06 -0.1568883E+01  0.7035421E+00 -0.2066501E+00  0.7028268E+05 -0.1529632E+01  0.5159199E+03 -0.2192974E+01  0.1422207E+06  0.3090570E+01  0.1945895E+04 -0.1660675E+01  0.1565800E+06  0.1461631E+01  0.4066726E+04 -0.1280997E-01  0.0000000E+00  0.0000000E+00  0.0000000E+00  0.0000000E+00  0.0000000E+00  0.0000000E+00  0.0000000E+00  0.0000000E+00  0.0000000E+00  0.0000000E+00  0.0000000E+00  0.0000000E+00
  0.7020409E+00  0.1722138E+05 -0.1566736E+01  0.1608601E+02 -0.2164478E+01  0.6954309E+06 -0.9446466E-01  0.2855437E+03  0.9685394E-01  0.3569634E+06 -0.1566889E+01  0.1031759E+01 -0.2053512E+00  0.8542330E+05 -0.1537207E+01  0.5019464E+03 -0.2139004E+01  0.1603115E+06  0.3049508E+01  0.1973459E+04 -0.1515789E+01  0.1678144E+06  0.1476404E+01  0.3798185E+04 -0.3482927E-01  0.0000000E+00  0.0000000E+00  0.0000000E+00  0.0000000E+00  0.0000000E+00  0.0000000E+00  0.0000000E+00  0.0000000E+00  0.0000000E+00  0.0000000E+00  0.0000000E+00  0.0000000E+00
  0.8224490E+00  0.2263638E+05 -0.1564760E+01  0.2209284E+02 -0.2120168E+01  0.6402004E+06 -0.1498550E+00  0.3585393E+03  0.1865903E+00  0.4656187E+06 -0.1564915E+01  0.1574387E+01 -0.1835993E+00  0.9509130E+05 -0.1540574E+01  0.4529702E+03 -0.2194713E+01  0.1630714E+06  0.2993053E+01  0.1778267E+04 -0.1385452E+01  0.1562636E+06  0.1478237E+01  0.3467676E+04 -0.6870575E-01  0.0000000E+00  0.0000000E+00  0.0000000E+00  0.0000000E+00  0.0000000E+00  0.0000000E+00  0.0000000E+00  0.0000000E+00  0.0000000E+00  0.0000000E+00  0.0000000E+00  0.0000000E+00
  0.9428571E+00  0.2807916E+05 -0.1564678E+01  0.2831781E+02 -0.2059372E+01  0.5838848E+06 -0.2228630E+00  0.4154050E+03  0.2886081E+00  0.5726549E+06 -0.1564835E+01  0.2394300E+01 -0.1572948E+00  0.9876891E+05 -0.1543489E+01  0.3860600E+03 -0.2362108E+01  0.1531932E+06  0.2918304E+01  0.1448643E+04 -0.1231174E+01  0.1251561E+06  0.1463861E+01  0.3092286E+04 -0.1179091E+00  0.0000000E+00  0.0000000E+00  0.0000000E+00  0.0000000E+00  0.0000000E+00  0.0000000E+00  0.0000000E+00  0.0000000E+00  0.0000000E+00  0.0000000E+00  0.0000000E+00  0.0000000E+00
  0.1063265E+01  0.3310944E+05 -0.1569876E+01  0.3387405E+02 -0.1997917E+01  0.5290437E+06 -0.3152050E+00  0.4474478E+03  0.3833132E+00  0.6689941E+06 -0.1570011E+01  0.3547035E+01 -0.1337958E+00  0.9698670E+05 -0.1550149E+01  0.3321178E+03 -0.2643913E+01  0.1355074E+06  0.2823262E+01  0.1113899E+04 -0.1020010E+01  0.8226177E+05  0.1415432E+01  0.2696308E+04 -0.1861258E+00  0.0000000E+00  0.0000000E+00  0.0000000E+00  0.0000000E+00  0.0000000E+00  0.0000000E+00  0.0000000E+00  0.0000000E+00  0.0000000E+00  0.0000000E+00  0.0000000E+00  0.0000000E+00
  0.1183674E+01  0.3729327E+05 -0.1585276E+01  0.3806218E+02 -0.1948042E+01  0.4773850E+06 -0.4270092E+00  0.4522463E+03  0.4584071E+00  0.7461559E+06 -0.1585300E+01  0.5065853E+01 -0.1160956E+00  0.9098241E+05 -0.1565791E+01  0.3123221E+03 -0.2976093E+01  0.1148025E+06  0.2707727E+01  0.8806136E+03 -0.7503312E+00  0.3736084E+05  0.1241840E+01  0.2304703E+04 -0.2766497E+00  0.0000000E+00  0.0000000E+00  0.0000000E+00  0.0000000E+00  0.0000000E+00  0.0000000E+00  0.0000000E+00  0.0000000E+00  0.0000000E+00  0.0000000E+00  0.0000000E+00  0.0000000E+00
  0.1304082E+01  0.4030996E+05 -0.1616771E+01  0.4066234E+02 -0.1919278E+01  0.4296558E+06 -0.5573625E+00  0.4360730E+03  0.5061446E+00  0.7984088E+06 -0.1616455E+01  0.6947801E+01 -0.1044703E+00  0.8231170E+05 -0.1596309E+01  0.3184370E+03  0.3031218E+01  0.9455794E+05  0.2573361E+01  0.7754149E+03 -0.4985533E+00  0.1158494E+05 -0.4808254E+00  0.1937368E+04 -0.3924267E+00  0.0000000E+00  0.0000000E+00  0.0000000E+00  0.0000000E+00  0.0000000E+00  0.0000000E+00  0.0000000E+00  0.0000000E+00  0.0000000E+00  0.0000000E+00  0.0000000E+00  0.0000000E+00
  0.1424490E+01  0.4203766E+05 -0.1670147E+01  0.4194680E+02 -0.1914683E+01  0.3857153E+06 -0.7051233E+00  0.4082492E+03  0.5304869E+00  0.8242901E+06 -0.1668976E+01  0.9132114E+01 -0.1000840E+00  0.7247398E+05 -0.1647175E+01  0.3281976E+03  0.2848295E+01  0.7658202E+05  0.2420102E+01  0.7465584E+03 -0.3545247E+00  0.3668156E+05 -0.1400187E+01  0.1607367E+04 -0.5354986E+00  0.0000000E+00  0.0000000E+00  0.0000000E+00  0.0000000E+00  0.0000000E+00  0.0000000E+00  0.0000000E+00  0.0000000E+00  0.0000000E+00  0.0000000E+00  0.0000000E+00  0.0000000E+00
  0.1544898E+01  0.4255879E+05 -0.1750055E+01  0.4227729E+02 -0.1930542E+01  0.3451141E+06 -0.8694921E+00  0.3763093E+03  0.5439042E+00  0.8264065E+06 -0.1747004E+01  0.1149625E+02 -0.1052938E+00  0.6263802E+05 -0.1722348E+01  0.3263203E+03  0.2732158E+01  0.6178320E+05  0.2252867E+01  0.7345509E+03 -0.3154840E+00  0.5569181E+05 -0.1578874E+01  0.1320657E+04 -0.7059268E+00  0.0000000E+00  0.0000000E+00  0.0000000E+00  0.0000000E+00  0.0000000E+00  0.0000000E+00  0.0000000E+00  0.0000000E+00  0.0000000E+00  0.0000000E+00  0.0000000E+00  0.0000000E+00
  0.1665306E+01  0.4209403E+05 -0.1859599E+01  0.4180893E+02 -0.1960723E+01  0.3072592E+06 -0.1050391E+01  0.3430156E+03  0.5569024E+00  0.8098534E+06 -0.1852818E+01  0.1385593E+02 -0.1246187E+00  0.5353654E+05 -0.1823838E+01  0.3089980E+03  0.2650482E+01  0.4990040E+05  0.2077558E+01  0.7035323E+03 -0.3376893E+00  0.6582445E+05 -0.1709781E+01  0.1075062E+04 -0.9014860E+00  0.0000000E+00  0.0000000E+00  0.0000000E+00  0.0000000E+00  0.0000000E+00  0.0000000E+00  0.0000000E+00  0.0000000E+00  0.0000000E+00  0.0000000E+00  0.0000000E+00  0.0000000E+00
  0.1785714E+01  0.4092057E+05 -0.2000563E+01  0.4063422E+02 -0.1998598E+01  0.2715390E+06 -0.1248745E+01  0.3112085E+03  0.5781351E+00  0.7802855E+06 -0.1986999E+01  0.1601223E+02 -0.1640631E+00  0.4553043E+05 -0.1951557E+01  0.2788272E+03  0.2594018E+01  0.4034322E+05  0.1882276E+01  0.6403974E+03 -0.4014793E+00  0.6914095E+05 -0.1842816E+01  0.8610147E+03 -0.1121369E+01  0.0000000E+00  0.0000000E+00  0.0000000E+00  0.0000000E+00  0.0000000E+00  0.0000000E+00  0.0000000E+00  0.0000000E+00  0.0000000E+00  0.0000000E+00  0.0000000E+00  0.0000000E+00
  0.1906122E+01  0.3931683E+05 -0.2173863E+01  0.3872779E+02 -0.2043848E+01  0.2374717E+06 -0.1466987E+01  0.2844827E+03  0.6044939E+00  0.7426333E+06 -0.2148908E+01  0.1781597E+02 -0.2305537E+00  0.3866199E+05 -0.2103744E+01  0.2391889E+03  0.2538343E+01  0.3267437E+05  0.1688287E+01  0.5446013E+03 -0.4797757E+00  0.6812157E+05 -0.1987189E+01  0.6682109E+03 -0.1365818E+01  0.0000000E+00  0.0000000E+00  0.0000000E+00  0.0000000E+00  0.0000000E+00  0.0000000E+00  0.0000000E+00  0.0000000E+00  0.0000000E+00  0.0000000E+00  0.0000000E+00  0.0000000E+00
  0.2026531E+01  0.3753907E+05 -0.2379898E+01  0.3610624E+02 -0.2094401E+01  0.2048736E+06 -0.1709965E+01  0.2652690E+03  0.6288722E+00  0.7006180E+06 -0.2337296E+01  0.1920446E+02 -0.3296377E+00  0.3288072E+05 -0.2277617E+01  0.1953194E+03  0.2492615E+01  0.2613311E+05  0.1469092E+01  0.4281895E+03 -0.6053003E+00  0.6442188E+05 -0.2136382E+01  0.4876357E+03 -0.1656592E+01  0.0000000E+00  0.0000000E+00  0.0000000E+00  0.0000000E+00  0.0000000E+00  0.0000000E+00  0.0000000E+00  0.0000000E+00  0.0000000E+00  0.0000000E+00  0.0000000E+00  0.0000000E+00
  0.2146939E+01  0.3582682E+05 -0.2618283E+01  0.3312577E+02 -0.2151414E+01  0.1738731E+06 -0.1986369E+01  0.2613067E+03  0.6422604E+00  0.6567211E+06 -0.2550710E+01  0.2021504E+02 -0.4653172E+00  0.2794498E+05 -0.2470140E+01  0.1517509E+03  0.2446439E+01  0.2039277E+05  0.1243508E+01  0.3083738E+03 -0.7785880E+00  0.5930828E+05 -0.2292125E+01  0.3202457E+03 -0.2063465E+01  0.0000000E+00  0.0000000E+00  0.0000000E+00  0.0000000E+00  0.0000000E+00  0.0000000E+00  0.0000000E+00  0.0000000E+00  0.0000000E+00  0.0000000E+00  0.0000000E+00  0.0000000E+00
  0.2267347E+01  0.3440272E+05 -0.2887070E+01  0.2986137E+02 -0.2208561E+01  0.1453429E+06 -0.2310959E+01  0.2718546E+03  0.6327856E+00  0.6124586E+06 -0.2787899E+01  0.2095109E+02 -0.6395555E+00  0.2370847E+05 -0.2676700E+01  0.1120614E+03  0.2442111E+01  0.1525615E+05  0.9543773E+00  0.2156057E+03 -0.1091063E+01  0.5289521E+05 -0.2439073E+01  0.1976045E+03 -0.2833195E+01  0.0000000E+00  0.0000000E+00  0.0000000E+00  0.0000000E+00  0.0000000E+00  0.0000000E+00  0.0000000E+00  0.0000000E+00  0.0000000E+00  0.0000000E+00  0.0000000E+00  0.0000000E+00
  0.2387755E+01  0.3345768E+05  0.3101812E+01  0.2663617E+02 -0.2257566E+01  0.1211434E+06 -0.2705368E+01  0.3004973E+03  0.6022933E+00  0.5686664E+06 -0.3047994E+01  0.2156940E+02 -0.8528287E+00  0.1990657E+05 -0.2898537E+01  0.8196700E+02  0.2497702E+01  0.1045116E+05  0.5838161E+00  0.1544679E+03 -0.1545009E+01  0.4576751E+05 -0.2571323E+01  0.2202713E+03  0.2315362E+01  0.0000000E+00  0.0000000E+00  0.0000000E+00  0.0000000E+00  0.0000000E+00  0.0000000E+00  0.0000000E+00  0.0000000E+00  0.0000000E+00  0.0000000E+00  0.0000000E+00  0.0000000E+00
  0.2508163E+01  0.3310804E+05  0.2790367E+01  0.2342989E+02 -0.2280537E+01  0.1046512E+06  0.3095799E+01  0.3431010E+03  0.5522993E+00  0.5258148E+06  0.2952385E+01  0.2228460E+02 -0.1103223E+01  0.1635523E+05 -0.3131486E+01  0.6236715E+02  0.2717217E+01  0.7195710E+04 -0.5241510E-01  0.1494525E+03 -0.1937619E+01  0.3754046E+05 -0.2673342E+01  0.3640586E+03  0.1681254E+01  0.0000000E+00  0.0000000E+00  0.0000000E+00  0.0000000E+00  0.0000000E+00  0.0000000E+00  0.0000000E+00  0.0000000E+00  0.0000000E+00  0.0000000E+00  0.0000000E+00  0.0000000E+00
  0.2628571E+01  0.3334545E+05  0.2472725E+01  0.2038509E+02 -0.2264436E+01  0.9966065E+05  0.2549896E+01  0.3970538E+03  0.4870592E+00  0.4842763E+06  0.2646301E+01  0.2334655E+02 -0.1383548E+01  0.1295608E+05  0.2894756E+01  0.6270350E+02  0.2977275E+01  0.6801050E+04 -0.9635604E+00  0.1587172E+03 -0.2173310E+01  0.2849179E+05 -0.2701997E+01  0.5366437E+03  0.1324675E+01  0.0000000E+00  0.0000000E+00  0.0000000E+00  0.0000000E+00  0.0000000E+00  0.0000000E+00  0.0000000E+00  0.0000000E+00  0.0000000E+00  0.0000000E+00  0.0000000E+00  0.0000000E+00
  0.2748980E+01  0.3400234E+05  0.2159423E+01  0.1793406E+02 -0.2181240E+01  0.1068637E+06  0.2021580E+01  0.4591110E+03  0.4099253E+00  0.4445669E+06  0.2315510E+01  0.2494895E+02 -0.1679954E+01  0.9543302E+04  0.2596472E+01  0.7408268E+02  0.3135262E+01  0.9572127E+04 -0.1641158E+01  0.1836149E+03 -0.2076559E+01  0.1956071E+05 -0.2555118E+01  0.7083377E+03  0.1064484E+01  0.0000000E+00  0.0000000E+00  0.0000000E+00  0.0000000E+00  0.0000000E+00  0.0000000E+00  0.0000000E+00  0.0000000E+00  0.0000000E+00  0.0000000E+00  0.0000000E+00  0.0000000E+00
  0.2869388E+01  0.3477046E+05  0.1857947E+01  0.1643534E+02 -0.2013947E+01  0.1222761E+06  0.1571807E+01  0.5239657E+03  0.3248350E+00  0.4075595E+06  0.1957969E+01  0.2707562E+02 -0.1975141E+01  0.6249992E+04  0.2180424E+01  0.9342711E+02  0.3110317E+01  0.1327490E+05 -0.2029159E+01  0.2422651E+03 -0.1913533E+01  0.1475018E+05 -0.1974265E+01  0.8641957E+03  0.8438421E+00  0.0000000E+00  0.0000000E+00  0.0000000E+00  0.0000000E+00  0.0000000E+00  0.0000000E+00  0.0000000E+00  0.0000000E+00  0.0000000E+00  0.0000000E+00  0.0000000E+00  0.0000000E+00
  0.2989796E+01  0.3524458E+05  0.1571897E+01  0.1656337E+02 -0.1790180E+01  0.1405595E+06  0.1200260E+01  0.5838909E+03  0.2364840E+00  0.3745737E+06  0.1571838E+01  0.2931896E+02 -0.2256520E+01  0.3828979E+04  0.1370555E+01  0.1156160E+03  0.2992748E+01  0.1678061E+05 -0.2307413E+01  0.3320543E+03 -0.1792548E+01  0.2095852E+05 -0.1357197E+01  0.9988001E+03  0.6439999E+00  0.0000000E+00  0.0000000E+00  0.0000000E+00  0.0000000E+00  0.0000000E+00  0.0000000E+00  0.0000000E+00  0.0000000E+00  0.0000000E+00  0.0000000E+00  0.0000000E+00  0.0000000E+00
  0.3110204E+01  0.3498511E+05  0.1301940E+01  0.1871737E+02 -0.1588268E+01  0.1574272E+06  0.8837261E+00  0.6384543E+03  0.1409956E+00  0.3472872E+06  0.1157053E+01  0.3078191E+02 -0.2524020E+01  0.4525673E+04  0.2059176E+00  0.1371388E+03  0.2829495E+01  0.2023220E+05 -0.2537110E+01  0.4643267E+03 -0.1751773E+01  0.3391973E+05 -0.1167704E+01  0.1096600E+04  0.4605905E+00  0.0000000E+00  0.0000000E+00  0.0000000E+00  0.0000000E+00  0.0000000E+00  0.0000000E+00  0.0000000E+00  0.0000000E+00  0.0000000E+00  0.0000000E+00  0.0000000E+00  0.0000000E+00
  0.3230612E+01  0.3357170E+05  0.1047571E+01  0.2229410E+02 -0.1443175E+01  0.1698794E+06  0.6032780E+00  0.6781406E+03  0.4367236E-01  0.3272708E+06  0.7178060E+00  0.3014806E+02 -0.2799291E+01  0.7643023E+04 -0.4009240E+00  0.1590764E+03  0.2634643E+01  0.2257561E+05 -0.2729641E+01  0.6295061E+03 -0.1761078E+01  0.4918507E+05 -0.1157858E+01  0.1147507E+04  0.2820576E+00  0.0000000E+00  0.0000000E+00  0.0000000E+00  0.0000000E+00  0.0000000E+00  0.0000000E+00  0.0000000E+00  0.0000000E+00  0.0000000E+00  0.0000000E+00  0.0000000E+00  0.0000000E+00
  0.3351020E+01  0.3064909E+05  0.8087427E+00  0.2671689E+02 -0.1349414E+01  0.1756417E+06  0.3461056E+00  0.6916028E+03 -0.5476490E-01  0.3151321E+06  0.2637521E+00  0.2625112E+02  0.3130074E+01  0.1121778E+05 -0.7341362E+00  0.1771108E+03  0.2447146E+01  0.2379091E+05 -0.2906616E+01  0.7902458E+03 -0.1812048E+01  0.6506077E+05 -0.1209246E+01  0.1156817E+04  0.1188735E+00  0.0000000E+00  0.0000000E+00  0.0000000E+00  0.0000000E+00  0.0000000E+00  0.0000000E+00  0.0000000E+00  0.0000000E+00  0.0000000E+00  0.0000000E+00  0.0000000E+00  0.0000000E+00
  0.3471428E+01  0.2597718E+05  0.5882967E+00  0.3125928E+02 -0.1293146E+01  0.1733209E+06  0.1043345E+00  0.6865038E+03 -0.1577100E+00  0.3097009E+06 -0.1920071E+00  0.2070747E+02  0.2466441E+01  0.1464789E+05 -0.9786893E+00  0.1919881E+03  0.2253824E+01  0.2469479E+05 -0.3073460E+01  0.9504484E+03 -0.1886034E+01  0.8068771E+05 -0.1282297E+01  0.1104380E+04 -0.3145118E-01  0.0000000E+00  0.0000000E+00  0.0000000E+00  0.0000000E+00  0.0000000E+00  0.0000000E+00  0.0000000E+00  0.0000000E+00  0.0000000E+00  0.0000000E+00  0.0000000E+00  0.0000000E+00
  0.3591837E+01  0.1948518E+05  0.3988304E+00  0.3529245E+02 -0.1238414E+01  0.1621223E+06 -0.1245393E+00  0.6526968E+03 -0.2719850E+00  0.3078398E+06 -0.6379548E+00  0.2727911E+02  0.1410169E+01  0.1763952E+05 -0.1177702E+01  0.2037563E+03  0.2055250E+01  0.2380330E+05  0.3069054E+01  0.1101316E+04 -0.1959531E+01  0.9504313E+05 -0.1361273E+01  0.9980839E+03 -0.1776576E+00  0.0000000E+00  0.0000000E+00  0.0000000E+00  0.0000000E+00  0.0000000E+00  0.0000000E+00  0.0000000E+00  0.0000000E+00  0.0000000E+00  0.0000000E+00  0.0000000E+00  0.0000000E+00
  0.3712245E+01  0.1138364E+05  0.3023679E+00  0.3829201E+02 -0.1164909E+01  0.1421608E+06 -0.3422300E+00  0.5867416E+03 -0.3981648E+00  0.3051171E+06 -0.1068407E+01  0.5556100E+02  0.8335655E+00  0.1998690E+05 -0.1346642E+01  0.2044770E+03  0.1885335E+01  0.2093530E+05  0.2945741E+01  0.1208063E+04 -0.2048027E+01  0.1074226E+06 -0.1437298E+01  0.8488539E+03 -0.2829651E+00  0.0000000E+00  0.0000000E+00  0.0000000E+00  0.0000000E+00  0.0000000E+00  0.0000000E+00  0.0000000E+00  0.0000000E+00  0.0000000E+00  0.0000000E+00  0.0000000E+00  0.0000000E+00
  0.3832653E+01  0.3721848E+04  0.1053522E+01  0.3846523E+02 -0.1008185E+01  0.1145376E+06 -0.5455897E+00  0.5010454E+03 -0.5689275E+00  0.2968693E+06 -0.1484373E+01  0.9951417E+02  0.5767176E+00  0.2148491E+05 -0.1490217E+01  0.1991007E+03  0.1736614E+01  0.1840680E+05  0.2852755E+01  0.1252697E+04 -0.2118128E+01  0.1176911E+06 -0.1503727E+01  0.6660011E+03 -0.3325492E+00  0.0000000E+00  0.0000000E+00  0.0000000E+00  0.0000000E+00  0.0000000E+00  0.0000000E+00  0.0000000E+00  0.0000000E+00  0.0000000E+00  0.0000000E+00  0.0000000E+00  0.0000000E+00
  0.3953061E+01  0.1037332E+05  0.2316597E+01  0.3955025E+02 -0.9073140E+00  0.8127620E+05 -0.7180426E+00  0.3943133E+03 -0.7310562E+00  0.2793786E+06 -0.1892138E+01  0.1545362E+03  0.4296268E+00  0.2210604E+05 -0.1604535E+01  0.1889133E+03  0.1597941E+01  0.1540242E+05  0.2828681E+01  0.1249099E+04 -0.2167567E+01  0.1253032E+06 -0.1554770E+01  0.4786198E+03 -0.2721471E+00  0.0000000E+00  0.0000000E+00  0.0000000E+00  0.0000000E+00  0.0000000E+00  0.0000000E+00  0.0000000E+00  0.0000000E+00  0.0000000E+00  0.0000000E+00  0.0000000E+00  0.0000000E+00
  0.4073469E+01  0.2094731E+05  0.2274471E+01  0.3782508E+02 -0.7013945E+00  0.4566475E+05 -0.7944686E+00  0.3123784E+03 -0.9774898E+00  0.2501975E+06 -0.2302841E+01  0.2141945E+03  0.3233974E+00  0.2190457E+05 -0.1681517E+01  0.1754243E+03  0.1522149E+01  0.1172086E+05  0.2901279E+01  0.1205967E+04 -0.2205434E+01  0.1306645E+06 -0.1587029E+01  0.3403848E+03  0.3256464E-01  0.0000000E+00  0.0000000E+00  0.0000000E+00  0.0000000E+00  0.0000000E+00  0.0000000E+00  0.0000000E+00  0.0000000E+00  0.0000000E+00  0.0000000E+00  0.0000000E+00  0.0000000E+00
  0.4193878E+01  0.3102587E+05  0.2111188E+01  0.3669119E+02 -0.4177498E+00  0.1670291E+05 -0.2114789E+00  0.1913161E+03 -0.1335881E+01  0.2093862E+06 -0.2736923E+01  0.2694922E+03  0.2221291E+00  0.2116115E+05 -0.1712840E+01  0.1533099E+03  0.1525940E+01  0.9170439E+04  0.3113460E+01  0.1141604E+04 -0.2184444E+01  0.1346804E+06 -0.1598588E+01  0.3340628E+03  0.5449474E+00  0.0000000E+00  0.0000000E+00  0.0000000E+00  0.0000000E+00  0.0000000E+00  0.0000000E+00  0.0000000E+00  0.0000000E+00  0.0000000E+00  0.0000000E+00  0.0000000E+00  0.0000000E+00
  0.4314286E+01  0.3949231E+05  0.1921951E+01  0.3710417E+02 -0.5552150E-01  0.2950893E+05  0.9974183E+00  0.1287480E+03 -0.2460317E+01  0.1603270E+06  0.3045804E+01  0.3125471E+03  0.9942479E-01  0.2035721E+05 -0.1687942E+01  0.1337776E+03  0.1558714E+01  0.9463668E+04 -0.2899322E+01  0.1013523E+04 -0.2090846E+01  0.1388496E+06 -0.1589101E+01  0.4358334E+03  0.7580435E+00  0.0000000E+00  0.0000000E+00  0.0000000E+00  0.0000000E+00  0.0000000E+00  0.0000000E+00  0.0000000E+00  0.0000000E+00  0.0000000E+00  0.0000000E+00  0.0000000E+00  0.0000000E+00
  0.4434694E+01  0.4554063E+05  0.1728811E+01  0.4113892E+02  0.3989000E+00  0.5118554E+05  0.1009681E+01  0.1706950E+03 -0.3094090E+01  0.1131886E+06  0.2371932E+01  0.3401987E+03 -0.6321633E-01  0.2018205E+05 -0.1611678E+01  0.1377736E+03  0.1629713E+01  0.1123092E+05 -0.2755950E+01  0.9186722E+03 -0.1990096E+01  0.1440800E+06 -0.1564917E+01  0.5262258E+03  0.8098768E+00  0.0000000E+00  0.0000000E+00  0.0000000E+00  0.0000000E+00  0.0000000E+00  0.0000000E+00  0.0000000E+00  0.0000000E+00  0.0000000E+00  0.0000000E+00  0.0000000E+00  0.0000000E+00
  0.4555102E+01  0.4933173E+05  0.1549470E+01  0.6569751E+02  0.9988030E+00  0.5981857E+05  0.8549772E+00  0.1879409E+03  0.2417624E+01  0.9492014E+05  0.1414572E+01  0.3541125E+03 -0.2756181E+00  0.2110857E+05 -0.1521427E+01  0.1575477E+03  0.1715274E+01  0.1262224E+05 -0.2754839E+01  0.8911077E+03 -0.1882619E+01  0.1518800E+06 -0.1537979E+01  0.4971943E+03  0.7763328E+00  0.0000000E+00  0.0000000E+00  0.0000000E+00  0.0000000E+00  0.0000000E+00  0.0000000E+00  0.0000000E+00  0.0000000E+00  0.0000000E+00  0.0000000E+00  0.0000000E+00  0.0000000E+00
  0.4675510E+01  0.1562908E+05 -0.7265580E-01  0.3112935E+03  0.1917608E+01  0.8606434E+05  0.5252973E+00  0.5305218E+04 -0.1351294E+01  0.1992161E+06 -0.8398845E+00  0.3583054E+03 -0.5409127E+00  0.1762437E+05 -0.1460677E+01  0.4248947E+03  0.1980301E+01  0.9489555E+04 -0.2755832E+01  0.2932969E+04 -0.1476580E+01  0.1157636E+06 -0.1554281E+01  0.1004677E+04  0.8533027E+00  0.0000000E+00  0.0000000E+00  0.0000000E+00  0.0000000E+00  0.0000000E+00  0.0000000E+00  0.0000000E+00  0.0000000E+00  0.0000000E+00  0.0000000E+00  0.0000000E+00  0.0000000E+00
  0.4795918E+01  0.3606048E+05  0.1178241E+01  0.4460755E+02 -0.7647960E+00  0.6545008E+05  0.2136952E+00  0.2255115E+03  0.1463899E+01  0.1554084E+06 -0.4090449E+00  0.3579254E+03 -0.8553941E+00  0.2443937E+05 -0.1449426E+01  0.2281460E+03  0.1897685E+01  0.7204712E+04 -0.2980718E+01  0.1471354E+04 -0.1592196E+01  0.1601815E+06 -0.1525834E+01  0.4158548E+03  0.5052580E+00  0.0000000E+00  0.0000000E+00  0.0000000E+00  0.0000000E+00  0.0000000E+00  0.0000000E+00  0.0000000E+00  0.0000000E+00  0.0000000E+00  0.0000000E+00  0.0000000E+00  0.0000000E+00
  0.4916327E+01  0.2964203E+05  0.1132504E+01  0.1691906E+02 -0.6118860E+00  0.4628248E+05 -0.2631073E+00  0.3037242E+03  0.1647161E+01  0.1902291E+06 -0.8407319E+00  0.3561307E+03 -0.1213101E+01  0.2661084E+05 -0.1477637E+01  0.2314175E+03  0.1641791E+01  0.4439078E+04  0.2950387E+01  0.1488999E+04 -0.1638505E+01  0.1677070E+06 -0.1536651E+01  0.2120018E+03  0.3356969E+00  0.0000000E+00  0.0000000E+00  0.0000000E+00  0.0000000E+00  0.0000000E+00  0.0000000E+00  0.0000000E+00  0.0000000E+00  0.0000000E+00  0.0000000E+00  0.0000000E+00  0.0000000E+00
  0.5036735E+01  0.2245165E+05  0.1264659E+01  0.2260266E+02  0.9499946E+00  0.3235030E+05 -0.1191397E+01  0.2995785E+03  0.1333119E+01  0.2063833E+06 -0.1244910E+01  0.3547453E+03 -0.1603928E+01  0.2755396E+05 -0.1525037E+01  0.2460054E+03  0.1522633E+01  0.2438418E+04  0.1770535E+01  0.1502208E+04 -0.1611314E+01  0.1703633E+06 -0.1554716E+01  0.1216377E+02 -0.1192545E+01  0.0000000E+00  0.0000000E+00  0.0000000E+00  0.0000000E+00  0.0000000E+00  0.0000000E+00  0.0000000E+00  0.0000000E+00  0.0000000E+00  0.0000000E+00  0.0000000E+00  0.0000000E+00
  0.5157143E+01  0.2085483E+05  0.1637896E+01  0.7757137E+02  0.1670726E+01  0.4335741E+05 -0.2262897E+01  0.3739100E+03  0.1115597E+01  0.1999199E+06 -0.1636627E+01  0.3542847E+03 -0.2021729E+01  0.2728687E+05 -0.1584305E+01  0.2109386E+03  0.1368476E+01  0.5276896E+04  0.5443839E+00  0.1254986E+04 -0.1645943E+01  0.1695631E+06 -0.1578341E+01  0.2542975E+03  0.3100472E+01  0.0000000E+00  0.0000000E+00  0.0000000E+00  0.0000000E+00  0.0000000E+00  0.0000000E+00  0.0000000E+00  0.0000000E+00  0.0000000E+00  0.0000000E+00  0.0000000E+00  0.0000000E+00
  0.5277551E+01  0.5022037E+05 -0.1418104E+01  0.3042681E+04  0.1855545E+01  0.5997105E+05 -0.2755882E+01  0.1531369E+04 -0.2885370E+01  0.1625572E+06 -0.2331693E+01  0.3574256E+03 -0.2461354E+01  0.9993710E+04 -0.2350220E+01  0.5608778E+03 -0.9694319E+00  0.8396500E+04  0.2166166E+00  0.5974348E+04  0.1970898E+01  0.4720583E+05 -0.2977114E+01  0.4501678E+03  0.2589328E+01  0.0000000E+00  0.0000000E+00  0.0000000E+00  0.0000000E+00  0.0000000E+00  0.0000000E+00  0.0000000E+00  0.0000000E+00  0.0000000E+00  0.0000000E+00  0.0000000E+00  0.0000000E+00
  0.5397959E+01  0.2517128E+05  0.1971832E+01  0.6586293E+02  0.1248124E+01  0.8103107E+05 -0.3095434E+01  0.4885205E+03  0.2712926E+00  0.1246255E+06 -0.2505633E+01  0.3695172E+03 -0.2901168E+01  0.2170234E+05 -0.1700376E+01  0.1430467E+03  0.1404082E+01  0.1195604E+05  0.3499069E-01  0.8634080E+03 -0.1376092E+01  0.1396622E+06 -0.1643224E+01  0.5671539E+03  0.2968747E+01  0.0000000E+00  0.0000000E+00  0.0000000E+00  0.0000000E+00  0.0000000E+00  0.0000000E+00  0.0000000E+00  0.0000000E+00  0.0000000E+00  0.0000000E+00  0.0000000E+00  0.0000000E+00
  0.5518367E+01  0.2973079E+05  0.1814452E+01  0.6179826E+02  0.1937459E+01  0.9223524E+05  0.2974045E+01  0.2689470E+03 -0.1026337E+01  0.7155572E+05 -0.3082849E+01  0.3949088E+03  0.2988980E+01  0.1915038E+05 -0.1695993E+01  0.1570275E+03  0.1210072E+01  0.1527587E+05 -0.9167856E-01  0.9709985E+03 -0.1282176E+01  0.1291464E+06 -0.1644784E+01  0.6629182E+03  0.2828361E+01  0.0000000E+00  0.0000000E+00  0.0000000E+00  0.0000000E+00  0.0000000E+00  0.0000000E+00  0.0000000E+00  0.0000000E+00  0.0000000E+00  0.0000000E+00  0.0000000E+00  0.0000000E+00
  0.5638775E+01  0.2939350E+05  0.1594187E+01  0.1599997E+03  0.2038251E+01  0.9856852E+05  0.2898413E+01  0.2596683E+03 -0.1691840E+01  0.3355688E+05  0.1950908E+01  0.4271242E+03  0.2709273E+01  0.1649691E+05 -0.1665661E+01  0.1166143E+03  0.9684403E+00  0.1954456E+05 -0.1118004E+00  0.6860994E+03 -0.1014148E+01  0.1152788E+06 -0.1643836E+01  0.7915515E+03  0.2834366E+01  0.0000000E+00  0.0000000E+00  0.0000000E+00  0.0000000E+00  0.0000000E+00  0.0000000E+00  0.0000000E+00  0.0000000E+00  0.0000000E+00  0.0000000E+00  0.0000000E+00  0.0000000E+00
  0.5759184E+01  0.3356720E+05  0.1100739E+01  0.9722491E+03  0.2838546E+01  0.4773190E+06 -0.3087076E+01  0.3942149E+04 -0.2921324E+01  0.3320075E+05  0.6693236E+00  0.4570815E+03  0.2603186E+01  0.2017206E+05 -0.2137281E+01  0.2371303E+03  0.1968879E+01  0.1529377E+06  0.1246116E+00  0.3143255E+04 -0.1709864E+00  0.1369643E+06 -0.2094567E+01  0.4011241E+04 -0.3027344E+01  0.0000000E+00  0.0000000E+00  0.0000000E+00  0.0000000E+00  0.0000000E+00  0.0000000E+00  0.0000000E+00  0.0000000E+00  0.0000000E+00  0.0000000E+00  0.0000000E+00  0.0000000E+00
  0.5879592E+01  0.1351686E+05  0.5987282E+00  0.1978900E+03  0.1780324E+01  0.6344031E+05  0.3135615E+01  0.3332172E+03 -0.5744587E+00  0.7699560E+05 -0.2448082E+00  0.5167515E+03  0.2723284E+01  0.1058817E+05 -0.1585313E+01  0.3351061E+02  0.1216514E+01  0.1263661E+05 -0.3540791E-02  0.6089853E+03 -0.3751344E+00  0.7242786E+05 -0.1655646E+01  0.5845547E+03  0.3029641E+01  0.0000000E+00  0.0000000E+00  0.0000000E+00  0.0000000E+00  0.0000000E+00  0.0000000E+00  0.0000000E+00  0.0000000E+00  0.0000000E+00  0.0000000E+00  0.0000000E+00  0.0000000E+00
  0.6000000E+01  0.9451519E+04 -0.3516088E+00  0.4072083E+03  0.2594404E+01  0.8955291E+05 -0.3013811E+01  0.5119082E+03  0.3082629E+01  0.8001081E+05 -0.8240859E+00  0.6755459E+03  0.2965234E+01  0.8737706E+04 -0.1668823E+01  0.1830478E+03 -0.1160782E-01  0.1658371E+05  0.3965549E-01  0.4880709E+03 -0.2894984E+01  0.5711223E+05 -0.1729884E+01  0.7970527E+03 -0.3124637E+01  0.0000000E+00  0.0000000E+00  0.0000000E+00  0.0000000E+00  0.0000000E+00  0.0000000E+00  0.0000000E+00  0.0000000E+00  0.0000000E+00  0.0000000E+00  0.0000000E+00  0.0000000E+00
