VARIABLES="Frequency (rad/s)" "|Fx| (N/m)" "|Fy| (N/m)" "|Fz| (N/m)" "|Cx| (N)" "|Cy| (N)" "|Cz| (N)" "ang(Fx) (°)" "ang(Fy) (°)" "ang(Fz) (°)" "ang(Cx) (°)" "ang(Cy) (°)" "ang(Cz) (°)"
Zone t="Corps  1"
Zone t="Excitation force - beta =   0.000 deg",I=    50,F=POINT
 0.1000  0.381663E+03  0.327273E+00  0.881168E+06  0.173295E+02  0.808081E+04  0.439695E+00 4589.62  548.28 1412.15 1348.85 ******* 4529.04
    0.00    0.00    0.00    0.00    0.00    0.00
  -90.00 -131.15   -0.00   -2.24  -90.04   -0.51
  -42.47 -177.22 -178.85 -174.82   24.16    0.07
    0.00    0.00    0.00    0.00    0.00    0.00
 0.2204  0.184283E+04  0.155949E+01  0.863868E+06  0.431525E+02  0.389494E+05  0.437679E+00 *******  512.01 ******* 1267.71 ******* 4490.89
    0.00    0.00    0.00    0.00    0.00    0.00
  -89.99 -128.94   -0.11   -3.47  -90.01   -2.54
  -77.04 -166.68 -179.86 -154.75   63.94    0.24
    0.00    0.00    0.00    0.00    0.00    0.00
 0.3408  0.435824E+04  0.372085E+01  0.833978E+06  0.853047E+02  0.918340E+05  0.455837E+00 *******  490.79 ******* 1394.07 ******* 4407.31
    0.00    0.00    0.00    0.00    0.00    0.00
  -89.99 -127.58   -0.54   -2.61  -90.00   -6.03
  -84.28 -150.58  179.67 -127.42   77.16    0.29
    0.00    0.00    0.00    0.00    0.00    0.00
 0.4612  0.785140E+04  0.682242E+01  0.794227E+06  0.142447E+03  0.164725E+06  0.529364E+00 *******  501.34 ******* 1702.57 ******* 4268.28
    0.00    0.00    0.00    0.00    0.00    0.00
  -89.95 -126.85   -1.50   -1.11  -89.96   -9.76
  -86.65 -135.24  178.69 -107.27   81.78   -0.00
    0.00    0.00    0.00    0.00    0.00    0.00
 0.5816  0.122015E+05  0.109225E+02  0.747392E+06  0.210722E+03  0.254587E+06  0.703542E+00 *******  515.92 ******* 1945.90 ******* 4066.73
    0.00    0.00    0.00    0.00    0.00    0.00
  -89.88 -125.71   -3.10    1.56  -89.89  -11.84
  -87.64 -125.65  177.08  -95.15   83.75   -0.73
    0.00    0.00    0.00    0.00    0.00    0.00
 0.7020  0.172214E+05  0.160860E+02  0.695431E+06  0.285544E+03  0.356963E+06  0.103176E+01 *******  501.95 ******* 1973.46 ******* 3798.19
    0.00    0.00    0.00    0.00    0.00    0.00
  -89.77 -124.02   -5.41    5.55  -89.78  -11.77
  -88.08 -122.56  174.72  -86.85   84.59   -2.00
    0.00    0.00    0.00    0.00    0.00    0.00
 0.8224  0.226364E+05  0.220928E+02  0.640200E+06  0.358539E+03  0.465619E+06  0.157439E+01 *******  452.97 ******* 1778.27 ******* 3467.68
    0.00    0.00    0.00    0.00    0.00    0.00
  -89.65 -121.48   -8.59   10.69  -89.66  -10.52
  -88.27 -125.75  171.49  -79.38   84.70   -3.94
    0.00    0.00    0.00    0.00    0.00    0.00
 0.9429  0.280792E+05  0.283178E+02  0.583885E+06  0.415405E+03  0.572655E+06  0.239430E+01 *******  386.06 ******* 1448.64 ******* 3092.29
    0.00    0.00    0.00    0.00    0.00    0.00
  -89.65 -117.99  -12.77   16.54  -89.66   -9.01
  -88.44 -135.34  167.21  -70.54   83.87   -6.76
    0.00    0.00    0.00    0.00    0.00    0.00
 1.0633  0.331094E+05  0.338740E+02  0.529044E+06  0.447448E+03  0.668994E+06  0.354703E+01 *******  332.12 ******* 1113.90 ******* 2696.31
    0.00    0.00    0.00    0.00    0.00    0.00
  -89.95 -114.47  -18.06   21.96  -89.95   -7.67
  -88.82 -151.49  161.76  -58.44   81.10  -10.66
    0.00    0.00    0.00    0.00    0.00    0.00
 1.1837  0.372933E+05  0.380622E+02  0.477385E+06  0.452246E+03  0.746156E+06  0.506585E+01 *******  312.32 *******  880.61 ******* 2304.70
    0.00    0.00    0.00    0.00    0.00    0.00
  -90.83 -111.61  -24.47   26.26  -90.83   -6.65
  -89.71 -170.52  155.14  -42.99   71.15  -15.85
    0.00    0.00    0.00    0.00    0.00    0.00
 1.3041  0.403100E+05  0.406623E+02  0.429656E+06  0.436073E+03  0.798409E+06  0.694780E+01 *******  318.44 *******  775.41 ******* 1937.37
    0.00    0.00    0.00    0.00    0.00    0.00
  -92.63 -109.97  -31.93   29.00  -92.62   -5.99
  -91.46  173.68  147.44  -28.57  -27.55  -22.48
    0.00    0.00    0.00    0.00    0.00    0.00
 1.4245  0.420377E+05  0.419468E+02  0.385715E+06  0.408249E+03  0.824290E+06  0.913211E+01 *******  328.20 *******  746.56 ******* 1607.37
    0.00    0.00    0.00    0.00    0.00    0.00
  -95.69 -109.70  -40.40   30.39  -95.63   -5.73
  -94.38  163.20  138.66  -20.31  -80.22  -30.68
    0.00    0.00    0.00    0.00    0.00    0.00
 1.5449  0.425588E+05  0.422773E+02  0.345114E+06  0.376309E+03  0.826406E+06  0.114963E+02 *******  326.32 *******  734.55 ******* 1320.66
    0.00    0.00    0.00    0.00    0.00    0.00
 -100.27 -110.61  -49.82   31.16 -100.10   -6.03
  -98.68  156.54  129.08  -18.08  -90.46  -40.45
    0.00    0.00    0.00    0.00    0.00    0.00
 1.6653  0.420940E+05  0.418089E+02  0.307259E+06  0.343016E+03  0.809853E+06  0.138559E+02 *******  309.00 *******  703.53 ******* 1075.06
    0.00    0.00    0.00    0.00    0.00    0.00
 -106.55 -112.34  -60.18   31.91 -106.16   -7.14
 -104.50  151.86  119.04  -19.35  -97.96  -51.65
    0.00    0.00    0.00    0.00    0.00    0.00
 1.7857  0.409206E+05  0.406342E+02  0.271539E+06  0.311209E+03  0.780286E+06  0.160122E+02 *******  278.83 *******  640.40 *******  861.01
    0.00    0.00    0.00    0.00    0.00    0.00
 -114.62 -114.51  -71.55   33.12 -113.85   -9.40
 -111.82  148.63  107.85  -23.00 -105.59  -64.25
    0.00    0.00    0.00    0.00    0.00    0.00
 1.9061  0.393168E+05  0.387278E+02  0.237472E+06  0.284483E+03  0.742633E+06  0.178160E+02 *******  239.19 *******  544.60 *******  668.21
    0.00    0.00    0.00    0.00    0.00    0.00
 -124.55 -117.10  -84.05   34.63 -123.12  -13.21
 -120.54  145.44   96.73  -27.49 -113.86  -78.26
    0.00    0.00    0.00    0.00    0.00    0.00
 2.0265  0.375391E+05  0.361062E+02  0.204874E+06  0.265269E+03  0.700618E+06  0.192045E+02 *******  195.32 *******  428.19 *******  487.64
    0.00    0.00    0.00    0.00    0.00    0.00
 -136.36 -120.00  -97.97   36.03 -133.92  -18.89
 -130.50  142.82   84.17  -34.68 -122.41  -94.92
    0.00    0.00    0.00    0.00    0.00    0.00
 2.1469  0.358268E+05  0.331258E+02  0.173873E+06  0.261307E+03  0.656721E+06  0.202150E+02 *******  151.75 *******  308.37 *******  320.25
    0.00    0.00    0.00    0.00    0.00    0.00
 -150.02 -123.27 -113.81   36.80 -146.14  -26.66
 -141.53  140.17   71.25  -44.61 -131.33 -118.23
    0.00    0.00    0.00    0.00    0.00    0.00
 2.2673  0.344027E+05  0.298614E+02  0.145343E+06  0.271855E+03  0.612459E+06  0.209511E+02 *******  112.06 *******  215.61 *******  197.60
    0.00    0.00    0.00    0.00    0.00    0.00
 -165.42 -126.54 -132.41   36.26 -159.73  -36.64
 -153.36  139.92   54.68  -62.51 -139.75 -162.33
    0.00    0.00    0.00    0.00    0.00    0.00
 2.3878  0.334577E+05  0.266362E+02  0.121143E+06  0.300497E+03  0.568666E+06  0.215694E+02 *******   81.97 *******  154.47 *******  220.27
    0.00    0.00    0.00    0.00    0.00    0.00
  177.72 -129.35 -155.01   34.51 -174.64  -48.86
 -166.07  143.11   33.45  -88.52 -147.33  132.66
    0.00    0.00    0.00    0.00    0.00    0.00
 2.5082  0.331080E+05  0.234299E+02  0.104651E+06  0.343101E+03  0.525815E+06  0.222846E+02 *******   62.37 7195.71  149.45 *******  364.06
    0.00    0.00    0.00    0.00    0.00    0.00
  159.88 -130.67  177.38   31.64  169.16  -63.21
 -179.42  155.69   -3.00 -111.02 -153.17   96.33
    0.00    0.00    0.00    0.00    0.00    0.00
 2.6286  0.333454E+05  0.203851E+02  0.996606E+05  0.397054E+03  0.484276E+06  0.233465E+02 *******   62.70 6801.05  158.72 *******  536.64
    0.00    0.00    0.00    0.00    0.00    0.00
  141.68 -129.74  146.10   27.91  151.62  -79.27
  165.86  170.59  -55.21 -124.52 -154.81   75.90
    0.00    0.00    0.00    0.00    0.00    0.00
 2.7490  0.340023E+05  0.179341E+02  0.106864E+06  0.459111E+03  0.444567E+06  0.249489E+02 9543.30   74.08 9572.13  183.61 *******  708.34
    0.00    0.00    0.00    0.00    0.00    0.00
  123.73 -124.98  115.83   23.49  132.67  -96.25
  148.77  179.64  -94.03 -118.98 -146.40   60.99
    0.00    0.00    0.00    0.00    0.00    0.00
 2.8694  0.347705E+05  0.164353E+02  0.122276E+06  0.523966E+03  0.407559E+06  0.270756E+02 6249.99   93.43 *******  242.27 *******  864.20
    0.00    0.00    0.00    0.00    0.00    0.00
  106.45 -115.39   90.06   18.61  112.18 -113.17
  124.93  178.21 -116.26 -109.64 -113.12   48.35
    0.00    0.00    0.00    0.00    0.00    0.00
 2.9898  0.352446E+05  0.165634E+02  0.140560E+06  0.583891E+03  0.374574E+06  0.293190E+02 3828.98  115.62 *******  332.05 *******  998.80
    0.00    0.00    0.00    0.00    0.00    0.00
   90.06 -102.57   68.77   13.55   90.06 -129.29
   78.53  171.47 -132.21 -102.71  -77.76   36.90
    0.00    0.00    0.00    0.00    0.00    0.00
 3.1102  0.349851E+05  0.187174E+02  0.157427E+06  0.638454E+03  0.347287E+06  0.307819E+02 4525.67  137.14 *******  464.33 ******* 1096.60
    0.00    0.00    0.00    0.00    0.00    0.00
   74.60  -91.00   50.63    8.08   66.29 -144.62
   11.80  162.12 -145.37 -100.37  -66.90   26.39
    0.00    0.00    0.00    0.00    0.00    0.00
 3.2306  0.335717E+05  0.222941E+02  0.169879E+06  0.678141E+03  0.327271E+06  0.301481E+02 7643.02  159.08 *******  629.51 ******* 1147.51
    0.00    0.00    0.00    0.00    0.00    0.00
   60.02  -82.69   34.57    2.50   41.13 -160.39
  -22.97  150.95 -156.40 -100.90  -66.34   16.16
    0.00    0.00    0.00    0.00    0.00    0.00
 3.3510  0.306491E+05  0.267169E+02  0.175642E+06  0.691603E+03  0.315132E+06  0.262511E+02 *******  177.11 *******  790.25 ******* 1156.82
    0.00    0.00    0.00    0.00    0.00    0.00
   46.34  -77.32   19.83   -3.14   15.11  179.34
  -42.06  140.21 -166.54 -103.82  -69.28    6.81
    0.00    0.00    0.00    0.00    0.00    0.00
 3.4714  0.259772E+05  0.312593E+02  0.173321E+06  0.686504E+03  0.309701E+06  0.207075E+02 *******  191.99 *******  950.45 ******* 1104.38
    0.00    0.00    0.00    0.00    0.00    0.00
   33.71  -74.09    5.98   -9.04  -11.00  141.32
  -56.07  129.13 -176.10 -108.06  -73.47   -1.80
    0.00    0.00    0.00    0.00    0.00    0.00
 3.5918  0.194852E+05  0.352924E+02  0.162122E+06  0.652697E+03  0.307840E+06  0.272791E+02 *******  203.76 ******* 1101.32 *******  998.08
    0.00    0.00    0.00    0.00    0.00    0.00
   22.85  -70.96   -7.14  -15.58  -36.55   80.80
  -67.48  117.76  175.84 -112.27  -78.00  -10.18
    0.00    0.00    0.00    0.00    0.00    0.00
 3.7122  0.113836E+05  0.382920E+02  0.142161E+06  0.586742E+03  0.305117E+06  0.555610E+02 *******  204.48 ******* 1208.06 *******  848.85
    0.00    0.00    0.00    0.00    0.00    0.00
   17.32  -66.74  -19.61  -22.81  -61.22   47.76
  -77.16  108.02  168.78 -117.34  -82.35  -16.21
    0.00    0.00    0.00    0.00    0.00    0.00
 3.8327  0.372185E+04  0.384652E+02  0.114538E+06  0.501045E+03  0.296869E+06  0.995142E+02 *******  199.10 ******* 1252.70 *******  666.00
    0.00    0.00    0.00    0.00    0.00    0.00
   60.36  -57.76  -31.26  -32.60  -85.05   33.04
  -85.38   99.50  163.45 -121.36  -86.16  -19.05
    0.00    0.00    0.00    0.00    0.00    0.00
 3.9531  0.103733E+05  0.395503E+02  0.812762E+05  0.394313E+03  0.279379E+06  0.154536E+03 *******  188.91 ******* 1249.10 *******  478.62
    0.00    0.00    0.00    0.00    0.00    0.00
  132.73  -51.99  -41.14  -41.89 -108.41   24.62
  -91.93   91.56  162.07 -124.19  -89.08  -15.59
    0.00    0.00    0.00    0.00    0.00    0.00
 4.0735  0.209473E+05  0.378251E+02  0.456647E+05  0.312378E+03  0.250197E+06  0.214195E+03 *******  175.42 ******* 1205.97 *******  340.38
    0.00    0.00    0.00    0.00    0.00    0.00
  130.32  -40.19  -45.52  -56.01 -131.94   18.53
  -96.34   87.21  166.23 -126.36  -90.93    1.87
    0.00    0.00    0.00    0.00    0.00    0.00
 4.1939  0.310259E+05  0.366912E+02  0.167029E+05  0.191316E+03  0.209386E+06  0.269492E+03 *******  153.31 9170.44 1141.60 *******  334.06
    0.00    0.00    0.00    0.00    0.00    0.00
  120.96  -23.94  -12.12  -76.54 -156.81   12.73
  -98.14   87.43  178.39 -125.16  -91.59   31.22
    0.00    0.00    0.00    0.00    0.00    0.00
 4.3143  0.394923E+05  0.371042E+02  0.295089E+05  0.128748E+03  0.160327E+06  0.312547E+03 *******  133.78 9463.67 1013.52 *******  435.83
    0.00    0.00    0.00    0.00    0.00    0.00
  110.12   -3.18   57.15 -140.97  174.51    5.70
  -96.71   89.31 -166.12 -119.80  -91.05   43.43
    0.00    0.00    0.00    0.00    0.00    0.00
 4.4347  0.455406E+05  0.411389E+02  0.511855E+05  0.170695E+03  0.113189E+06  0.340199E+03 *******  137.77 *******  918.67 *******  526.23
    0.00    0.00    0.00    0.00    0.00    0.00
   99.05   22.86   57.85 -177.28  135.90   -3.62
  -92.34   93.38 -157.90 -114.02  -89.66   46.40
    0.00    0.00    0.00    0.00    0.00    0.00
 4.5551  0.493317E+05  0.656975E+02  0.598186E+05  0.187941E+03  0.949201E+05  0.354113E+03 *******  157.55 *******  891.11 *******  497.19
    0.00    0.00    0.00    0.00    0.00    0.00
   88.78   57.23   48.99  138.52   81.05  -15.79
  -87.17   98.28 -157.84 -107.87  -88.12   44.48
    0.00    0.00    0.00    0.00    0.00    0.00
 4.6755  0.156291E+05  0.311294E+03  0.860643E+05  0.530522E+04  0.199216E+06  0.358305E+03 *******  424.89 9489.55 2932.97 ******* 1004.68
    0.00    0.00    0.00    0.00    0.00    0.00
   -4.16  109.87   30.10  -77.42  -48.12  -30.99
  -83.69  113.46 -157.90  -84.60  -89.05   48.89
    0.00    0.00    0.00    0.00    0.00    0.00
 4.7959  0.360605E+05  0.446075E+02  0.654501E+05  0.225511E+03  0.155408E+06  0.357925E+03 *******  228.15 7204.71 1471.35 *******  415.85
    0.00    0.00    0.00    0.00    0.00    0.00
   67.51  -43.82   12.24   83.88  -23.44  -49.01
  -83.05  108.73 -170.78  -91.23  -87.42   28.95
    0.00    0.00    0.00    0.00    0.00    0.00
 4.9163  0.296420E+05  0.169191E+02  0.462825E+05  0.303724E+03  0.190229E+06  0.356131E+03 *******  231.42 4439.08 1489.00 *******  212.00
    0.00    0.00    0.00    0.00    0.00    0.00
   64.89  -35.06  -15.07   94.38  -48.17  -69.51
  -84.66   94.07  169.04  -93.88  -88.04   19.23
    0.00    0.00    0.00    0.00    0.00    0.00
 5.0367  0.224517E+05  0.226027E+02  0.323503E+05  0.299578E+03  0.206383E+06  0.354745E+03 *******  246.01 2438.42 1502.21 *******   12.16
    0.00    0.00    0.00    0.00    0.00    0.00
   72.46   54.43  -68.26   76.38  -71.33  -91.90
  -87.38   87.24  101.44  -92.32  -89.08  -68.33
    0.00    0.00    0.00    0.00    0.00    0.00
 5.1571  0.208548E+05  0.775714E+02  0.433574E+05  0.373910E+03  0.199920E+06  0.354285E+03 *******  210.94 5276.90 1254.99 *******  254.30
    0.00    0.00    0.00    0.00    0.00    0.00
   93.84   95.73 -129.65   63.92  -93.77 -115.84
  -90.77   78.41   31.19  -94.31  -90.43  177.64
    0.00    0.00    0.00    0.00    0.00    0.00
 5.2776  0.502204E+05  0.304268E+04  0.599711E+05  0.153137E+04  0.162557E+06  0.357426E+03 9993.71  560.88 8396.50 5974.35 *******  450.17
    0.00    0.00    0.00    0.00    0.00    0.00
  -81.25  106.31 -157.90 -165.32 -133.60 -141.03
 -134.66  -55.54   12.41  112.92 -170.58  148.36
    0.00    0.00    0.00    0.00    0.00    0.00
 5.3980  0.251713E+05  0.658629E+02  0.810311E+05  0.488521E+03  0.124625E+06  0.369517E+03 *******  143.05 *******  863.41 *******  567.15
    0.00    0.00    0.00    0.00    0.00    0.00
  112.98   71.51 -177.36   15.54 -143.56 -166.22
  -97.42   80.45    2.00  -78.84  -94.15  170.10
    0.00    0.00    0.00    0.00    0.00    0.00
 5.5184  0.297308E+05  0.617983E+02  0.922352E+05  0.268947E+03  0.715557E+05  0.394909E+03 *******  157.03 *******  971.00 *******  662.92
    0.00    0.00    0.00    0.00    0.00    0.00
  103.96  111.01  170.40  -58.80 -176.63  171.26
  -97.17   69.33   -5.25  -73.46  -94.24  162.05
    0.00    0.00    0.00    0.00    0.00    0.00
 5.6388  0.293935E+05  0.160000E+03  0.985685E+05  0.259668E+03  0.335569E+05  0.427124E+03 *******  116.61 *******  686.10 *******  791.55
    0.00    0.00    0.00    0.00    0.00    0.00
   91.34  116.78  166.07  -96.94  111.78  155.23
  -95.44   55.49   -6.41  -58.11  -94.18  162.40
    0.00    0.00    0.00    0.00    0.00    0.00
 5.7592  0.335672E+05  0.972249E+03  0.477319E+06  0.394215E+04  0.332008E+05  0.457082E+03 *******  237.13 ******* 3143.26 ******* 4011.24
    0.00    0.00    0.00    0.00    0.00    0.00
   63.07  162.64 -176.88 -167.38   38.35  149.15
 -122.46  112.81    7.14   -9.80 -120.01 -173.45
    0.00    0.00    0.00    0.00    0.00    0.00
 5.8796  0.135169E+05  0.197890E+03  0.634403E+05  0.333217E+03  0.769956E+05  0.516751E+03 *******   33.51 *******  608.99 *******  584.55
    0.00    0.00    0.00    0.00    0.00    0.00
   34.30  102.01  179.66  -32.91  -14.03  156.03
  -90.83   69.70   -0.20  -21.49  -94.86  173.59
    0.00    0.00    0.00    0.00    0.00    0.00
 6.0000  0.945152E+04  0.407208E+03  0.895529E+05  0.511908E+03  0.800108E+05  0.675546E+03 8737.71  183.05 *******  488.07 *******  797.05
    0.00    0.00    0.00    0.00    0.00    0.00
  -20.15  148.65 -172.68  176.62  -47.22  169.90
  -95.62   -0.67    2.27 -165.87  -99.12 -179.03
    0.00    0.00    0.00    0.00    0.00    0.00
