 VARIABLES="X" "Y" "Z" "abs(p) (Pa)" "angle(p) (rad)"
ZONE N=   2720,E =    2069, F=FEPOINT, ET=QUADRILATERAL
 -0.767116010      -1.12776399       0.00000000       5463.39453      0.948311448    
 -0.769354999      -1.12002099     -0.303523988       5463.39453      0.948311448    
 -0.896136999      -1.02028203     -0.303463012       5463.39453      0.948311448    
 -0.894908011      -1.02288902       0.00000000       5463.39453      0.948311448    
 -0.767116010      -1.12776399       0.00000000       4829.89111      0.990355492    
 -0.630888999      -1.20308697       0.00000000       4829.89111      0.990355492    
 -0.635528028      -1.19958198     -0.303541005       4829.89111      0.990355492    
 -0.769354999      -1.12002099     -0.303523988       4829.89111      0.990355492    
 -0.635528028      -1.19958198     -0.303541005       3503.41138       1.18153453    
 -0.495362997      -1.26606500     -0.303519011       3503.41138       1.18153453    
 -0.499298006      -1.26809204     -0.606999993       3503.41138       1.18153453    
 -0.640147984      -1.19813800     -0.606998026       3503.41138       1.18153453    
 -0.635528028      -1.19958198     -0.303541005       4070.85669       1.13173616    
 -0.640147984      -1.19813800     -0.606998026       4070.85669       1.13173616    
 -0.777105987      -1.11956596     -0.606999993       4070.85669       1.13173616    
 -0.769354999      -1.12002099     -0.303523988       4070.85669       1.13173616    
 -0.635528028      -1.19958198     -0.303541005       4172.66016       1.02233481    
 -0.630888999      -1.20308697       0.00000000       4172.66016       1.02233481    
 -0.494486004      -1.26955199       0.00000000       4172.66016       1.02233481    
 -0.495362997      -1.26606500     -0.303519011       4172.66016       1.02233481    
 -0.494486004      -1.26955199       0.00000000       3481.93237       1.03518701    
 -0.346311986      -1.31449997       0.00000000       3481.93237       1.03518701    
 -0.346753001      -1.31307304     -0.303510010       3481.93237       1.03518701    
 -0.495362997      -1.26606500     -0.303519011       3481.93237       1.03518701    
 -0.346753001      -1.31307304     -0.303510010       2265.42822       1.23321366    
 -0.193608001      -1.34425998     -0.303494990       2265.42822       1.23321366    
 -0.195028007      -1.34579206     -0.606999993       2265.42822       1.23321366    
 -0.348751009      -1.31376004     -0.606999993       2265.42822       1.23321366    
 -0.346753001      -1.31307304     -0.303510010       2894.68994       1.22056723    
 -0.348751009      -1.31376004     -0.606999993       2894.68994       1.22056723    
 -0.499298006      -1.26809204     -0.606999993       2894.68994       1.22056723    
 -0.495362997      -1.26606500     -0.303519011       2894.68994       1.22056723    
 -0.346753001      -1.31307304     -0.303510010       2787.40625       1.00871301    
 -0.346311986      -1.31449997       0.00000000       2787.40625       1.00871301    
 -0.193381995      -1.34595394       0.00000000       2787.40625       1.00871301    
 -0.193608001      -1.34425998     -0.303494990       2787.40625       1.00871301    
 -0.193381995      -1.34595394       0.00000000       2130.22363      0.905494571    
  -3.75179984E-02  -1.36130500       0.00000000       2130.22363      0.905494571    
  -3.73950005E-02  -1.35827899     -0.303512007       2130.22363      0.905494571    
 -0.193608001      -1.34425998     -0.303494990       2130.22363      0.905494571    
  -3.73950005E-02  -1.35827899     -0.303512007       1048.06470      0.983987868    
  0.119547002      -1.35239303     -0.303498000       1048.06470      0.983987868    
  0.119135000      -1.35326600     -0.606999993       1048.06470      0.983987868    
  -3.82840000E-02  -1.36122894     -0.606998980       1048.06470      0.983987868    
  -3.73950005E-02  -1.35827899     -0.303512007       1631.28687       1.19164014    
  -3.82840000E-02  -1.36122894     -0.606998980       1631.28687       1.19164014    
 -0.195028007      -1.34579206     -0.606999993       1631.28687       1.19164014    
 -0.193608001      -1.34425998     -0.303494990       1631.28687       1.19164014    
  -3.73950005E-02  -1.35827899     -0.303512007       1599.02368      0.642016172    
  -3.75179984E-02  -1.36130500       0.00000000       1599.02368      0.642016172    
  0.119788997      -1.35320199       0.00000000       1599.02368      0.642016172    
  0.119547002      -1.35239303     -0.303498000       1599.02368      0.642016172    
  0.119788997      -1.35320199       0.00000000       1408.75342      0.183706969    
  0.276576012      -1.33565402       0.00000000       1408.75342      0.183706969    
  0.275435001      -1.33191597     -0.303496003       1408.75342      0.183706969    
  0.119547002      -1.35239303     -0.303498000       1408.75342      0.183706969    
  0.275435001      -1.33191597     -0.303496003       944.370361     -0.386213452    
  0.427076995      -1.28898001     -0.303507000       944.370361     -0.386213452    
  0.427242011      -1.28995001     -0.606999993       944.370361     -0.386213452    
  0.275831014      -1.33588004     -0.606999993       944.370361     -0.386213452    
  0.275435001      -1.33191597     -0.303496003       714.564087      0.353716195    
  0.275831014      -1.33588004     -0.606999993       714.564087      0.353716195    
  0.119135000      -1.35326600     -0.606999993       714.564087      0.353716195    
  0.119547002      -1.35239303     -0.303498000       714.564087      0.353716195    
  0.275435001      -1.33191597     -0.303496003       1678.57739     -0.251551569    
  0.276576012      -1.33565402       0.00000000       1678.57739     -0.251551569    
  0.427509993      -1.28986895       0.00000000       1678.57739     -0.251551569    
  0.427076995      -1.28898001     -0.303507000       1678.57739     -0.251551569    
  0.427509993      -1.28986895       0.00000000       2224.45337     -0.468712419    
  0.574636996      -1.23315501       0.00000000       2224.45337     -0.468712419    
  0.573706985      -1.23136795     -0.303485990       2224.45337     -0.468712419    
  0.427076995      -1.28898001     -0.303507000       2224.45337     -0.468712419    
  0.573706985      -1.23136795     -0.303485990       2067.63867     -0.716946304    
  0.712854981      -1.15688002     -0.303496987       2067.63867     -0.716946304    
  0.713809013      -1.15876603     -0.606999993       2067.63867     -0.716946304    
  0.574283004      -1.23334301     -0.606999993       2067.63867     -0.716946304    
  0.573706985      -1.23136795     -0.303485990       1479.73364     -0.645002544    
  0.574283004      -1.23334301     -0.606999993       1479.73364     -0.645002544    
  0.427242011      -1.28995001     -0.606999993       1479.73364     -0.645002544    
  0.427076995      -1.28898001     -0.303507000       1479.73364     -0.645002544    
  0.573706985      -1.23136795     -0.303485990       2872.50220     -0.556294024    
  0.574636996      -1.23315501       0.00000000       2872.50220     -0.556294024    
  0.713741004      -1.15880203       0.00000000       2872.50220     -0.556294024    
  0.712854981      -1.15688002     -0.303496987       2872.50220     -0.556294024    
  0.713741004      -1.15880203       0.00000000       3525.37744     -0.578912675    
  0.841937006      -1.06636095       0.00000000       3525.37744     -0.578912675    
  0.841498017      -1.06573403     -0.303485990       3525.37744     -0.578912675    
  0.712854981      -1.15688002     -0.303496987       3525.37744     -0.578912675    
  0.841498017      -1.06573403     -0.303485990       3178.43164     -0.697856307    
  0.960639000     -0.962104976     -0.303470999       3178.43164     -0.697856307    
  0.964356005     -0.965893984     -0.606999993       3178.43164     -0.697856307    
  0.841796994      -1.06647599     -0.606999993       3178.43164     -0.697856307    
  0.841498017      -1.06573403     -0.303485990       2642.92163     -0.718635440    
  0.841796994      -1.06647599     -0.606999993       2642.92163     -0.718635440    
  0.713809013      -1.15876603     -0.606999993       2642.92163     -0.718635440    
  0.712854981      -1.15688002     -0.303496987       2642.92163     -0.718635440    
  0.841498017      -1.06573403     -0.303485990       4149.53906     -0.570840120    
  0.841937006      -1.06636095       0.00000000       4149.53906     -0.570840120    
  0.963932991     -0.966242015       0.00000000       4149.53906     -0.570840120    
  0.960639000     -0.962104976     -0.303470999       4149.53906     -0.570840120    
  0.963932991     -0.966242015       0.00000000       4724.06396     -0.550308466    
   1.06506598     -0.843514979       0.00000000       4724.06396     -0.550308466    
   1.06428695     -0.842682004     -0.303481996       4724.06396     -0.550308466    
  0.960639000     -0.962104976     -0.303470999       4724.06396     -0.550308466    
   1.06428695     -0.842682004     -0.303481996       4094.59351     -0.630203307    
   1.15591598     -0.714210987     -0.303485006       4094.59351     -0.630203307    
   1.15788805     -0.715448976     -0.606999993       4094.59351     -0.630203307    
   1.06537795     -0.843134999     -0.606999993       4094.59351     -0.630203307    
   1.06428695     -0.842682004     -0.303481996       3669.52075     -0.665947318    
   1.06537795     -0.843134999     -0.606999993       3669.52075     -0.665947318    
  0.964356005     -0.965893984     -0.606999993       3669.52075     -0.665947318    
  0.960639000     -0.962104976     -0.303470999       3669.52075     -0.665947318    
   1.06428695     -0.842682004     -0.303481996       5210.60205     -0.523472548    
   1.06506598     -0.843514979       0.00000000       5210.60205     -0.523472548    
   1.15792501     -0.715381980       0.00000000       5210.60205     -0.523472548    
   1.15591598     -0.714210987     -0.303485006       5210.60205     -0.523472548    
   1.15792501     -0.715381980       0.00000000       5645.60547     -0.497500181    
   1.23237598     -0.576093972       0.00000000       5645.60547     -0.497500181    
   1.23120904     -0.575251997     -0.303514004       5645.60547     -0.497500181    
   1.15591598     -0.714210987     -0.303485006       5645.60547     -0.497500181    
   1.23120904     -0.575251997     -0.303514004       4749.60205     -0.570030987    
   1.28844094     -0.428344995     -0.303512990       4749.60205     -0.570030987    
   1.28952503     -0.428642988     -0.606999993       4749.60205     -0.570030987    
   1.23252702     -0.575810015     -0.606999993       4749.60205     -0.570030987    
   1.23120904     -0.575251997     -0.303514004       4459.57520     -0.598333180    
   1.23252702     -0.575810015     -0.606999993       4459.57520     -0.598333180    
   1.15788805     -0.715448976     -0.606999993       4459.57520     -0.598333180    
   1.15591598     -0.714210987     -0.303485006       4459.57520     -0.598333180    
   1.23120904     -0.575251997     -0.303514004       5993.05371     -0.474485040    
   1.23237598     -0.576093972       0.00000000       5993.05371     -0.474485040    
   1.28947699     -0.428801000       0.00000000       5993.05371     -0.474485040    
   1.28844094     -0.428344995     -0.303512990       5993.05371     -0.474485040    
   1.28947699     -0.428801000       0.00000000       6264.82422     -0.454549015    
   1.33532202     -0.277671993       0.00000000       6264.82422     -0.454549015    
   1.33076501     -0.276203990     -0.303492010       6264.82422     -0.454549015    
   1.28844094     -0.428344995     -0.303512990       6264.82422     -0.454549015    
   1.33076501     -0.276203990     -0.303492010       5107.93311     -0.536131740    
   1.35229194     -0.119709998     -0.303514004       5107.93311     -0.536131740    
   1.35321999     -0.119608998     -0.606999993       5107.93311     -0.536131740    
   1.33549094     -0.277112991     -0.606999993       5107.93311     -0.536131740    
   1.33076501     -0.276203990     -0.303492010       4969.14160     -0.549554527    
   1.33549094     -0.277112991     -0.606999993       4969.14160     -0.549554527    
   1.28952503     -0.428642988     -0.606999993       4969.14160     -0.549554527    
   1.28844094     -0.428344995     -0.303512990       4969.14160     -0.549554527    
   1.33076501     -0.276203990     -0.303492010       6437.02490     -0.441198021    
   1.33532202     -0.277671993       0.00000000       6437.02490     -0.441198021    
   1.35319102     -0.119900003       0.00000000       6437.02490     -0.441198021    
   1.35229194     -0.119709998     -0.303514004       6437.02490     -0.441198021    
   1.35319102     -0.119900003       0.00000000       6505.95557     -0.436080575    
   1.36124396       3.81390005E-02   0.00000000       6505.95557     -0.436080575    
   1.35858905       3.79349999E-02 -0.303501010       6505.95557     -0.436080575    
   1.35229194     -0.119709998     -0.303514004       6505.95557     -0.436080575    
   1.35858905       3.79349999E-02 -0.303501010       5154.82568     -0.530572176    
   1.34464097      0.195331007     -0.303496003       5154.82568     -0.530572176    
   1.34573400      0.195616007     -0.606999993       5154.82568     -0.530572176    
   1.36126804       3.78950015E-02 -0.606999993       5154.82568     -0.530572176    
   1.35858905       3.79349999E-02 -0.303501010       5170.09814     -0.528308451    
   1.36126804       3.78950015E-02 -0.606999993       5170.09814     -0.528308451    
   1.35321999     -0.119608998     -0.606999993       5170.09814     -0.528308451    
   1.35229194     -0.119709998     -0.303514004       5170.09814     -0.528308451    
   1.35858905       3.79349999E-02 -0.303501010       6488.00195     -0.438744307    
   1.36124396       3.81390005E-02   0.00000000       6488.00195     -0.438744307    
   1.34575403      0.195406005       0.00000000       6488.00195     -0.438744307    
   1.34464097      0.195331007     -0.303496003       6488.00195     -0.438744307    
   1.34575403      0.195406005       0.00000000       6369.75977     -0.448122531    
   1.31339800      0.349945009       0.00000000       6369.75977     -0.448122531    
   1.31216300      0.349725991     -0.303487003       6369.75977     -0.448122531    
   1.34464097      0.195331007     -0.303496003       6369.75977     -0.448122531    
   1.31216300      0.349725991     -0.303487003       4878.85156     -0.558872521    
   1.26341999      0.500032008     -0.303494006       4878.85156     -0.558872521    
   1.26736605      0.501691997     -0.606999993       4878.85156     -0.558872521    
   1.31333196      0.350163996     -0.606999993       4878.85156     -0.558872521    
   1.31216300      0.349725991     -0.303487003       5055.39307     -0.540135384    
   1.31333196      0.350163996     -0.606999993       5055.39307     -0.540135384    
   1.34573400      0.195616007     -0.606999993       5055.39307     -0.540135384    
   1.34464097      0.195331007     -0.303496003       5055.39307     -0.540135384    
   1.31216300      0.349725991     -0.303487003       6168.12549     -0.464041889    
   1.31339800      0.349945009       0.00000000       6168.12549     -0.464041889    
   1.26751196      0.501209974       0.00000000       6168.12549     -0.464041889    
   1.26341999      0.500032008     -0.303494006       6168.12549     -0.464041889    
   1.26751196      0.501209974       0.00000000       5874.16455     -0.484423876    
   1.19658697      0.643051028       0.00000000       5874.16455     -0.484423876    
   1.19583094      0.642783999     -0.303505003       5874.16455     -0.484423876    
   1.26341999      0.500032008     -0.303494006       5874.16455     -0.484423876    
   1.19583094      0.642783999     -0.303505003       4309.66650     -0.613892376    
   1.11495602      0.778467000     -0.303483993       4309.66650     -0.613892376    
   1.11731696      0.779847026     -0.606999993       4309.66650     -0.613892376    
   1.19653296      0.643149972     -0.606999993       4309.66650     -0.613892376    
   1.19583094      0.642783999     -0.303505003       4626.54053     -0.582994878    
   1.19653296      0.643149972     -0.606999993       4626.54053     -0.582994878    
   1.26736605      0.501691997     -0.606999993       4626.54053     -0.582994878    
   1.26341999      0.500032008     -0.303494006       4626.54053     -0.582994878    
   1.19583094      0.642783999     -0.303505003       5487.52588     -0.510188997    
   1.19658697      0.643051028       0.00000000       5487.52588     -0.510188997    
   1.11705506      0.780165970       0.00000000       5487.52588     -0.510188997    
   1.11495602      0.778467000     -0.303483993       5487.52588     -0.510188997    
   1.11705506      0.780165970       0.00000000       5011.66504     -0.536987722    
   1.01674199      0.902397990       0.00000000       5011.66504     -0.536987722    
   1.01591504      0.901737988     -0.303478003       5011.66504     -0.536987722    
   1.11495602      0.778467000     -0.303483993       5011.66504     -0.536987722    
   1.01591504      0.901737988     -0.303478003       3455.47632     -0.680102527    
  0.904204011       1.01322901     -0.303456992       3455.47632     -0.680102527    
  0.905143023       1.01448905     -0.606999993       3455.47632     -0.680102527    
   1.01659799      0.902572989     -0.606999993       3455.47632     -0.680102527    
   1.01591504      0.901737988     -0.303478003       3915.38940     -0.646902084    
   1.01659799      0.902572989     -0.606999993       3915.38940     -0.646902084    
   1.11731696      0.779847026     -0.606999993       3915.38940     -0.646902084    
   1.11495602      0.778467000     -0.303483993       3915.38940     -0.646902084    
   1.01591504      0.901737988     -0.303478003       4463.30127     -0.561957240    
   1.01674199      0.902397990       0.00000000       4463.30127     -0.561957240    
  0.905318975       1.01434398       0.00000000       4463.30127     -0.561957240    
  0.904204011       1.01322901     -0.303456992       4463.30127     -0.561957240    
  0.905318975       1.01434398       0.00000000       3879.86841     -0.580078423    
  0.782918990       1.11479497       0.00000000       3879.86841     -0.580078423    
  0.780644000       1.11195600     -0.303485006       3879.86841     -0.580078423    
  0.904204011       1.01322901     -0.303456992       3879.86841     -0.580078423    
  0.780644000       1.11195600     -0.303485006       2382.61938     -0.723320603    
  0.645825028       1.19414902     -0.303514004       2382.61938     -0.723320603    
  0.646153986       1.19492805     -0.606999993       2382.61938     -0.723320603    
  0.782611012       1.11504900     -0.606999993       2382.61938     -0.723320603    
  0.780644000       1.11195600     -0.303485006       2943.56079     -0.711119294    
  0.782611012       1.11504900     -0.606999993       2943.56079     -0.711119294    
  0.905143023       1.01448905     -0.606999993       2943.56079     -0.711119294    
  0.904204011       1.01322901     -0.303456992       2943.56079     -0.711119294    
  0.780644000       1.11195600     -0.303485006       3235.63379     -0.575853229    
  0.782918990       1.11479497       0.00000000       3235.63379     -0.575853229    
  0.646345019       1.19482601       0.00000000       3235.63379     -0.575853229    
  0.645825028       1.19414902     -0.303514004       3235.63379     -0.575853229    
  0.646345019       1.19482601       0.00000000       2579.16162     -0.528804183    
  0.504974008       1.26637006       0.00000000       2579.16162     -0.528804183    
  0.503772974       1.26314998     -0.303521991       2579.16162     -0.528804183    
  0.645825028       1.19414902     -0.303514004       2579.16162     -0.528804183    
  0.503772974       1.26314998     -0.303521991       1217.43384     -0.559904516    
  0.353130996       1.31116498     -0.303510994       1217.43384     -0.559904516    
  0.353300005       1.31237996     -0.606999993       1217.43384     -0.559904516    
  0.505183995       1.26630700     -0.606999993       1217.43384     -0.559904516    
  0.503772974       1.26314998     -0.303521991       1799.09778     -0.698096097    
  0.505183995       1.26630700     -0.606999993       1799.09778     -0.698096097    
  0.646153986       1.19492805     -0.606999993       1799.09778     -0.698096097    
  0.645825028       1.19414902     -0.303514004       1799.09778     -0.698096097    
  0.503772974       1.26314998     -0.303521991       1954.86230     -0.386103690    
  0.504974008       1.26637006       0.00000000       1954.86230     -0.386103690    
  0.353493989       1.31232095       0.00000000       1954.86230     -0.386103690    
  0.353130996       1.31116498     -0.303510994       1954.86230     -0.386103690    
  0.353493989       1.31232095       0.00000000       1508.03955      -6.77393228E-02
  0.199064001       1.34539402       0.00000000       1508.03955      -6.77393228E-02
  0.198755994       1.34360003     -0.303496003       1508.03955      -6.77393228E-02
  0.353130996       1.31116498     -0.303510994       1508.03955      -6.77393228E-02
  0.198755994       1.34360003     -0.303496003       831.010315      0.724527478    
   4.12769988E-02   1.35817802     -0.303508013       831.010315      0.724527478    
   4.12410013E-02   1.36093795     -0.606999993       831.010315      0.724527478    
  0.199025005       1.34539795     -0.606999993       831.010315      0.724527478    
  0.198755994       1.34360003     -0.303496003       782.497437      -9.41358283E-02
  0.199025005       1.34539795     -0.606999993       782.497437      -9.41358283E-02
  0.353300005       1.31237996     -0.606999993       782.497437      -9.41358283E-02
  0.353130996       1.31116498     -0.303510994       782.497437      -9.41358283E-02
  0.198755994       1.34360003     -0.303496003       1449.29834      0.417647749    
  0.199064001       1.34539402       0.00000000       1449.29834      0.417647749    
   4.17769998E-02   1.36088502       0.00000000       1449.29834      0.417647749    
   4.12769988E-02   1.35817802     -0.303508013       1449.29834      0.417647749    
   4.17769998E-02   1.36088502       0.00000000       1839.14734      0.793258369    
 -0.116410002       1.35353506       0.00000000       1839.14734      0.793258369    
 -0.116471998       1.35271096     -0.303496987       1839.14734      0.793258369    
   4.12769988E-02   1.35817802     -0.303508013       1839.14734      0.793258369    
 -0.116471998       1.35271096     -0.303496987       1953.43298       1.22101724    
 -0.273027003       1.33229196     -0.303496003       1953.43298       1.22101724    
 -0.273876995       1.33647299     -0.606999993       1953.43298       1.22101724    
 -0.116722003       1.35350394     -0.606999993       1953.43298       1.22101724    
 -0.116471998       1.35271096     -0.303496987       1334.37097       1.11205399    
 -0.116722003       1.35350394     -0.606999993       1334.37097       1.11205399    
   4.12410013E-02   1.36093795     -0.606999993       1334.37097       1.11205399    
   4.12769988E-02   1.35817802     -0.303508013       1334.37097       1.11205399    
 -0.116471998       1.35271096     -0.303496987       2456.84766      0.966398299    
 -0.116410002       1.35353506       0.00000000       2456.84766      0.966398299    
 -0.274069011       1.33641505       0.00000000       2456.84766      0.966398299    
 -0.273027003       1.33229196     -0.303496003       2456.84766      0.966398299    
 -0.274069011       1.33641505       0.00000000       3164.35352       1.02710080    
 -0.425588995       1.29045200       0.00000000       3164.35352       1.02710080    
 -0.425258011       1.28953803     -0.303507000       3164.35352       1.02710080    
 -0.273027003       1.33229196     -0.303496003       3164.35352       1.02710080    
 -0.425258011       1.28953803     -0.303507000       3222.55811       1.19809473    
 -0.572302997       1.23206902     -0.303485990       3222.55811       1.19809473    
 -0.573064029       1.23399496     -0.606999993       3222.55811       1.19809473    
 -0.425651014       1.29043305     -0.606999993       3222.55811       1.19809473    
 -0.425258011       1.28953803     -0.303507000       2599.66138       1.23014224    
 -0.425651014       1.29043305     -0.606999993       2599.66138       1.23014224    
 -0.273876995       1.33647299     -0.606999993       2599.66138       1.23014224    
 -0.273027003       1.33229196     -0.303496003       2599.66138       1.23014224    
 -0.425258011       1.28953803     -0.303507000       3860.69775       1.02810156    
 -0.425588995       1.29045200       0.00000000       3860.69775       1.02810156    
 -0.573195994       1.23392498       0.00000000       3860.69775       1.02810156    
 -0.572302997       1.23206902     -0.303485990       3860.69775       1.02810156    
 -0.573195994       1.23392498       0.00000000       4545.82178       1.00248015    
 -0.712655008       1.15938199       0.00000000       4545.82178       1.00248015    
 -0.711889029       1.15749002     -0.303496003       4545.82178       1.00248015    
 -0.572302997       1.23206902     -0.303485990       4545.82178       1.00248015    
 -0.711889029       1.15749002     -0.303496003       4368.64697       1.10052121    
 -0.840825975       1.06629205     -0.303485990       4368.64697       1.10052121    
 -0.841368973       1.06682706     -0.606999993       4368.64697       1.10052121    
 -0.712980986       1.15920806     -0.606999993       4368.64697       1.10052121    
 -0.711889029       1.15749002     -0.303496003       3817.07715       1.15333927    
 -0.712980986       1.15920806     -0.606999993       3817.07715       1.15333927    
 -0.573064029       1.23399496     -0.606999993       3817.07715       1.15333927    
 -0.572302997       1.23206902     -0.303485990       3817.07715       1.15333927    
 -0.711889029       1.15749002     -0.303496003       5178.44580      0.963326454    
 -0.712655008       1.15938199       0.00000000       5178.44580      0.963326454    
 -0.841165006       1.06699395       0.00000000       5178.44580      0.963326454    
 -0.840825975       1.06629205     -0.303485990       5178.44580      0.963326454    
 -0.841165006       1.06699395       0.00000000       5761.99463      0.918881953    
 -0.963320017      0.966744006       0.00000000       5761.99463      0.918881953    
 -0.960084975      0.962615013     -0.303470999       5761.99463      0.918881953    
 -0.840825975       1.06629205     -0.303485990       5761.99463      0.918881953    
 -0.960084975      0.962615013     -0.303470999       5320.90771      0.997872591    
  -1.06383705      0.843237996     -0.303481996       5320.90771      0.997872591    
  -1.06481802      0.843816996     -0.606999993       5320.90771      0.997872591    
 -0.963873982      0.966289997     -0.606999993       5320.90771      0.997872591    
 -0.960084975      0.962615013     -0.303470999       4871.60986       1.04850686    
 -0.963873982      0.966289997     -0.606999993       4871.60986       1.04850686    
 -0.841368973       1.06682706     -0.606999993       4871.60986       1.04850686    
 -0.840825975       1.06629205     -0.303485990       4871.60986       1.04850686    
 -0.960084975      0.962615013     -0.303470999       6296.85059      0.874829412    
 -0.963320017      0.966744006       0.00000000       6296.85059      0.874829412    
  -1.06464398      0.844029009       0.00000000       6296.85059      0.874829412    
  -1.06383705      0.843237996     -0.303481996       6296.85059      0.874829412    
  -1.06464398      0.844029009       0.00000000       6746.43115      0.833263159    
  -1.15769398      0.715813994       0.00000000       6746.43115      0.833263159    
  -1.15564799      0.714680016     -0.303483993       6746.43115      0.833263159    
  -1.06383705      0.843237996     -0.303481996       6746.43115      0.833263159    
  -1.15564799      0.714680016     -0.303483993       6030.63232      0.910505772    
  -1.23108304      0.575536013     -0.303514004       6030.63232      0.910505772    
  -1.23232996      0.576179981     -0.606999993       6030.63232      0.910505772    
  -1.15756094      0.716063023     -0.606999993       6030.63232      0.910505772    
  -1.15564799      0.714680016     -0.303483993       5702.32471      0.950439513    
  -1.15756094      0.716063023     -0.606999993       5702.32471      0.950439513    
  -1.06481802      0.843816996     -0.606999993       5702.32471      0.950439513    
  -1.06383705      0.843237996     -0.303481996       5702.32471      0.950439513    
  -1.15564799      0.714680016     -0.303483993       7153.48047      0.797049642    
  -1.15769398      0.715813994       0.00000000       7153.48047      0.797049642    
  -1.23224795      0.576331973       0.00000000       7153.48047      0.797049642    
  -1.23108304      0.575536013     -0.303514004       7153.48047      0.797049642    
  -1.23224795      0.576331973       0.00000000       7460.95361      0.767046988    
  -1.28948605      0.428772002       0.00000000       7460.95361      0.767046988    
  -1.28842103      0.428404987     -0.303512990       7460.95361      0.767046988    
  -1.23108304      0.575536013     -0.303514004       7460.95361      0.767046988    
  -1.28842103      0.428404987     -0.303512990       6472.23438      0.853916347    
  -1.33082402      0.275959998     -0.303492010       6472.23438      0.853916347    
  -1.33550000      0.277083993     -0.606999993       6472.23438      0.853916347    