 VARIABLES="X" "Y" "Z" "abs(p) (Pa)" "angle(p) (rad)"
ZONE N=   2720,E =    2069, F=FEPOINT, ET=QUADRILATERAL
 -0.767116010      -1.12776399       0.00000000       10493.5615      -1.56854820    
 -0.769354999      -1.12002099     -0.303523988       10493.5615      -1.56854820    
 -0.896136999      -1.02028203     -0.303463012       10493.5615      -1.56854820    
 -0.894908011      -1.02288902       0.00000000       10493.5615      -1.56854820    
 -0.767116010      -1.12776399       0.00000000       11332.2979      -1.56852031    
 -0.630888999      -1.20308697       0.00000000       11332.2979      -1.56852031    
 -0.635528028      -1.19958198     -0.303541005       11332.2979      -1.56852031    
 -0.769354999      -1.12002099     -0.303523988       11332.2979      -1.56852031    
 -0.635528028      -1.19958198     -0.303541005       9579.08203      -1.56821191    
 -0.495362997      -1.26606500     -0.303519011       9579.08203      -1.56821191    
 -0.499298006      -1.26809204     -0.606999993       9579.08203      -1.56821191    
 -0.640147984      -1.19813800     -0.606998026       9579.08203      -1.56821191    
 -0.635528028      -1.19958198     -0.303541005       9000.31055      -1.56824243    
 -0.640147984      -1.19813800     -0.606998026       9000.31055      -1.56824243    
 -0.777105987      -1.11956596     -0.606999993       9000.31055      -1.56824243    
 -0.769354999      -1.12002099     -0.303523988       9000.31055      -1.56824243    
 -0.635528028      -1.19958198     -0.303541005       11975.9453      -1.56849730    
 -0.630888999      -1.20308697       0.00000000       11975.9453      -1.56849730    
 -0.494486004      -1.26955199       0.00000000       11975.9453      -1.56849730    
 -0.495362997      -1.26606500     -0.303519011       11975.9453      -1.56849730    
 -0.494486004      -1.26955199       0.00000000       12534.5820      -1.56848156    
 -0.346311986      -1.31449997       0.00000000       12534.5820      -1.56848156    
 -0.346753001      -1.31307304     -0.303510010       12534.5820      -1.56848156    
 -0.495362997      -1.26606500     -0.303519011       12534.5820      -1.56848156    
 -0.346753001      -1.31307304     -0.303510010       10344.5361      -1.56818211    
 -0.193608001      -1.34425998     -0.303494990       10344.5361      -1.56818211    
 -0.195028007      -1.34579206     -0.606999993       10344.5361      -1.56818211    
 -0.348751009      -1.31376004     -0.606999993       10344.5361      -1.56818211    
 -0.346753001      -1.31307304     -0.303510010       10019.7412      -1.56819010    
 -0.348751009      -1.31376004     -0.606999993       10019.7412      -1.56819010    
 -0.499298006      -1.26809204     -0.606999993       10019.7412      -1.56819010    
 -0.495362997      -1.26606500     -0.303519011       10019.7412      -1.56819010    
 -0.346753001      -1.31307304     -0.303510010       12961.2646      -1.56848431    
 -0.346311986      -1.31449997       0.00000000       12961.2646      -1.56848431    
 -0.193381995      -1.34595394       0.00000000       12961.2646      -1.56848431    
 -0.193608001      -1.34425998     -0.303494990       12961.2646      -1.56848431    
 -0.193381995      -1.34595394       0.00000000       13252.4307      -1.56848383    
  -3.75179984E-02  -1.36130500       0.00000000       13252.4307      -1.56848383    
  -3.73950005E-02  -1.35827899     -0.303512007       13252.4307      -1.56848383    
 -0.193608001      -1.34425998     -0.303494990       13252.4307      -1.56848383    
  -3.73950005E-02  -1.35827899     -0.303512007       10542.3887      -1.56816232    
  0.119547002      -1.35239303     -0.303498000       10542.3887      -1.56816232    
  0.119135000      -1.35326600     -0.606999993       10542.3887      -1.56816232    
  -3.82840000E-02  -1.36122894     -0.606998980       10542.3887      -1.56816232    
  -3.73950005E-02  -1.35827899     -0.303512007       10526.7568      -1.56817091    
  -3.82840000E-02  -1.36122894     -0.606998980       10526.7568      -1.56817091    
 -0.195028007      -1.34579206     -0.606999993       10526.7568      -1.56817091    
 -0.193608001      -1.34425998     -0.303494990       10526.7568      -1.56817091    
  -3.73950005E-02  -1.35827899     -0.303512007       13255.2100      -1.56848443    
  -3.75179984E-02  -1.36130500       0.00000000       13255.2100      -1.56848443    
  0.119788997      -1.35320199       0.00000000       13255.2100      -1.56848443    
  0.119547002      -1.35239303     -0.303498000       13255.2100      -1.56848443    
  0.119788997      -1.35320199       0.00000000       13094.5146      -1.56847763    
  0.276576012      -1.33565402       0.00000000       13094.5146      -1.56847763    
  0.275435001      -1.33191597     -0.303496003       13094.5146      -1.56847763    
  0.119547002      -1.35239303     -0.303498000       13094.5146      -1.56847763    
  0.275435001      -1.33191597     -0.303496003       10361.4229      -1.56819558    
  0.427076995      -1.28898001     -0.303507000       10361.4229      -1.56819558    
  0.427242011      -1.28995001     -0.606999993       10361.4229      -1.56819558    
  0.275831014      -1.33588004     -0.606999993       10361.4229      -1.56819558    
  0.275435001      -1.33191597     -0.303496003       10599.7881      -1.56819189    
  0.275831014      -1.33588004     -0.606999993       10599.7881      -1.56819189    
  0.119135000      -1.35326600     -0.606999993       10599.7881      -1.56819189    
  0.119547002      -1.35239303     -0.303498000       10599.7881      -1.56819189    
  0.275435001      -1.33191597     -0.303496003       12762.9736      -1.56847715    
  0.276576012      -1.33565402       0.00000000       12762.9736      -1.56847715    
  0.427509993      -1.28986895       0.00000000       12762.9736      -1.56847715    
  0.427076995      -1.28898001     -0.303507000       12762.9736      -1.56847715    
  0.427509993      -1.28986895       0.00000000       12238.8516      -1.56850362    
  0.574636996      -1.23315501       0.00000000       12238.8516      -1.56850362    
  0.573706985      -1.23136795     -0.303485990       12238.8516      -1.56850362    
  0.427076995      -1.28898001     -0.303507000       12238.8516      -1.56850362    
  0.573706985      -1.23136795     -0.303485990       9468.11035      -1.56821585    
  0.712854981      -1.15688002     -0.303496987       9468.11035      -1.56821585    
  0.713809013      -1.15876603     -0.606999993       9468.11035      -1.56821585    
  0.574283004      -1.23334301     -0.606999993       9468.11035      -1.56821585    
  0.573706985      -1.23136795     -0.303485990       9988.43750      -1.56821036    
  0.574283004      -1.23334301     -0.606999993       9988.43750      -1.56821036    
  0.427242011      -1.28995001     -0.606999993       9988.43750      -1.56821036    
  0.427076995      -1.28898001     -0.303507000       9988.43750      -1.56821036    
  0.573706985      -1.23136795     -0.303485990       11571.9434      -1.56851637    
  0.574636996      -1.23315501       0.00000000       11571.9434      -1.56851637    
  0.713741004      -1.15880203       0.00000000       11571.9434      -1.56851637    
  0.712854981      -1.15688002     -0.303496987       11571.9434      -1.56851637    
  0.713741004      -1.15880203       0.00000000       10804.2832      -1.56854296    
  0.841937006      -1.06636095       0.00000000       10804.2832      -1.56854296    
  0.841498017      -1.06573403     -0.303485990       10804.2832      -1.56854296    
  0.712854981      -1.15688002     -0.303496987       10804.2832      -1.56854296    
  0.841498017      -1.06573403     -0.303485990       8097.41602      -1.56825805    
  0.960639000     -0.962104976     -0.303470999       8097.41602      -1.56825805    
  0.964356005     -0.965893984     -0.606999993       8097.41602      -1.56825805    
  0.841796994      -1.06647599     -0.606999993       8097.41602      -1.56825805    
  0.841498017      -1.06573403     -0.303485990       8846.22070      -1.56823730    
  0.841796994      -1.06647599     -0.606999993       8846.22070      -1.56823730    
  0.713809013      -1.15876603     -0.606999993       8846.22070      -1.56823730    
  0.712854981      -1.15688002     -0.303496987       8846.22070      -1.56823730    
  0.841498017      -1.06573403     -0.303485990       10043.5303      -1.56856346    
  0.841937006      -1.06636095       0.00000000       10043.5303      -1.56856346    
  0.963932991     -0.966242015       0.00000000       10043.5303      -1.56856346    
  0.960639000     -0.962104976     -0.303470999       10043.5303      -1.56856346    
  0.963932991     -0.966242015       0.00000000       9054.32617      -1.56858134    
   1.06506598     -0.843514979       0.00000000       9054.32617      -1.56858134    
   1.06428695     -0.842682004     -0.303481996       9054.32617      -1.56858134    
  0.960639000     -0.962104976     -0.303470999       9054.32617      -1.56858134    
   1.06428695     -0.842682004     -0.303481996       6571.29248      -1.56843102    
   1.15591598     -0.714210987     -0.303485006       6571.29248      -1.56843102    
   1.15788805     -0.715448976     -0.606999993       6571.29248      -1.56843102    
   1.06537795     -0.843134999     -0.606999993       6571.29248      -1.56843102    
   1.06428695     -0.842682004     -0.303481996       7274.30957      -1.56829166    
   1.06537795     -0.843134999     -0.606999993       7274.30957      -1.56829166    
  0.964356005     -0.965893984     -0.606999993       7274.30957      -1.56829166    
  0.960639000     -0.962104976     -0.303470999       7274.30957      -1.56829166    
   1.06428695     -0.842682004     -0.303481996       7824.15088      -1.56862271    
   1.06506598     -0.843514979       0.00000000       7824.15088      -1.56862271    
   1.15792501     -0.715381980       0.00000000       7824.15088      -1.56862271    
   1.15591598     -0.714210987     -0.303485006       7824.15088      -1.56862271    
   1.15792501     -0.715381980       0.00000000       6567.46582      -1.56865549    
   1.23237598     -0.576093972       0.00000000       6567.46582      -1.56865549    
   1.23120904     -0.575251997     -0.303514004       6567.46582      -1.56865549    
   1.15591598     -0.714210987     -0.303485006       6567.46582      -1.56865549    
   1.23120904     -0.575251997     -0.303514004       4445.62207      -1.56862974    
   1.28844094     -0.428344995     -0.303512990       4445.62207      -1.56862974    
   1.28952503     -0.428642988     -0.606999993       4445.62207      -1.56862974    
   1.23252702     -0.575810015     -0.606999993       4445.62207      -1.56862974    
   1.23120904     -0.575251997     -0.303514004       5542.84229      -1.56850576    
   1.23252702     -0.575810015     -0.606999993       5542.84229      -1.56850576    
   1.15788805     -0.715448976     -0.606999993       5542.84229      -1.56850576    
   1.15591598     -0.714210987     -0.303485006       5542.84229      -1.56850576    
   1.23120904     -0.575251997     -0.303514004       5498.64014      -1.56882668    
   1.23237598     -0.576093972       0.00000000       5498.64014      -1.56882668    
   1.28947699     -0.428801000       0.00000000       5498.64014      -1.56882668    
   1.28844094     -0.428344995     -0.303512990       5498.64014      -1.56882668    
   1.28947699     -0.428801000       0.00000000       3954.10010      -1.56895328    
   1.33532202     -0.277671993       0.00000000       3954.10010      -1.56895328    
   1.33076501     -0.276203990     -0.303492010       3954.10010      -1.56895328    
   1.28844094     -0.428344995     -0.303512990       3954.10010      -1.56895328    
   1.33076501     -0.276203990     -0.303492010       2222.07520      -1.56937695    
   1.35229194     -0.119709998     -0.303514004       2222.07520      -1.56937695    
   1.35321999     -0.119608998     -0.606999993       2222.07520      -1.56937695    
   1.33549094     -0.277112991     -0.606999993       2222.07520      -1.56937695    
   1.33076501     -0.276203990     -0.303492010       3302.15332      -1.56886101    
   1.33549094     -0.277112991     -0.606999993       3302.15332      -1.56886101    
   1.28952503     -0.428642988     -0.606999993       3302.15332      -1.56886101    
   1.28844094     -0.428344995     -0.303512990       3302.15332      -1.56886101    
   1.33076501     -0.276203990     -0.303492010       2245.93213      -1.56915772    
   1.33532202     -0.277671993       0.00000000       2245.93213      -1.56915772    
   1.35319102     -0.119900003       0.00000000       2245.93213      -1.56915772    
   1.35229194     -0.119709998     -0.303514004       2245.93213      -1.56915772    
   1.35319102     -0.119900003       0.00000000       711.375854      -1.57099342    
   1.36124396       3.81390005E-02   0.00000000       711.375854      -1.57099342    
   1.35858905       3.79349999E-02 -0.303501010       711.375854      -1.57099342    
   1.35229194     -0.119709998     -0.303514004       711.375854      -1.57099342    
   1.35858905       3.79349999E-02 -0.303501010       439.718109       1.57905138    
   1.34464097      0.195331007     -0.303496003       439.718109       1.57905138    
   1.34573400      0.195616007     -0.606999993       439.718109       1.57905138    
   1.36126804       3.78950015E-02 -0.606999993       439.718109       1.57905138    
   1.35858905       3.79349999E-02 -0.303501010       738.102295      -1.57121372    
   1.36126804       3.78950015E-02 -0.606999993       738.102295      -1.57121372    
   1.35321999     -0.119608998     -0.606999993       738.102295      -1.57121372    
   1.35229194     -0.119709998     -0.303514004       738.102295      -1.57121372    
   1.35858905       3.79349999E-02 -0.303501010       695.812561       1.57635236    
   1.36124396       3.81390005E-02   0.00000000       695.812561       1.57635236    
   1.34575403      0.195406005       0.00000000       695.812561       1.57635236    
   1.34464097      0.195331007     -0.303496003       695.812561       1.57635236    
   1.34575403      0.195406005       0.00000000       2194.00928       1.57427740    
   1.31339800      0.349945009       0.00000000       2194.00928       1.57427740    
   1.31216300      0.349725991     -0.303487003       2194.00928       1.57427740    
   1.34464097      0.195331007     -0.303496003       2194.00928       1.57427740    
   1.31216300      0.349725991     -0.303487003       2908.81592       1.57432461    
   1.26341999      0.500032008     -0.303494006       2908.81592       1.57432461    
   1.26736605      0.501691997     -0.606999993       2908.81592       1.57432461    
   1.31333196      0.350163996     -0.606999993       2908.81592       1.57432461    
   1.31216300      0.349725991     -0.303487003       1633.18542       1.57505214    
   1.31333196      0.350163996     -0.606999993       1633.18542       1.57505214    
   1.34573400      0.195616007     -0.606999993       1633.18542       1.57505214    
   1.34464097      0.195331007     -0.303496003       1633.18542       1.57505214    
   1.31216300      0.349725991     -0.303487003       3666.78491       1.57390964    
   1.31339800      0.349945009       0.00000000       3666.78491       1.57390964    
   1.26751196      0.501209974       0.00000000       3666.78491       1.57390964    
   1.26341999      0.500032008     -0.303494006       3666.78491       1.57390964    
   1.26751196      0.501209974       0.00000000       5135.52686       1.57369494    
   1.19658697      0.643051028       0.00000000       5135.52686       1.57369494    
   1.19583094      0.642783999     -0.303505003       5135.52686       1.57369494    
   1.26341999      0.500032008     -0.303494006       5135.52686       1.57369494    
   1.19583094      0.642783999     -0.303505003       5149.21924       1.57395959    
   1.11495602      0.778467000     -0.303483993       5149.21924       1.57395959    
   1.11731696      0.779847026     -0.606999993       5149.21924       1.57395959    
   1.19653296      0.643149972     -0.606999993       5149.21924       1.57395959    
   1.19583094      0.642783999     -0.303505003       4012.58008       1.57411015    
   1.19653296      0.643149972     -0.606999993       4012.58008       1.57411015    
   1.26736605      0.501691997     -0.606999993       4012.58008       1.57411015    
   1.26341999      0.500032008     -0.303494006       4012.58008       1.57411015    
   1.19583094      0.642783999     -0.303505003       6459.78857       1.57362103    
   1.19658697      0.643051028       0.00000000       6459.78857       1.57362103    
   1.11705506      0.780165970       0.00000000       6459.78857       1.57362103    
   1.11495602      0.778467000     -0.303483993       6459.78857       1.57362103    
   1.11705506      0.780165970       0.00000000       7640.43896       1.57358146    
   1.01674199      0.902397990       0.00000000       7640.43896       1.57358146    
   1.01591504      0.901737988     -0.303478003       7640.43896       1.57358146    
   1.11495602      0.778467000     -0.303483993       7640.43896       1.57358146    
   1.01591504      0.901737988     -0.303478003       7083.43555       1.57381225    
  0.904204011       1.01322901     -0.303456992       7083.43555       1.57381225    
  0.905143023       1.01448905     -0.606999993       7083.43555       1.57381225    
   1.01659799      0.902572989     -0.606999993       7083.43555       1.57381225    
   1.01591504      0.901737988     -0.303478003       6189.61182       1.57385790    
   1.01659799      0.902572989     -0.606999993       6189.61182       1.57385790    
   1.11731696      0.779847026     -0.606999993       6189.61182       1.57385790    
   1.11495602      0.778467000     -0.303483993       6189.61182       1.57385790    
   1.01591504      0.901737988     -0.303478003       8722.68945       1.57355511    
   1.01674199      0.902397990       0.00000000       8722.68945       1.57355511    
  0.905318975       1.01434398       0.00000000       8722.68945       1.57355511    
  0.904204011       1.01322901     -0.303456992       8722.68945       1.57355511    
  0.905318975       1.01434398       0.00000000       9772.51660       1.57354569    
  0.782918990       1.11479497       0.00000000       9772.51660       1.57354569    
  0.780644000       1.11195600     -0.303485006       9772.51660       1.57354569    
  0.904204011       1.01322901     -0.303456992       9772.51660       1.57354569    
  0.780644000       1.11195600     -0.303485006       8536.00195       1.57376814    
  0.645825028       1.19414902     -0.303514004       8536.00195       1.57376814    
  0.646153986       1.19492805     -0.606999993       8536.00195       1.57376814    
  0.782611012       1.11504900     -0.606999993       8536.00195       1.57376814    
  0.780644000       1.11195600     -0.303485006       7867.20459       1.57378888    
  0.782611012       1.11504900     -0.606999993       7867.20459       1.57378888    
  0.905143023       1.01448905     -0.606999993       7867.20459       1.57378888    
  0.904204011       1.01322901     -0.303456992       7867.20459       1.57378888    
  0.780644000       1.11195600     -0.303485006       10585.7588       1.57355368    
  0.782918990       1.11479497       0.00000000       10585.7588       1.57355368    
  0.646345019       1.19482601       0.00000000       10585.7588       1.57355368    
  0.645825028       1.19414902     -0.303514004       10585.7588       1.57355368    
  0.646345019       1.19482601       0.00000000       11263.9053       1.57357895    
  0.504974008       1.26637006       0.00000000       11263.9053       1.57357895    
  0.503772974       1.26314998     -0.303521991       11263.9053       1.57357895    
  0.645825028       1.19414902     -0.303514004       11263.9053       1.57357895    
  0.503772974       1.26314998     -0.303521991       9569.94238       1.57373714    
  0.353130996       1.31116498     -0.303510994       9569.94238       1.57373714    
  0.353300005       1.31237996     -0.606999993       9569.94238       1.57373714    
  0.505183995       1.26630700     -0.606999993       9569.94238       1.57373714    
  0.503772974       1.26314998     -0.303521991       9118.04590       1.57375216    
  0.505183995       1.26630700     -0.606999993       9118.04590       1.57375216    
  0.646153986       1.19492805     -0.606999993       9118.04590       1.57375216    
  0.645825028       1.19414902     -0.303514004       9118.04590       1.57375216    
  0.503772974       1.26314998     -0.303521991       11808.8232       1.57358992    
  0.504974008       1.26637006       0.00000000       11808.8232       1.57358992    
  0.353493989       1.31232095       0.00000000       11808.8232       1.57358992    
  0.353130996       1.31116498     -0.303510994       11808.8232       1.57358992    
  0.353493989       1.31232095       0.00000000       12208.4814       1.57358849    
  0.199064001       1.34539402       0.00000000       12208.4814       1.57358849    
  0.198755994       1.34360003     -0.303496003       12208.4814       1.57358849    
  0.353130996       1.31116498     -0.303510994       12208.4814       1.57358849    
  0.198755994       1.34360003     -0.303496003       10009.9150       1.57374191    
   4.12769988E-02   1.35817802     -0.303508013       10009.9150       1.57374191    
   4.12410013E-02   1.36093795     -0.606999993       10009.9150       1.57374191    
  0.199025005       1.34539795     -0.606999993       10009.9150       1.57374191    
  0.198755994       1.34360003     -0.303496003       9893.44434       1.57372677    
  0.199025005       1.34539795     -0.606999993       9893.44434       1.57372677    
  0.353300005       1.31237996     -0.606999993       9893.44434       1.57372677    
  0.353130996       1.31116498     -0.303510994       9893.44434       1.57372677    
  0.198755994       1.34360003     -0.303496003       12455.2891       1.57360077    
  0.199064001       1.34539402       0.00000000       12455.2891       1.57360077    
   4.17769998E-02   1.36088502       0.00000000       12455.2891       1.57360077    
   4.12769988E-02   1.35817802     -0.303508013       12455.2891       1.57360077    
   4.17769998E-02   1.36088502       0.00000000       12612.3652       1.57359171    
 -0.116410002       1.35353506       0.00000000       12612.3652       1.57359171    
 -0.116471998       1.35271096     -0.303496987       12612.3652       1.57359171    
   4.12769988E-02   1.35817802     -0.303508013       12612.3652       1.57359171    
 -0.116471998       1.35271096     -0.303496987       10101.8916       1.57370174    
 -0.273027003       1.33229196     -0.303496003       10101.8916       1.57370174    
 -0.273876995       1.33647299     -0.606999993       10101.8916       1.57370174    
 -0.116722003       1.35350394     -0.606999993       10101.8916       1.57370174    
 -0.116471998       1.35271096     -0.303496987       10064.8984       1.57373869    
 -0.116722003       1.35350394     -0.606999993       10064.8984       1.57373869    
   4.12410013E-02   1.36093795     -0.606999993       10064.8984       1.57373869    
   4.12769988E-02   1.35817802     -0.303508013       10064.8984       1.57373869    
 -0.116471998       1.35271096     -0.303496987       12574.5215       1.57360280    
 -0.116410002       1.35353506       0.00000000       12574.5215       1.57360280    
 -0.274069011       1.33641505       0.00000000       12574.5215       1.57360280    
 -0.273027003       1.33229196     -0.303496003       12574.5215       1.57360280    
 -0.274069011       1.33641505       0.00000000       12303.8789       1.57360458    
 -0.425588995       1.29045200       0.00000000       12303.8789       1.57360458    
 -0.425258011       1.28953803     -0.303507000       12303.8789       1.57360458    
 -0.273027003       1.33229196     -0.303496003       12303.8789       1.57360458    
 -0.425258011       1.28953803     -0.303507000       9527.75879       1.57370806    
 -0.572302997       1.23206902     -0.303485990       9527.75879       1.57370806    
 -0.573064029       1.23399496     -0.606999993       9527.75879       1.57370806    
 -0.425651014       1.29043305     -0.606999993       9527.75879       1.57370806    
 -0.425258011       1.28953803     -0.303507000       9885.06543       1.57370698    
 -0.425651014       1.29043305     -0.606999993       9885.06543       1.57370698    
 -0.273876995       1.33647299     -0.606999993       9885.06543       1.57370698    
 -0.273027003       1.33229196     -0.303496003       9885.06543       1.57370698    
 -0.425258011       1.28953803     -0.303507000       11765.4775       1.57358086    
 -0.425588995       1.29045200       0.00000000       11765.4775       1.57358086    
 -0.573195994       1.23392498       0.00000000       11765.4775       1.57358086    
 -0.572302997       1.23206902     -0.303485990       11765.4775       1.57358086    
 -0.573195994       1.23392498       0.00000000       11075.2363       1.57357311    
 -0.712655008       1.15938199       0.00000000       11075.2363       1.57357311    
 -0.711889029       1.15749002     -0.303496003       11075.2363       1.57357311    
 -0.572302997       1.23206902     -0.303485990       11075.2363       1.57357311    
 -0.711889029       1.15749002     -0.303496003       8419.41602       1.57374263    
 -0.840825975       1.06629205     -0.303485990       8419.41602       1.57374263    
 -0.841368973       1.06682706     -0.606999993       8419.41602       1.57374263    
 -0.712980986       1.15920806     -0.606999993       8419.41602       1.57374263    
 -0.711889029       1.15749002     -0.303496003       9026.46484       1.57372475    
 -0.712980986       1.15920806     -0.606999993       9026.46484       1.57372475    
 -0.573064029       1.23399496     -0.606999993       9026.46484       1.57372475    
 -0.572302997       1.23206902     -0.303485990       9026.46484       1.57372475    
 -0.711889029       1.15749002     -0.303496003       10252.6250       1.57355201    
 -0.712655008       1.15938199       0.00000000       10252.6250       1.57355201    
 -0.841165006       1.06699395       0.00000000       10252.6250       1.57355201    
 -0.840825975       1.06629205     -0.303485990       10252.6250       1.57355201    
 -0.841165006       1.06699395       0.00000000       9337.16211       1.57355833    
 -0.963320017      0.966744006       0.00000000       9337.16211       1.57355833    
 -0.960084975      0.962615013     -0.303470999       9337.16211       1.57355833    
 -0.840825975       1.06629205     -0.303485990       9337.16211       1.57355833    
 -0.960084975      0.962615013     -0.303470999       6842.55566       1.57383800    
  -1.06383705      0.843237996     -0.303481996       6842.55566       1.57383800    
  -1.06481802      0.843816996     -0.606999993       6842.55566       1.57383800    
 -0.963873982      0.966289997     -0.606999993       6842.55566       1.57383800    
 -0.960084975      0.962615013     -0.303470999       7667.03125       1.57378244    
 -0.963873982      0.966289997     -0.606999993       7667.03125       1.57378244    
 -0.841368973       1.06682706     -0.606999993       7667.03125       1.57378244    
 -0.840825975       1.06629205     -0.303485990       7667.03125       1.57378244    
 -0.960084975      0.962615013     -0.303470999       8358.58105       1.57356524    
 -0.963320017      0.966744006       0.00000000       8358.58105       1.57356524    
  -1.06464398      0.844029009       0.00000000       8358.58105       1.57356524    
  -1.06383705      0.843237996     -0.303481996       8358.58105       1.57356524    
  -1.06464398      0.844029009       0.00000000       7193.39307       1.57357812    
  -1.15769398      0.715813994       0.00000000       7193.39307       1.57357812    
  -1.15564799      0.714680016     -0.303483993       7193.39307       1.57357812    
  -1.06383705      0.843237996     -0.303481996       7193.39307       1.57357812    
  -1.15564799      0.714680016     -0.303483993       4941.64453       1.57400680    
  -1.23108304      0.575536013     -0.303514004       4941.64453       1.57400680    
  -1.23232996      0.576179981     -0.606999993       4941.64453       1.57400680    
  -1.15756094      0.716063023     -0.606999993       4941.64453       1.57400680    
  -1.15564799      0.714680016     -0.303483993       5924.03174       1.57390594    
  -1.15756094      0.716063023     -0.606999993       5924.03174       1.57390594    
  -1.06481802      0.843816996     -0.606999993       5924.03174       1.57390594    
  -1.06383705      0.843237996     -0.303481996       5924.03174       1.57390594    
  -1.15564799      0.714680016     -0.303483993       5990.86230       1.57362723    
  -1.15769398      0.715813994       0.00000000       5990.86230       1.57362723    
  -1.23224795      0.576331973       0.00000000       5990.86230       1.57362723    
  -1.23108304      0.575536013     -0.303514004       5990.86230       1.57362723    
  -1.23224795      0.576331973       0.00000000       4675.92676       1.57370245    
  -1.28948605      0.428772002       0.00000000       4675.92676       1.57370245    
  -1.28842103      0.428404987     -0.303512990       4675.92676       1.57370245    
  -1.23108304      0.575536013     -0.303514004       4675.92676       1.57370245    
  -1.28842103      0.428404987     -0.303512990       2655.64062       1.57457674    
  -1.33082402      0.275959998     -0.303492010       2655.64062       1.57457674    
  -1.33550000      0.277083993     -0.606999993       2655.64062       1.57457674    