 VARIABLES="X" "Y" "Z" "abs(p) (Pa)" "angle(p) (rad)"
ZONE N=   2720,E =    2069, F=FEPOINT, ET=QUADRILATERAL
 -0.767116010      -1.12776399       0.00000000       4235.74512       2.03142142    
 -0.769354999      -1.12002099     -0.303523988       4235.74512       2.03142142    
 -0.896136999      -1.02028203     -0.303463012       4235.74512       2.03142142    
 -0.894908011      -1.02288902       0.00000000       4235.74512       2.03142142    
 -0.767116010      -1.12776399       0.00000000       4235.25195       2.03143001    
 -0.630888999      -1.20308697       0.00000000       4235.25195       2.03143001    
 -0.635528028      -1.19958198     -0.303541005       4235.25195       2.03143001    
 -0.769354999      -1.12002099     -0.303523988       4235.25195       2.03143001    
 -0.635528028      -1.19958198     -0.303541005       4221.85205       2.02804446    
 -0.495362997      -1.26606500     -0.303519011       4221.85205       2.02804446    
 -0.499298006      -1.26809204     -0.606999993       4221.85205       2.02804446    
 -0.640147984      -1.19813800     -0.606998026       4221.85205       2.02804446    
 -0.635528028      -1.19958198     -0.303541005       4222.14355       2.02803397    
 -0.640147984      -1.19813800     -0.606998026       4222.14355       2.02803397    
 -0.777105987      -1.11956596     -0.606999993       4222.14355       2.02803397    
 -0.769354999      -1.12002099     -0.303523988       4222.14355       2.02803397    
 -0.635528028      -1.19958198     -0.303541005       4232.96875       2.03149605    
 -0.630888999      -1.20308697       0.00000000       4232.96875       2.03149605    
 -0.494486004      -1.26955199       0.00000000       4232.96875       2.03149605    
 -0.495362997      -1.26606500     -0.303519011       4232.96875       2.03149605    
 -0.494486004      -1.26955199       0.00000000       4233.38037       2.03146815    
 -0.346311986      -1.31449997       0.00000000       4233.38037       2.03146815    
 -0.346753001      -1.31307304     -0.303510010       4233.38037       2.03146815    
 -0.495362997      -1.26606500     -0.303519011       4233.38037       2.03146815    
 -0.346753001      -1.31307304     -0.303510010       4221.20264       2.02809215    
 -0.193608001      -1.34425998     -0.303494990       4221.20264       2.02809215    
 -0.195028007      -1.34579206     -0.606999993       4221.20264       2.02809215    
 -0.348751009      -1.31376004     -0.606999993       4221.20264       2.02809215    
 -0.346753001      -1.31307304     -0.303510010       4221.81299       2.02803493    
 -0.348751009      -1.31376004     -0.606999993       4221.81299       2.02803493    
 -0.499298006      -1.26809204     -0.606999993       4221.81299       2.02803493    
 -0.495362997      -1.26606500     -0.303519011       4221.81299       2.02803493    
 -0.346753001      -1.31307304     -0.303510010       4233.79785       2.03146434    
 -0.346311986      -1.31449997       0.00000000       4233.79785       2.03146434    
 -0.193381995      -1.34595394       0.00000000       4233.79785       2.03146434    
 -0.193608001      -1.34425998     -0.303494990       4233.79785       2.03146434    
 -0.193381995      -1.34595394       0.00000000       4235.59473       2.03137016    
  -3.75179984E-02  -1.36130500       0.00000000       4235.59473       2.03137016    
  -3.73950005E-02  -1.35827899     -0.303512007       4235.59473       2.03137016    
 -0.193608001      -1.34425998     -0.303494990       4235.59473       2.03137016    
  -3.73950005E-02  -1.35827899     -0.303512007       4221.87256       2.02797103    
  0.119547002      -1.35239303     -0.303498000       4221.87256       2.02797103    
  0.119135000      -1.35326600     -0.606999993       4221.87256       2.02797103    
  -3.82840000E-02  -1.36122894     -0.606998980       4221.87256       2.02797103    
  -3.73950005E-02  -1.35827899     -0.303512007       4221.64795       2.02800107    
  -3.82840000E-02  -1.36122894     -0.606998980       4221.64795       2.02800107    
 -0.195028007      -1.34579206     -0.606999993       4221.64795       2.02800107    
 -0.193608001      -1.34425998     -0.303494990       4221.64795       2.02800107    
  -3.73950005E-02  -1.35827899     -0.303512007       4234.62158       2.03134847    
  -3.75179984E-02  -1.36130500       0.00000000       4234.62158       2.03134847    
  0.119788997      -1.35320199       0.00000000       4234.62158       2.03134847    
  0.119547002      -1.35239303     -0.303498000       4234.62158       2.03134847    
  0.119788997      -1.35320199       0.00000000       4234.19580       2.03128529    
  0.276576012      -1.33565402       0.00000000       4234.19580       2.03128529    
  0.275435001      -1.33191597     -0.303496003       4234.19580       2.03128529    
  0.119547002      -1.35239303     -0.303498000       4234.19580       2.03128529    
  0.275435001      -1.33191597     -0.303496003       4223.18896       2.02780914    
  0.427076995      -1.28898001     -0.303507000       4223.18896       2.02780914    
  0.427242011      -1.28995001     -0.606999993       4223.18896       2.02780914    
  0.275831014      -1.33588004     -0.606999993       4223.18896       2.02780914    
  0.275435001      -1.33191597     -0.303496003       4223.00977       2.02785373    
  0.275831014      -1.33588004     -0.606999993       4223.00977       2.02785373    
  0.119135000      -1.35326600     -0.606999993       4223.00977       2.02785373    
  0.119547002      -1.35239303     -0.303498000       4223.00977       2.02785373    
  0.275435001      -1.33191597     -0.303496003       4233.88770       2.03123212    
  0.276576012      -1.33565402       0.00000000       4233.88770       2.03123212    
  0.427509993      -1.28986895       0.00000000       4233.88770       2.03123212    
  0.427076995      -1.28898001     -0.303507000       4233.88770       2.03123212    
  0.427509993      -1.28986895       0.00000000       4233.10840       2.03121424    
  0.574636996      -1.23315501       0.00000000       4233.10840       2.03121424    
  0.573706985      -1.23136795     -0.303485990       4233.10840       2.03121424    
  0.427076995      -1.28898001     -0.303507000       4233.10840       2.03121424    
  0.573706985      -1.23136795     -0.303485990       4224.20508       2.02771068    
  0.712854981      -1.15688002     -0.303496987       4224.20508       2.02771068    
  0.713809013      -1.15876603     -0.606999993       4224.20508       2.02771068    
  0.574283004      -1.23334301     -0.606999993       4224.20508       2.02771068    
  0.573706985      -1.23136795     -0.303485990       4222.75732       2.02784729    
  0.574283004      -1.23334301     -0.606999993       4222.75732       2.02784729    
  0.427242011      -1.28995001     -0.606999993       4222.75732       2.02784729    
  0.427076995      -1.28898001     -0.303507000       4222.75732       2.02784729    
  0.573706985      -1.23136795     -0.303485990       4233.45752       2.03115749    
  0.574636996      -1.23315501       0.00000000       4233.45752       2.03115749    
  0.713741004      -1.15880203       0.00000000       4233.45752       2.03115749    
  0.712854981      -1.15688002     -0.303496987       4233.45752       2.03115749    
  0.713741004      -1.15880203       0.00000000       4233.84033       2.03112221    
  0.841937006      -1.06636095       0.00000000       4233.84033       2.03112221    
  0.841498017      -1.06573403     -0.303485990       4233.84033       2.03112221    
  0.712854981      -1.15688002     -0.303496987       4233.84033       2.03112221    
  0.841498017      -1.06573403     -0.303485990       4226.78613       2.02751231    
  0.960639000     -0.962104976     -0.303470999       4226.78613       2.02751231    
  0.964356005     -0.965893984     -0.606999993       4226.78613       2.02751231    
  0.841796994      -1.06647599     -0.606999993       4226.78613       2.02751231    
  0.841498017      -1.06573403     -0.303485990       4224.76807       2.02769780    
  0.841796994      -1.06647599     -0.606999993       4224.76807       2.02769780    
  0.713809013      -1.15876603     -0.606999993       4224.76807       2.02769780    
  0.712854981      -1.15688002     -0.303496987       4224.76807       2.02769780    
  0.841498017      -1.06573403     -0.303485990       4234.09326       2.03114009    
  0.841937006      -1.06636095       0.00000000       4234.09326       2.03114009    
  0.963932991     -0.966242015       0.00000000       4234.09326       2.03114009    
  0.960639000     -0.962104976     -0.303470999       4234.09326       2.03114009    
  0.963932991     -0.966242015       0.00000000       4235.28418       2.03107285    
   1.06506598     -0.843514979       0.00000000       4235.28418       2.03107285    
   1.06428695     -0.842682004     -0.303481996       4235.28418       2.03107285    
  0.960639000     -0.962104976     -0.303470999       4235.28418       2.03107285    
   1.06428695     -0.842682004     -0.303481996       4223.39404       2.02794099    
   1.15591598     -0.714210987     -0.303485006       4223.39404       2.02794099    
   1.15788805     -0.715448976     -0.606999993       4223.39404       2.02794099    
   1.06537795     -0.843134999     -0.606999993       4223.39404       2.02794099    
   1.06428695     -0.842682004     -0.303481996       4227.88672       2.02743149    
   1.06537795     -0.843134999     -0.606999993       4227.88672       2.02743149    
  0.964356005     -0.965893984     -0.606999993       4227.88672       2.02743149    
  0.960639000     -0.962104976     -0.303470999       4227.88672       2.02743149    
   1.06428695     -0.842682004     -0.303481996       4235.04639       2.03096700    
   1.06506598     -0.843514979       0.00000000       4235.04639       2.03096700    
   1.15792501     -0.715381980       0.00000000       4235.04639       2.03096700    
   1.15591598     -0.714210987     -0.303485006       4235.04639       2.03096700    
   1.15792501     -0.715381980       0.00000000       4237.76465       2.03084373    
   1.23237598     -0.576093972       0.00000000       4237.76465       2.03084373    
   1.23120904     -0.575251997     -0.303514004       4237.76465       2.03084373    
   1.15591598     -0.714210987     -0.303485006       4237.76465       2.03084373    
   1.23120904     -0.575251997     -0.303514004       4225.82227       2.02778888    
   1.28844094     -0.428344995     -0.303512990       4225.82227       2.02778888    
   1.28952503     -0.428642988     -0.606999993       4225.82227       2.02778888    
   1.23252702     -0.575810015     -0.606999993       4225.82227       2.02778888    
   1.23120904     -0.575251997     -0.303514004       4224.98389       2.02782297    
   1.23252702     -0.575810015     -0.606999993       4224.98389       2.02782297    
   1.15788805     -0.715448976     -0.606999993       4224.98389       2.02782297    
   1.15591598     -0.714210987     -0.303485006       4224.98389       2.02782297    
   1.23120904     -0.575251997     -0.303514004       4235.25391       2.03129053    
   1.23237598     -0.576093972       0.00000000       4235.25391       2.03129053    
   1.28947699     -0.428801000       0.00000000       4235.25391       2.03129053    
   1.28844094     -0.428344995     -0.303512990       4235.25391       2.03129053    
   1.28947699     -0.428801000       0.00000000       4238.48096       2.03120089    
   1.33532202     -0.277671993       0.00000000       4238.48096       2.03120089    
   1.33076501     -0.276203990     -0.303492010       4238.48096       2.03120089    
   1.28844094     -0.428344995     -0.303512990       4238.48096       2.03120089    
   1.33076501     -0.276203990     -0.303492010       4224.31348       2.02793860    
   1.35229194     -0.119709998     -0.303514004       4224.31348       2.02793860    
   1.35321999     -0.119608998     -0.606999993       4224.31348       2.02793860    
   1.33549094     -0.277112991     -0.606999993       4224.31348       2.02793860    
   1.33076501     -0.276203990     -0.303492010       4227.25098       2.02765441    
   1.33549094     -0.277112991     -0.606999993       4227.25098       2.02765441    
   1.28952503     -0.428642988     -0.606999993       4227.25098       2.02765441    
   1.28844094     -0.428344995     -0.303512990       4227.25098       2.02765441    
   1.33076501     -0.276203990     -0.303492010       4243.92529       2.03065777    
   1.33532202     -0.277671993       0.00000000       4243.92529       2.03065777    
   1.35319102     -0.119900003       0.00000000       4243.92529       2.03065777    
   1.35229194     -0.119709998     -0.303514004       4243.92529       2.03065777    
   1.35319102     -0.119900003       0.00000000       4245.29980       2.03056574    
   1.36124396       3.81390005E-02   0.00000000       4245.29980       2.03056574    
   1.35858905       3.79349999E-02 -0.303501010       4245.29980       2.03056574    
   1.35229194     -0.119709998     -0.303514004       4245.29980       2.03056574    
   1.35858905       3.79349999E-02 -0.303501010       4230.16406       2.02739525    
   1.34464097      0.195331007     -0.303496003       4230.16406       2.02739525    
   1.34573400      0.195616007     -0.606999993       4230.16406       2.02739525    
   1.36126804       3.78950015E-02 -0.606999993       4230.16406       2.02739525    
   1.35858905       3.79349999E-02 -0.303501010       4229.65234       2.02743483    
   1.36126804       3.78950015E-02 -0.606999993       4229.65234       2.02743483    
   1.35321999     -0.119608998     -0.606999993       4229.65234       2.02743483    
   1.35229194     -0.119709998     -0.303514004       4229.65234       2.02743483    
   1.35858905       3.79349999E-02 -0.303501010       4242.47217       2.03083873    
   1.36124396       3.81390005E-02   0.00000000       4242.47217       2.03083873    
   1.34575403      0.195406005       0.00000000       4242.47217       2.03083873    
   1.34464097      0.195331007     -0.303496003       4242.47217       2.03083873    
   1.34575403      0.195406005       0.00000000       4243.75244       2.03076577    
   1.31339800      0.349945009       0.00000000       4243.75244       2.03076577    
   1.31216300      0.349725991     -0.303487003       4243.75244       2.03076577    
   1.34464097      0.195331007     -0.303496003       4243.75244       2.03076577    
   1.31216300      0.349725991     -0.303487003       4233.48291       2.02719045    
   1.26341999      0.500032008     -0.303494006       4233.48291       2.02719045    
   1.26736605      0.501691997     -0.606999993       4233.48291       2.02719045    
   1.31333196      0.350163996     -0.606999993       4233.48291       2.02719045    
   1.31216300      0.349725991     -0.303487003       4230.44092       2.02739739    
   1.31333196      0.350163996     -0.606999993       4230.44092       2.02739739    
   1.34573400      0.195616007     -0.606999993       4230.44092       2.02739739    
   1.34464097      0.195331007     -0.303496003       4230.44092       2.02739739    
   1.31216300      0.349725991     -0.303487003       4245.18457       2.03071880    
   1.31339800      0.349945009       0.00000000       4245.18457       2.03071880    
   1.26751196      0.501209974       0.00000000       4245.18457       2.03071880    
   1.26341999      0.500032008     -0.303494006       4245.18457       2.03071880    
   1.26751196      0.501209974       0.00000000       4249.39551       2.03034616    
   1.19658697      0.643051028       0.00000000       4249.39551       2.03034616    
   1.19583094      0.642783999     -0.303505003       4249.39551       2.03034616    
   1.26341999      0.500032008     -0.303494006       4249.39551       2.03034616    
   1.19583094      0.642783999     -0.303505003       4231.55127       2.02724981    
   1.11495602      0.778467000     -0.303483993       4231.55127       2.02724981    
   1.11731696      0.779847026     -0.606999993       4231.55127       2.02724981    
   1.19653296      0.643149972     -0.606999993       4231.55127       2.02724981    
   1.19583094      0.642783999     -0.303505003       4233.78662       2.02716136    
   1.19653296      0.643149972     -0.606999993       4233.78662       2.02716136    
   1.26736605      0.501691997     -0.606999993       4233.78662       2.02716136    
   1.26341999      0.500032008     -0.303494006       4233.78662       2.02716136    
   1.19583094      0.642783999     -0.303505003       4247.94531       2.03031802    
   1.19658697      0.643051028       0.00000000       4247.94531       2.03031802    
   1.11705506      0.780165970       0.00000000       4247.94531       2.03031802    
   1.11495602      0.778467000     -0.303483993       4247.94531       2.03031802    
   1.11705506      0.780165970       0.00000000       4246.68604       2.03029656    
   1.01674199      0.902397990       0.00000000       4246.68604       2.03029656    
   1.01591504      0.901737988     -0.303478003       4246.68604       2.03029656    
   1.11495602      0.778467000     -0.303483993       4246.68604       2.03029656    
   1.01591504      0.901737988     -0.303478003       4233.52734       2.02699375    
  0.904204011       1.01322901     -0.303456992       4233.52734       2.02699375    
  0.905143023       1.01448905     -0.606999993       4233.52734       2.02699375    
   1.01659799      0.902572989     -0.606999993       4233.52734       2.02699375    
   1.01591504      0.901737988     -0.303478003       4234.32275       2.02694798    
   1.01659799      0.902572989     -0.606999993       4234.32275       2.02694798    
   1.11731696      0.779847026     -0.606999993       4234.32275       2.02694798    
   1.11495602      0.778467000     -0.303483993       4234.32275       2.02694798    
   1.01591504      0.901737988     -0.303478003       4245.40479       2.03029346    
   1.01674199      0.902397990       0.00000000       4245.40479       2.03029346    
  0.905318975       1.01434398       0.00000000       4245.40479       2.03029346    
  0.904204011       1.01322901     -0.303456992       4245.40479       2.03029346    
  0.905318975       1.01434398       0.00000000       4243.04932       2.03040481    
  0.782918990       1.11479497       0.00000000       4243.04932       2.03040481    
  0.780644000       1.11195600     -0.303485006       4243.04932       2.03040481    
  0.904204011       1.01322901     -0.303456992       4243.04932       2.03040481    
  0.780644000       1.11195600     -0.303485006       4233.72461       2.02691126    
  0.645825028       1.19414902     -0.303514004       4233.72461       2.02691126    
  0.646153986       1.19492805     -0.606999993       4233.72461       2.02691126    
  0.782611012       1.11504900     -0.606999993       4233.72461       2.02691126    
  0.780644000       1.11195600     -0.303485006       4234.03223       2.02689981    
  0.782611012       1.11504900     -0.606999993       4234.03223       2.02689981    
  0.905143023       1.01448905     -0.606999993       4234.03223       2.02689981    
  0.904204011       1.01322901     -0.303456992       4234.03223       2.02689981    
  0.780644000       1.11195600     -0.303485006       4241.52686       2.03048539    
  0.782918990       1.11479497       0.00000000       4241.52686       2.03048539    
  0.646345019       1.19482601       0.00000000       4241.52686       2.03048539    
  0.645825028       1.19414902     -0.303514004       4241.52686       2.03048539    
  0.646345019       1.19482601       0.00000000       4244.40576       2.03036690    
  0.504974008       1.26637006       0.00000000       4244.40576       2.03036690    
  0.503772974       1.26314998     -0.303521991       4244.40576       2.03036690    
  0.645825028       1.19414902     -0.303514004       4244.40576       2.03036690    
  0.503772974       1.26314998     -0.303521991       4235.17529       2.02679205    
  0.353130996       1.31116498     -0.303510994       4235.17529       2.02679205    
  0.353300005       1.31237996     -0.606999993       4235.17529       2.02679205    
  0.505183995       1.26630700     -0.606999993       4235.17529       2.02679205    
  0.503772974       1.26314998     -0.303521991       4234.44824       2.02684546    
  0.505183995       1.26630700     -0.606999993       4234.44824       2.02684546    
  0.646153986       1.19492805     -0.606999993       4234.44824       2.02684546    
  0.645825028       1.19414902     -0.303514004       4234.44824       2.02684546    
  0.503772974       1.26314998     -0.303521991       4244.57715       2.03035593    
  0.504974008       1.26637006       0.00000000       4244.57715       2.03035593    
  0.353493989       1.31232095       0.00000000       4244.57715       2.03035593    
  0.353130996       1.31116498     -0.303510994       4244.57715       2.03035593    
  0.353493989       1.31232095       0.00000000       4244.52783       2.03036785    
  0.199064001       1.34539402       0.00000000       4244.52783       2.03036785    
  0.198755994       1.34360003     -0.303496003       4244.52783       2.03036785    
  0.353130996       1.31116498     -0.303510994       4244.52783       2.03036785    
  0.198755994       1.34360003     -0.303496003       4237.31934       2.02674079    
   4.12769988E-02   1.35817802     -0.303508013       4237.31934       2.02674079    
   4.12410013E-02   1.36093795     -0.606999993       4237.31934       2.02674079    
  0.199025005       1.34539795     -0.606999993       4237.31934       2.02674079    
  0.198755994       1.34360003     -0.303496003       4234.60107       2.02687287    
  0.199025005       1.34539795     -0.606999993       4234.60107       2.02687287    
  0.353300005       1.31237996     -0.606999993       4234.60107       2.02687287    
  0.353130996       1.31116498     -0.303510994       4234.60107       2.02687287    
  0.198755994       1.34360003     -0.303496003       4244.45801       2.03040481    
  0.199064001       1.34539402       0.00000000       4244.45801       2.03040481    
   4.17769998E-02   1.36088502       0.00000000       4244.45801       2.03040481    
   4.12769988E-02   1.35817802     -0.303508013       4244.45801       2.03040481    
   4.17769998E-02   1.36088502       0.00000000       4246.32275       2.03037429    
 -0.116410002       1.35353506       0.00000000       4246.32275       2.03037429    
 -0.116471998       1.35271096     -0.303496987       4246.32275       2.03037429    
   4.12769988E-02   1.35817802     -0.303508013       4246.32275       2.03037429    
 -0.116471998       1.35271096     -0.303496987       4237.70166       2.02688313    
 -0.273027003       1.33229196     -0.303496003       4237.70166       2.02688313    
 -0.273876995       1.33647299     -0.606999993       4237.70166       2.02688313    
 -0.116722003       1.35350394     -0.606999993       4237.70166       2.02688313    
 -0.116471998       1.35271096     -0.303496987       4236.89990       2.02681327    
 -0.116722003       1.35350394     -0.606999993       4236.89990       2.02681327    
   4.12410013E-02   1.36093795     -0.606999993       4236.89990       2.02681327    
   4.12769988E-02   1.35817802     -0.303508013       4236.89990       2.02681327    
 -0.116471998       1.35271096     -0.303496987       4247.68652       2.03041530    
 -0.116410002       1.35353506       0.00000000       4247.68652       2.03041530    
 -0.274069011       1.33641505       0.00000000       4247.68652       2.03041530    
 -0.273027003       1.33229196     -0.303496003       4247.68652       2.03041530    
 -0.274069011       1.33641505       0.00000000       4247.54541       2.03046179    
 -0.425588995       1.29045200       0.00000000       4247.54541       2.03046179    
 -0.425258011       1.28953803     -0.303507000       4247.54541       2.03046179    
 -0.273027003       1.33229196     -0.303496003       4247.54541       2.03046179    
 -0.425258011       1.28953803     -0.303507000       4235.06836       2.02714372    
 -0.572302997       1.23206902     -0.303485990       4235.06836       2.02714372    
 -0.573064029       1.23399496     -0.606999993       4235.06836       2.02714372    
 -0.425651014       1.29043305     -0.606999993       4235.06836       2.02714372    
 -0.425258011       1.28953803     -0.303507000       4237.03467       2.02695179    
 -0.425651014       1.29043305     -0.606999993       4237.03467       2.02695179    
 -0.273876995       1.33647299     -0.606999993       4237.03467       2.02695179    
 -0.273027003       1.33229196     -0.303496003       4237.03467       2.02695179    
 -0.425258011       1.28953803     -0.303507000       4244.68164       2.03058481    
 -0.425588995       1.29045200       0.00000000       4244.68164       2.03058481    
 -0.573195994       1.23392498       0.00000000       4244.68164       2.03058481    
 -0.572302997       1.23206902     -0.303485990       4244.68164       2.03058481    
 -0.573195994       1.23392498       0.00000000       4242.04541       2.03072548    
 -0.712655008       1.15938199       0.00000000       4242.04541       2.03072548    
 -0.711889029       1.15749002     -0.303496003       4242.04541       2.03072548    
 -0.572302997       1.23206902     -0.303485990       4242.04541       2.03072548    
 -0.711889029       1.15749002     -0.303496003       4232.51904       2.02732992    
 -0.840825975       1.06629205     -0.303485990       4232.51904       2.02732992    
 -0.841368973       1.06682706     -0.606999993       4232.51904       2.02732992    
 -0.712980986       1.15920806     -0.606999993       4232.51904       2.02732992    
 -0.711889029       1.15749002     -0.303496003       4234.11816       2.02718639    
 -0.712980986       1.15920806     -0.606999993       4234.11816       2.02718639    
 -0.573064029       1.23399496     -0.606999993       4234.11816       2.02718639    
 -0.572302997       1.23206902     -0.303485990       4234.11816       2.02718639    
 -0.711889029       1.15749002     -0.303496003       4240.52539       2.03072715    
 -0.712655008       1.15938199       0.00000000       4240.52539       2.03072715    
 -0.841165006       1.06699395       0.00000000       4240.52539       2.03072715    
 -0.840825975       1.06629205     -0.303485990       4240.52539       2.03072715    
 -0.841165006       1.06699395       0.00000000       4239.23682       2.03084230    
 -0.963320017      0.966744006       0.00000000       4239.23682       2.03084230    
 -0.960084975      0.962615013     -0.303470999       4239.23682       2.03084230    
 -0.840825975       1.06629205     -0.303485990       4239.23682       2.03084230    
 -0.960084975      0.962615013     -0.303470999       4230.75391       2.02746773    
  -1.06383705      0.843237996     -0.303481996       4230.75391       2.02746773    
  -1.06481802      0.843816996     -0.606999993       4230.75391       2.02746773    
 -0.963873982      0.966289997     -0.606999993       4230.75391       2.02746773    
 -0.960084975      0.962615013     -0.303470999       4231.87549       2.02735853    
 -0.963873982      0.966289997     -0.606999993       4231.87549       2.02735853    
 -0.841368973       1.06682706     -0.606999993       4231.87549       2.02735853    
 -0.840825975       1.06629205     -0.303485990       4231.87549       2.02735853    
 -0.960084975      0.962615013     -0.303470999       4239.25342       2.03092170    
 -0.963320017      0.966744006       0.00000000       4239.25342       2.03092170    
  -1.06464398      0.844029009       0.00000000       4239.25342       2.03092170    
  -1.06383705      0.843237996     -0.303481996       4239.25342       2.03092170    
  -1.06464398      0.844029009       0.00000000       4239.24121       2.03094029    
  -1.15769398      0.715813994       0.00000000       4239.24121       2.03094029    
  -1.15564799      0.714680016     -0.303483993       4239.24121       2.03094029    
  -1.06383705      0.843237996     -0.303481996       4239.24121       2.03094029    
  -1.15564799      0.714680016     -0.303483993       4230.81787       2.02757859    
  -1.23108304      0.575536013     -0.303514004       4230.81787       2.02757859    
  -1.23232996      0.576179981     -0.606999993       4230.81787       2.02757859    
  -1.15756094      0.716063023     -0.606999993       4230.81787       2.02757859    
  -1.15564799      0.714680016     -0.303483993       4229.49365       2.02764082    
  -1.15756094      0.716063023     -0.606999993       4229.49365       2.02764082    
  -1.06481802      0.843816996     -0.606999993       4229.49365       2.02764082    
  -1.06383705      0.843237996     -0.303481996       4229.49365       2.02764082    
  -1.15564799      0.714680016     -0.303483993       4241.88477       2.03093791    
  -1.15769398      0.715813994       0.00000000       4241.88477       2.03093791    
  -1.23224795      0.576331973       0.00000000       4241.88477       2.03093791    
  -1.23108304      0.575536013     -0.303514004       4241.88477       2.03093791    
  -1.23224795      0.576331973       0.00000000       4243.24268       2.03096461    
  -1.28948605      0.428772002       0.00000000       4243.24268       2.03096461    
  -1.28842103      0.428404987     -0.303512990       4243.24268       2.03096461    
  -1.23108304      0.575536013     -0.303514004       4243.24268       2.03096461    
  -1.28842103      0.428404987     -0.303512990       4227.05664       2.02797151    
  -1.33082402      0.275959998     -0.303492010       4227.05664       2.02797151    
  -1.33550000      0.277083993     -0.606999993       4227.05664       2.02797151    