 VARIABLES="X" "Y" "Z" "abs(p) (Pa)" "angle(p) (rad)"
ZONE N=   2720,E =    2069, F=FEPOINT, ET=QUADRILATERAL
 -0.767116010      -1.12776399       0.00000000       346.962830       1.61929870    
 -0.769354999      -1.12002099     -0.303523988       346.962830       1.61929870    
 -0.896136999      -1.02028203     -0.303463012       346.962830       1.61929870    
 -0.894908011      -1.02288902       0.00000000       346.962830       1.61929870    
 -0.767116010      -1.12776399       0.00000000       375.113281       1.61882484    
 -0.630888999      -1.20308697       0.00000000       375.113281       1.61882484    
 -0.635528028      -1.19958198     -0.303541005       375.113281       1.61882484    
 -0.769354999      -1.12002099     -0.303523988       375.113281       1.61882484    
 -0.635528028      -1.19958198     -0.303541005       381.279205       1.62600768    
 -0.495362997      -1.26606500     -0.303519011       381.279205       1.62600768    
 -0.499298006      -1.26809204     -0.606999993       381.279205       1.62600768    
 -0.640147984      -1.19813800     -0.606998026       381.279205       1.62600768    
 -0.635528028      -1.19958198     -0.303541005       358.391632       1.62642848    
 -0.640147984      -1.19813800     -0.606998026       358.391632       1.62642848    
 -0.777105987      -1.11956596     -0.606999993       358.391632       1.62642848    
 -0.769354999      -1.12002099     -0.303523988       358.391632       1.62642848    
 -0.635528028      -1.19958198     -0.303541005       396.281952       1.61861372    
 -0.630888999      -1.20308697       0.00000000       396.281952       1.61861372    
 -0.494486004      -1.26955199       0.00000000       396.281952       1.61861372    
 -0.495362997      -1.26606500     -0.303519011       396.281952       1.61861372    
 -0.494486004      -1.26955199       0.00000000       414.039948       1.61832190    
 -0.346311986      -1.31449997       0.00000000       414.039948       1.61832190    
 -0.346753001      -1.31307304     -0.303510010       414.039948       1.61832190    
 -0.495362997      -1.26606500     -0.303519011       414.039948       1.61832190    
 -0.346753001      -1.31307304     -0.303510010       411.220764       1.62536013    
 -0.193608001      -1.34425998     -0.303494990       411.220764       1.62536013    
 -0.195028007      -1.34579206     -0.606999993       411.220764       1.62536013    
 -0.348751009      -1.31376004     -0.606999993       411.220764       1.62536013    
 -0.346753001      -1.31307304     -0.303510010       398.603516       1.62568378    
 -0.348751009      -1.31376004     -0.606999993       398.603516       1.62568378    
 -0.499298006      -1.26809204     -0.606999993       398.603516       1.62568378    
 -0.495362997      -1.26606500     -0.303519011       398.603516       1.62568378    
 -0.346753001      -1.31307304     -0.303510010       427.120575       1.61802280    
 -0.346311986      -1.31449997       0.00000000       427.120575       1.61802280    
 -0.193381995      -1.34595394       0.00000000       427.120575       1.61802280    
 -0.193608001      -1.34425998     -0.303494990       427.120575       1.61802280    
 -0.193381995      -1.34595394       0.00000000       436.717163       1.61768186    
  -3.75179984E-02  -1.36130500       0.00000000       436.717163       1.61768186    
  -3.73950005E-02  -1.35827899     -0.303512007       436.717163       1.61768186    
 -0.193608001      -1.34425998     -0.303494990       436.717163       1.61768186    
  -3.73950005E-02  -1.35827899     -0.303512007       419.104187       1.62509143    
  0.119547002      -1.35239303     -0.303498000       419.104187       1.62509143    
  0.119135000      -1.35326600     -0.606999993       419.104187       1.62509143    
  -3.82840000E-02  -1.36122894     -0.606998980       419.104187       1.62509143    
  -3.73950005E-02  -1.35827899     -0.303512007       418.501953       1.62517154    
  -3.82840000E-02  -1.36122894     -0.606998980       418.501953       1.62517154    
 -0.195028007      -1.34579206     -0.606999993       418.501953       1.62517154    
 -0.193608001      -1.34425998     -0.303494990       418.501953       1.62517154    
  -3.73950005E-02  -1.35827899     -0.303512007       438.450684       1.61752856    
  -3.75179984E-02  -1.36130500       0.00000000       438.450684       1.61752856    
  0.119788997      -1.35320199       0.00000000       438.450684       1.61752856    
  0.119547002      -1.35239303     -0.303498000       438.450684       1.61752856    
  0.119788997      -1.35320199       0.00000000       434.564117       1.61746037    
  0.276576012      -1.33565402       0.00000000       434.564117       1.61746037    
  0.275435001      -1.33191597     -0.303496003       434.564117       1.61746037    
  0.119547002      -1.35239303     -0.303498000       434.564117       1.61746037    
  0.275435001      -1.33191597     -0.303496003       413.662628       1.62428439    
  0.427076995      -1.28898001     -0.303507000       413.662628       1.62428439    
  0.427242011      -1.28995001     -0.606999993       413.662628       1.62428439    
  0.275831014      -1.33588004     -0.606999993       413.662628       1.62428439    
  0.275435001      -1.33191597     -0.303496003       422.686340       1.62436390    
  0.275831014      -1.33588004     -0.606999993       422.686340       1.62436390    
  0.119135000      -1.35326600     -0.606999993       422.686340       1.62436390    
  0.119547002      -1.35239303     -0.303498000       422.686340       1.62436390    
  0.275435001      -1.33191597     -0.303496003       425.163452       1.61742699    
  0.276576012      -1.33565402       0.00000000       425.163452       1.61742699    
  0.427509993      -1.28986895       0.00000000       425.163452       1.61742699    
  0.427076995      -1.28898001     -0.303507000       425.163452       1.61742699    
  0.427509993      -1.28986895       0.00000000       409.745239       1.61735976    
  0.574636996      -1.23315501       0.00000000       409.745239       1.61735976    
  0.573706985      -1.23136795     -0.303485990       409.745239       1.61735976    
  0.427076995      -1.28898001     -0.303507000       409.745239       1.61735976    
  0.573706985      -1.23136795     -0.303485990       378.442535       1.62425685    
  0.712854981      -1.15688002     -0.303496987       378.442535       1.62425685    
  0.713809013      -1.15876603     -0.606999993       378.442535       1.62425685    
  0.574283004      -1.23334301     -0.606999993       378.442535       1.62425685    
  0.573706985      -1.23136795     -0.303485990       399.019806       1.62415957    
  0.574283004      -1.23334301     -0.606999993       399.019806       1.62415957    
  0.427242011      -1.28995001     -0.606999993       399.019806       1.62415957    
  0.427076995      -1.28898001     -0.303507000       399.019806       1.62415957    
  0.573706985      -1.23136795     -0.303485990       388.143768       1.61745787    
  0.574636996      -1.23315501       0.00000000       388.143768       1.61745787    
  0.713741004      -1.15880203       0.00000000       388.143768       1.61745787    
  0.712854981      -1.15688002     -0.303496987       388.143768       1.61745787    
  0.713741004      -1.15880203       0.00000000       362.653992       1.61751461    
  0.841937006      -1.06636095       0.00000000       362.653992       1.61751461    
  0.841498017      -1.06573403     -0.303485990       362.653992       1.61751461    
  0.712854981      -1.15688002     -0.303496987       362.653992       1.61751461    
  0.841498017      -1.06573403     -0.303485990       323.530884       1.62449455    
  0.960639000     -0.962104976     -0.303470999       323.530884       1.62449455    
  0.964356005     -0.965893984     -0.606999993       323.530884       1.62449455    
  0.841796994      -1.06647599     -0.606999993       323.530884       1.62449455    
  0.841498017      -1.06573403     -0.303485990       353.548462       1.62430024    
  0.841796994      -1.06647599     -0.606999993       353.548462       1.62430024    
  0.713809013      -1.15876603     -0.606999993       353.548462       1.62430024    
  0.712854981      -1.15688002     -0.303496987       353.548462       1.62430024    
  0.841498017      -1.06573403     -0.303485990       337.036255       1.61730134    
  0.841937006      -1.06636095       0.00000000       337.036255       1.61730134    
  0.963932991     -0.966242015       0.00000000       337.036255       1.61730134    
  0.960639000     -0.962104976     -0.303470999       337.036255       1.61730134    
  0.963932991     -0.966242015       0.00000000       303.280853       1.61751509    
   1.06506598     -0.843514979       0.00000000       303.280853       1.61751509    
   1.06428695     -0.842682004     -0.303481996       303.280853       1.61751509    
  0.960639000     -0.962104976     -0.303470999       303.280853       1.61751509    
   1.06428695     -0.842682004     -0.303481996       260.732941       1.62377274    
   1.15591598     -0.714210987     -0.303485006       260.732941       1.62377274    
   1.15788805     -0.715448976     -0.606999993       260.732941       1.62377274    
   1.06537795     -0.843134999     -0.606999993       260.732941       1.62377274    
   1.06428695     -0.842682004     -0.303481996       290.453979       1.62472165    
   1.06537795     -0.843134999     -0.606999993       290.453979       1.62472165    
  0.964356005     -0.965893984     -0.606999993       290.453979       1.62472165    
  0.960639000     -0.962104976     -0.303470999       290.453979       1.62472165    
   1.06428695     -0.842682004     -0.303481996       263.559021       1.61788416    
   1.06506598     -0.843514979       0.00000000       263.559021       1.61788416    
   1.15792501     -0.715381980       0.00000000       263.559021       1.61788416    
   1.15591598     -0.714210987     -0.303485006       263.559021       1.61788416    
   1.15792501     -0.715381980       0.00000000       221.074539       1.61860418    
   1.23237598     -0.576093972       0.00000000       221.074539       1.61860418    
   1.23120904     -0.575251997     -0.303514004       221.074539       1.61860418    
   1.15591598     -0.714210987     -0.303485006       221.074539       1.61860418    
   1.23120904     -0.575251997     -0.303514004       175.731674       1.62485290    
   1.28844094     -0.428344995     -0.303512990       175.731674       1.62485290    
   1.28952503     -0.428642988     -0.606999993       175.731674       1.62485290    
   1.23252702     -0.575810015     -0.606999993       175.731674       1.62485290    
   1.23120904     -0.575251997     -0.303514004       219.631104       1.62420666    
   1.23252702     -0.575810015     -0.606999993       219.631104       1.62420666    
   1.15788805     -0.715448976     -0.606999993       219.631104       1.62420666    
   1.15591598     -0.714210987     -0.303485006       219.631104       1.62420666    
   1.23120904     -0.575251997     -0.303514004       184.996414       1.61806011    
   1.23237598     -0.576093972       0.00000000       184.996414       1.61806011    
   1.28947699     -0.428801000       0.00000000       184.996414       1.61806011    
   1.28844094     -0.428344995     -0.303512990       184.996414       1.61806011    
   1.28947699     -0.428801000       0.00000000       131.082474       1.62074625    
   1.33532202     -0.277671993       0.00000000       131.082474       1.62074625    
   1.33076501     -0.276203990     -0.303492010       131.082474       1.62074625    
   1.28844094     -0.428344995     -0.303512990       131.082474       1.62074625    
   1.33076501     -0.276203990     -0.303492010       85.4819794       1.62725365    
   1.35229194     -0.119709998     -0.303514004       85.4819794       1.62725365    
   1.35321999     -0.119608998     -0.606999993       85.4819794       1.62725365    
   1.33549094     -0.277112991     -0.606999993       85.4819794       1.62725365    
   1.33076501     -0.276203990     -0.303492010       130.330368       1.62577248    
   1.33549094     -0.277112991     -0.606999993       130.330368       1.62577248    
   1.28952503     -0.428642988     -0.606999993       130.330368       1.62577248    
   1.28844094     -0.428344995     -0.303512990       130.330368       1.62577248    
   1.33076501     -0.276203990     -0.303492010       73.9309769       1.62913513    
   1.33532202     -0.277671993       0.00000000       73.9309769       1.62913513    
   1.35319102     -0.119900003       0.00000000       73.9309769       1.62913513    
   1.35229194     -0.119709998     -0.303514004       73.9309769       1.62913513    
   1.35319102     -0.119900003       0.00000000       22.9925575       1.66261268    
   1.36124396       3.81390005E-02   0.00000000       22.9925575       1.66261268    
   1.35858905       3.79349999E-02 -0.303501010       22.9925575       1.66261268    
   1.35229194     -0.119709998     -0.303514004       22.9925575       1.66261268    
   1.35858905       3.79349999E-02 -0.303501010       19.3765202      -1.56102908    
   1.34464097      0.195331007     -0.303496003       19.3765202      -1.56102908    
   1.34573400      0.195616007     -0.606999993       19.3765202      -1.56102908    
   1.36126804       3.78950015E-02 -0.606999993       19.3765202      -1.56102908    
   1.35858905       3.79349999E-02 -0.303501010       27.7080708       1.65063894    
   1.36126804       3.78950015E-02 -0.606999993       27.7080708       1.65063894    
   1.35321999     -0.119608998     -0.606999993       27.7080708       1.65063894    
   1.35229194     -0.119709998     -0.303514004       27.7080708       1.65063894    
   1.35858905       3.79349999E-02 -0.303501010       25.0704384      -1.56997287    
   1.36124396       3.81390005E-02   0.00000000       25.0704384      -1.56997287    
   1.34575403      0.195406005       0.00000000       25.0704384      -1.56997287    
   1.34464097      0.195331007     -0.303496003       25.0704384      -1.56997287    
   1.34575403      0.195406005       0.00000000       74.8633118      -1.54189622    
   1.31339800      0.349945009       0.00000000       74.8633118      -1.54189622    
   1.31216300      0.349725991     -0.303487003       74.8633118      -1.54189622    
   1.34464097      0.195331007     -0.303496003       74.8633118      -1.54189622    
   1.31216300      0.349725991     -0.303487003       119.452347      -1.52843511    
   1.26341999      0.500032008     -0.303494006       119.452347      -1.52843511    
   1.26736605      0.501691997     -0.606999993       119.452347      -1.52843511    
   1.31333196      0.350163996     -0.606999993       119.452347      -1.52843511    
   1.31216300      0.349725991     -0.303487003       67.1025009      -1.53215277    
   1.31333196      0.350163996     -0.606999993       67.1025009      -1.53215277    
   1.34573400      0.195616007     -0.606999993       67.1025009      -1.53215277    
   1.34464097      0.195331007     -0.303496003       67.1025009      -1.53215277    
   1.31216300      0.349725991     -0.303487003       123.805222      -1.53630042    
   1.31339800      0.349945009       0.00000000       123.805222      -1.53630042    
   1.26751196      0.501209974       0.00000000       123.805222      -1.53630042    
   1.26341999      0.500032008     -0.303494006       123.805222      -1.53630042    
   1.26751196      0.501209974       0.00000000       171.759933      -1.53438091    
   1.19658697      0.643051028       0.00000000       171.759933      -1.53438091    
   1.19583094      0.642783999     -0.303505003       171.759933      -1.53438091    
   1.26341999      0.500032008     -0.303494006       171.759933      -1.53438091    
   1.19583094      0.642783999     -0.303505003       208.953857      -1.52551413    
   1.11495602      0.778467000     -0.303483993       208.953857      -1.52551413    
   1.11731696      0.779847026     -0.606999993       208.953857      -1.52551413    
   1.19653296      0.643149972     -0.606999993       208.953857      -1.52551413    
   1.19583094      0.642783999     -0.303505003       163.738190      -1.52637291    
   1.19653296      0.643149972     -0.606999993       163.738190      -1.52637291    
   1.26736605      0.501691997     -0.606999993       163.738190      -1.52637291    
   1.26341999      0.500032008     -0.303494006       163.738190      -1.52637291    
   1.19583094      0.642783999     -0.303505003       216.670212      -1.53310263    
   1.19658697      0.643051028       0.00000000       216.670212      -1.53310263    
   1.11705506      0.780165970       0.00000000       216.670212      -1.53310263    
   1.11495602      0.778467000     -0.303483993       216.670212      -1.53310263    
   1.11705506      0.780165970       0.00000000       257.000549      -1.53232777    
   1.01674199      0.902397990       0.00000000       257.000549      -1.53232777    
   1.01591504      0.901737988     -0.303478003       257.000549      -1.53232777    
   1.11495602      0.778467000     -0.303483993       257.000549      -1.53232777    
   1.01591504      0.901737988     -0.303478003       286.082306      -1.52458620    
  0.904204011       1.01322901     -0.303456992       286.082306      -1.52458620    
  0.905143023       1.01448905     -0.606999993       286.082306      -1.52458620    
   1.01659799      0.902572989     -0.606999993       286.082306      -1.52458620    
   1.01591504      0.901737988     -0.303478003       249.981598      -1.52505457    
   1.01659799      0.902572989     -0.606999993       249.981598      -1.52505457    
   1.11731696      0.779847026     -0.606999993       249.981598      -1.52505457    
   1.11495602      0.778467000     -0.303483993       249.981598      -1.52505457    
   1.01591504      0.901737988     -0.303478003       294.458893      -1.53183305    
   1.01674199      0.902397990       0.00000000       294.458893      -1.53183305    
  0.905318975       1.01434398       0.00000000       294.458893      -1.53183305    
  0.904204011       1.01322901     -0.303456992       294.458893      -1.53183305    
  0.905318975       1.01434398       0.00000000       329.757355      -1.53159297    
  0.782918990       1.11479497       0.00000000       329.757355      -1.53159297    
  0.780644000       1.11195600     -0.303485006       329.757355      -1.53159297    
  0.904204011       1.01322901     -0.303456992       329.757355      -1.53159297    
  0.780644000       1.11195600     -0.303485006       344.863098      -1.52394855    
  0.645825028       1.19414902     -0.303514004       344.863098      -1.52394855    
  0.646153986       1.19492805     -0.606999993       344.863098      -1.52394855    
  0.782611012       1.11504900     -0.606999993       344.863098      -1.52394855    
  0.780644000       1.11195600     -0.303485006       317.915802      -1.52417731    
  0.782611012       1.11504900     -0.606999993       317.915802      -1.52417731    
  0.905143023       1.01448905     -0.606999993       317.915802      -1.52417731    
  0.904204011       1.01322901     -0.303456992       317.915802      -1.52417731    
  0.780644000       1.11195600     -0.303485006       358.358215      -1.53134930    
  0.782918990       1.11479497       0.00000000       358.358215      -1.53134930    
  0.646345019       1.19482601       0.00000000       358.358215      -1.53134930    
  0.645825028       1.19414902     -0.303514004       358.358215      -1.53134930    
  0.646345019       1.19482601       0.00000000       379.962799      -1.53101134    
  0.504974008       1.26637006       0.00000000       379.962799      -1.53101134    
  0.503772974       1.26314998     -0.303521991       379.962799      -1.53101134    
  0.645825028       1.19414902     -0.303514004       379.962799      -1.53101134    
  0.503772974       1.26314998     -0.303521991       386.269836      -1.52379227    
  0.353130996       1.31116498     -0.303510994       386.269836      -1.52379227    
  0.353300005       1.31237996     -0.606999993       386.269836      -1.52379227    
  0.505183995       1.26630700     -0.606999993       386.269836      -1.52379227    
  0.503772974       1.26314998     -0.303521991       368.184387      -1.52381158    
  0.505183995       1.26630700     -0.606999993       368.184387      -1.52381158    
  0.646153986       1.19492805     -0.606999993       368.184387      -1.52381158    
  0.645825028       1.19414902     -0.303514004       368.184387      -1.52381158    
  0.503772974       1.26314998     -0.303521991       397.667786      -1.53089881    
  0.504974008       1.26637006       0.00000000       397.667786      -1.53089881    
  0.353493989       1.31232095       0.00000000       397.667786      -1.53089881    
  0.353130996       1.31116498     -0.303510994       397.667786      -1.53089881    
  0.353493989       1.31232095       0.00000000       410.513794      -1.53090310    
  0.199064001       1.34539402       0.00000000       410.513794      -1.53090310    
  0.198755994       1.34360003     -0.303496003       410.513794      -1.53090310    
  0.353130996       1.31116498     -0.303510994       410.513794      -1.53090310    
  0.198755994       1.34360003     -0.303496003       403.034790      -1.52363050    
   4.12769988E-02   1.35817802     -0.303508013       403.034790      -1.52363050    
   4.12410013E-02   1.36093795     -0.606999993       403.034790      -1.52363050    
  0.199025005       1.34539795     -0.606999993       403.034790      -1.52363050    
  0.198755994       1.34360003     -0.303496003       398.568695      -1.52381921    
  0.199025005       1.34539795     -0.606999993       398.568695      -1.52381921    
  0.353300005       1.31237996     -0.606999993       398.568695      -1.52381921    
  0.353130996       1.31116498     -0.303510994       398.568695      -1.52381921    
  0.198755994       1.34360003     -0.303496003       417.682159      -1.53091693    
  0.199064001       1.34539402       0.00000000       417.682159      -1.53091693    
   4.17769998E-02   1.36088502       0.00000000       417.682159      -1.53091693    
   4.12769988E-02   1.35817802     -0.303508013       417.682159      -1.53091693    
   4.17769998E-02   1.36088502       0.00000000       421.167542      -1.53113699    
 -0.116410002       1.35353506       0.00000000       421.167542      -1.53113699    
 -0.116471998       1.35271096     -0.303496987       421.167542      -1.53113699    
   4.12769988E-02   1.35817802     -0.303508013       421.167542      -1.53113699    
 -0.116471998       1.35271096     -0.303496987       407.841125      -1.52442098    
 -0.273027003       1.33229196     -0.303496003       407.841125      -1.52442098    
 -0.273876995       1.33647299     -0.606999993       407.841125      -1.52442098    
 -0.116722003       1.35350394     -0.606999993       407.841125      -1.52442098    
 -0.116471998       1.35271096     -0.303496987       404.345459      -1.52374816    
 -0.116722003       1.35350394     -0.606999993       404.345459      -1.52374816    
   4.12410013E-02   1.36093795     -0.606999993       404.345459      -1.52374816    
   4.12769988E-02   1.35817802     -0.303508013       404.345459      -1.52374816    
 -0.116471998       1.35271096     -0.303496987       416.989288      -1.53124595    
 -0.116410002       1.35353506       0.00000000       416.989288      -1.53124595    
 -0.274069011       1.33641505       0.00000000       416.989288      -1.53124595    
 -0.273027003       1.33229196     -0.303496003       416.989288      -1.53124595    
 -0.274069011       1.33641505       0.00000000       407.399139      -1.53143990    
 -0.425588995       1.29045200       0.00000000       407.399139      -1.53143990    
 -0.425258011       1.28953803     -0.303507000       407.399139      -1.53143990    
 -0.273027003       1.33229196     -0.303496003       407.399139      -1.53143990    
 -0.425258011       1.28953803     -0.303507000       384.163269      -1.52509332    
 -0.572302997       1.23206902     -0.303485990       384.163269      -1.52509332    
 -0.573064029       1.23399496     -0.606999993       384.163269      -1.52509332    
 -0.425651014       1.29043305     -0.606999993       384.163269      -1.52509332    
 -0.425258011       1.28953803     -0.303507000       398.732422      -1.52466166    
 -0.425651014       1.29043305     -0.606999993       398.732422      -1.52466166    
 -0.273876995       1.33647299     -0.606999993       398.732422      -1.52466166    
 -0.273027003       1.33229196     -0.303496003       398.732422      -1.52466166    
 -0.425258011       1.28953803     -0.303507000       391.375610      -1.53177893    
 -0.425588995       1.29045200       0.00000000       391.375610      -1.53177893    
 -0.573195994       1.23392498       0.00000000       391.375610      -1.53177893    
 -0.572302997       1.23206902     -0.303485990       391.375610      -1.53177893    
 -0.573195994       1.23392498       0.00000000       369.712219      -1.53212798    
 -0.712655008       1.15938199       0.00000000       369.712219      -1.53212798    
 -0.711889029       1.15749002     -0.303496003       369.712219      -1.53212798    
 -0.572302997       1.23206902     -0.303485990       369.712219      -1.53212798    
 -0.711889029       1.15749002     -0.303496003       340.000885      -1.52612472    
 -0.840825975       1.06629205     -0.303485990       340.000885      -1.52612472    
 -0.841368973       1.06682706     -0.606999993       340.000885      -1.52612472    
 -0.712980986       1.15920806     -0.606999993       340.000885      -1.52612472    
 -0.711889029       1.15749002     -0.303496003       364.284180      -1.52549434    
 -0.712980986       1.15920806     -0.606999993       364.284180      -1.52549434    
 -0.573064029       1.23399496     -0.606999993       364.284180      -1.52549434    
 -0.572302997       1.23206902     -0.303485990       364.284180      -1.52549434    
 -0.711889029       1.15749002     -0.303496003       343.568237      -1.53265882    
 -0.712655008       1.15938199       0.00000000       343.568237      -1.53265882    
 -0.841165006       1.06699395       0.00000000       343.568237      -1.53265882    
 -0.840825975       1.06629205     -0.303485990       343.568237      -1.53265882    
 -0.841165006       1.06699395       0.00000000       312.820557      -1.53330851    
 -0.963320017      0.966744006       0.00000000       312.820557      -1.53330851    
 -0.960084975      0.962615013     -0.303470999       312.820557      -1.53330851    
 -0.840825975       1.06629205     -0.303485990       312.820557      -1.53330851    
 -0.960084975      0.962615013     -0.303470999       276.339203      -1.52767241    
  -1.06383705      0.843237996     -0.303481996       276.339203      -1.52767241    
  -1.06481802      0.843816996     -0.606999993       276.339203      -1.52767241    
 -0.963873982      0.966289997     -0.606999993       276.339203      -1.52767241    
 -0.960084975      0.962615013     -0.303470999       309.850433      -1.52678812    
 -0.963873982      0.966289997     -0.606999993       309.850433      -1.52678812    
 -0.841368973       1.06682706     -0.606999993       309.850433      -1.52678812    
 -0.840825975       1.06629205     -0.303485990       309.850433      -1.52678812    
 -0.960084975      0.962615013     -0.303470999       279.292297      -1.53419507    
 -0.963320017      0.966744006       0.00000000       279.292297      -1.53419507    
  -1.06464398      0.844029009       0.00000000       279.292297      -1.53419507    
  -1.06383705      0.843237996     -0.303481996       279.292297      -1.53419507    
  -1.06464398      0.844029009       0.00000000       240.268021      -1.53550172    
  -1.15769398      0.715813994       0.00000000       240.268021      -1.53550172    
  -1.15564799      0.714680016     -0.303483993       240.268021      -1.53550172    
  -1.06383705      0.843237996     -0.303481996       240.268021      -1.53550172    
  -1.15564799      0.714680016     -0.303483993       198.773041      -1.53118432    
  -1.23108304      0.575536013     -0.303514004       198.773041      -1.53118432    
  -1.23232996      0.576179981     -0.606999993       198.773041      -1.53118432    
  -1.15756094      0.716063023     -0.606999993       198.773041      -1.53118432    
  -1.15564799      0.714680016     -0.303483993       239.112793      -1.52917612    
  -1.15756094      0.716063023     -0.606999993       239.112793      -1.52917612    
  -1.06481802      0.843816996     -0.606999993       239.112793      -1.52917612    
  -1.06383705      0.843237996     -0.303481996       239.112793      -1.52917612    
  -1.15564799      0.714680016     -0.303483993       198.542252      -1.53729689    
  -1.15769398      0.715813994       0.00000000       198.542252      -1.53729689    
  -1.23224795      0.576331973       0.00000000       198.542252      -1.53729689    
  -1.23108304      0.575536013     -0.303514004       198.542252      -1.53729689    
  -1.23224795      0.576331973       0.00000000       153.913895      -1.54032147    
  -1.28948605      0.428772002       0.00000000       153.913895      -1.54032147    
  -1.28842103      0.428404987     -0.303512990       153.913895      -1.54032147    
  -1.23108304      0.575536013     -0.303514004       153.913895      -1.54032147    
  -1.28842103      0.428404987     -0.303512990       109.029625      -1.54042900    
  -1.33082402      0.275959998     -0.303492010       109.029625      -1.54042900    
  -1.33550000      0.277083993     -0.606999993       109.029625      -1.54042900    