 VARIABLES="X" "Y" "Z" "abs(p) (Pa)" "angle(p) (rad)"
ZONE N=   2720,E =    2069, F=FEPOINT, ET=QUADRILATERAL
 -0.767116010      -1.12776399       0.00000000       58.5432663       1.55567729    
 -0.769354999      -1.12002099     -0.303523988       58.5432663       1.55567729    
 -0.896136999      -1.02028203     -0.303463012       58.5432663       1.55567729    
 -0.894908011      -1.02288902       0.00000000       58.5432663       1.55567729    
 -0.767116010      -1.12776399       0.00000000       49.2938309       1.55283415    
 -0.630888999      -1.20308697       0.00000000       49.2938309       1.55283415    
 -0.635528028      -1.19958198     -0.303541005       49.2938309       1.55283415    
 -0.769354999      -1.12002099     -0.303523988       49.2938309       1.55283415    
 -0.635528028      -1.19958198     -0.303541005       35.6399307       1.54595673    
 -0.495362997      -1.26606500     -0.303519011       35.6399307       1.54595673    
 -0.499298006      -1.26809204     -0.606999993       35.6399307       1.54595673    
 -0.640147984      -1.19813800     -0.606998026       35.6399307       1.54595673    
 -0.635528028      -1.19958198     -0.303541005       45.1381493       1.55119133    
 -0.640147984      -1.19813800     -0.606998026       45.1381493       1.55119133    
 -0.777105987      -1.11956596     -0.606999993       45.1381493       1.55119133    
 -0.769354999      -1.12002099     -0.303523988       45.1381493       1.55119133    
 -0.635528028      -1.19958198     -0.303541005       36.9058647       1.54679585    
 -0.630888999      -1.20308697       0.00000000       36.9058647       1.54679585    
 -0.494486004      -1.26955199       0.00000000       36.9058647       1.54679585    
 -0.495362997      -1.26606500     -0.303519011       36.9058647       1.54679585    
 -0.494486004      -1.26955199       0.00000000       26.9008732       1.53785706    
 -0.346311986      -1.31449997       0.00000000       26.9008732       1.53785706    
 -0.346753001      -1.31307304     -0.303510010       26.9008732       1.53785706    
 -0.495362997      -1.26606500     -0.303519011       26.9008732       1.53785706    
 -0.346753001      -1.31307304     -0.303510010       15.6067448       1.51400030    
 -0.193608001      -1.34425998     -0.303494990       15.6067448       1.51400030    
 -0.195028007      -1.34579206     -0.606999993       15.6067448       1.51400030    
 -0.348751009      -1.31376004     -0.606999993       15.6067448       1.51400030    
 -0.346753001      -1.31307304     -0.303510010       25.9321270       1.53664148    
 -0.348751009      -1.31376004     -0.606999993       25.9321270       1.53664148    
 -0.499298006      -1.26809204     -0.606999993       25.9321270       1.53664148    
 -0.495362997      -1.26606500     -0.303519011       25.9321270       1.53664148    
 -0.346753001      -1.31307304     -0.303510010       16.2227459       1.51613545    
 -0.346311986      -1.31449997       0.00000000       16.2227459       1.51613545    
 -0.193381995      -1.34595394       0.00000000       16.2227459       1.51613545    
 -0.193608001      -1.34425998     -0.303494990       16.2227459       1.51613545    
 -0.193381995      -1.34595394       0.00000000       7.75596189       1.45623159    
  -3.75179984E-02  -1.36130500       0.00000000       7.75596189       1.45623159    
  -3.73950005E-02  -1.35827899     -0.303512007       7.75596189       1.45623159    
 -0.193608001      -1.34425998     -0.303494990       7.75596189       1.45623159    
  -3.73950005E-02  -1.35827899     -0.303512007       6.04262018      -1.42352521    
  0.119547002      -1.35239303     -0.303498000       6.04262018      -1.42352521    
  0.119135000      -1.35326600     -0.606999993       6.04262018      -1.42352521    
  -3.82840000E-02  -1.36122894     -0.606998980       6.04262018      -1.42352521    
  -3.73950005E-02  -1.35827899     -0.303512007       4.73142052       1.38236141    
  -3.82840000E-02  -1.36122894     -0.606998980       4.73142052       1.38236141    
 -0.195028007      -1.34579206     -0.606999993       4.73142052       1.38236141    
 -0.193608001      -1.34425998     -0.303494990       4.73142052       1.38236141    
  -3.73950005E-02  -1.35827899     -0.303512007       3.41556096      -1.30811584    
  -3.75179984E-02  -1.36130500       0.00000000       3.41556096      -1.30811584    
  0.119788997      -1.35320199       0.00000000       3.41556096      -1.30811584    
  0.119547002      -1.35239303     -0.303498000       3.41556096      -1.30811584    
  0.119788997      -1.35320199       0.00000000       14.9723711      -1.51150143    
  0.276576012      -1.33565402       0.00000000       14.9723711      -1.51150143    
  0.275435001      -1.33191597     -0.303496003       14.9723711      -1.51150143    
  0.119547002      -1.35239303     -0.303498000       14.9723711      -1.51150143    
  0.275435001      -1.33191597     -0.303496003       25.3160152      -1.53573668    
  0.427076995      -1.28898001     -0.303507000       25.3160152      -1.53573668    
  0.427242011      -1.28995001     -0.606999993       25.3160152      -1.53573668    
  0.275831014      -1.33588004     -0.606999993       25.3160152      -1.53573668    
  0.275435001      -1.33191597     -0.303496003       15.0792341      -1.51193738    
  0.275831014      -1.33588004     -0.606999993       15.0792341      -1.51193738    
  0.119135000      -1.35326600     -0.606999993       15.0792341      -1.51193738    
  0.119547002      -1.35239303     -0.303498000       15.0792341      -1.51193738    
  0.275435001      -1.33191597     -0.303496003       25.6349449      -1.53616655    
  0.276576012      -1.33565402       0.00000000       25.6349449      -1.53616655    
  0.427509993      -1.28986895       0.00000000       25.6349449      -1.53616655    
  0.427076995      -1.28898001     -0.303507000       25.6349449      -1.53616655    
  0.427509993      -1.28986895       0.00000000       35.9524879      -1.54609787    
  0.574636996      -1.23315501       0.00000000       35.9524879      -1.54609787    
  0.573706985      -1.23136795     -0.303485990       35.9524879      -1.54609787    
  0.427076995      -1.28898001     -0.303507000       35.9524879      -1.54609787    
  0.573706985      -1.23136795     -0.303485990       45.3706894      -1.55122125    
  0.712854981      -1.15688002     -0.303496987       45.3706894      -1.55122125    
  0.713809013      -1.15876603     -0.606999993       45.3706894      -1.55122125    
  0.574283004      -1.23334301     -0.606999993       45.3706894      -1.55122125    
  0.573706985      -1.23136795     -0.303485990       35.5861053      -1.54584706    
  0.574283004      -1.23334301     -0.606999993       35.5861053      -1.54584706    
  0.427242011      -1.28995001     -0.606999993       35.5861053      -1.54584706    
  0.427076995      -1.28898001     -0.303507000       35.5861053      -1.54584706    
  0.573706985      -1.23136795     -0.303485990       46.1581001      -1.55155325    
  0.574636996      -1.23315501       0.00000000       46.1581001      -1.55155325    
  0.713741004      -1.15880203       0.00000000       46.1581001      -1.55155325    
  0.712854981      -1.15688002     -0.303496987       46.1581001      -1.55155325    
  0.713741004      -1.15880203       0.00000000       55.6148033      -1.55482066    
  0.841937006      -1.06636095       0.00000000       55.6148033      -1.55482066    
  0.841498017      -1.06573403     -0.303485990       55.6148033      -1.55482066    
  0.712854981      -1.15688002     -0.303496987       55.6148033      -1.55482066    
  0.841498017      -1.06573403     -0.303485990       62.5129280      -1.55657947    
  0.960639000     -0.962104976     -0.303470999       62.5129280      -1.55657947    
  0.964356005     -0.965893984     -0.606999993       62.5129280      -1.55657947    
  0.841796994      -1.06647599     -0.606999993       62.5129280      -1.55657947    
  0.841498017      -1.06573403     -0.303485990       54.0504913      -1.55435884    
  0.841796994      -1.06647599     -0.606999993       54.0504913      -1.55435884    
  0.713809013      -1.15876603     -0.606999993       54.0504913      -1.55435884    
  0.712854981      -1.15688002     -0.303496987       54.0504913      -1.55435884    
  0.841498017      -1.06573403     -0.303485990       65.2634888      -1.55717862    
  0.841937006      -1.06636095       0.00000000       65.2634888      -1.55717862    
  0.963932991     -0.966242015       0.00000000       65.2634888      -1.55717862    
  0.960639000     -0.962104976     -0.303470999       65.2634888      -1.55717862    
  0.963932991     -0.966242015       0.00000000       72.9514999      -1.55861032    
   1.06506598     -0.843514979       0.00000000       72.9514999      -1.55861032    
   1.06428695     -0.842682004     -0.303481996       72.9514999      -1.55861032    
  0.960639000     -0.962104976     -0.303470999       72.9514999      -1.55861032    
   1.06428695     -0.842682004     -0.303481996       78.3522949      -1.55944669    
   1.15591598     -0.714210987     -0.303485006       78.3522949      -1.55944669    
   1.15788805     -0.715448976     -0.606999993       78.3522949      -1.55944669    
   1.06537795     -0.843134999     -0.606999993       78.3522949      -1.55944669    
   1.06428695     -0.842682004     -0.303481996       69.8965607      -1.55807769    
   1.06537795     -0.843134999     -0.606999993       69.8965607      -1.55807769    
  0.964356005     -0.965893984     -0.606999993       69.8965607      -1.55807769    
  0.960639000     -0.962104976     -0.303470999       69.8965607      -1.55807769    
   1.06428695     -0.842682004     -0.303481996       79.9513550      -1.55967498    
   1.06506598     -0.843514979       0.00000000       79.9513550      -1.55967498    
   1.15792501     -0.715381980       0.00000000       79.9513550      -1.55967498    
   1.15591598     -0.714210987     -0.303485006       79.9513550      -1.55967498    
   1.15792501     -0.715381980       0.00000000       85.6899643      -1.56041765    
   1.23237598     -0.576093972       0.00000000       85.6899643      -1.56041765    
   1.23120904     -0.575251997     -0.303514004       85.6899643      -1.56041765    
   1.15591598     -0.714210987     -0.303485006       85.6899643      -1.56041765    
   1.23120904     -0.575251997     -0.303514004       88.3462372      -1.56072676    
   1.28844094     -0.428344995     -0.303512990       88.3462372      -1.56072676    
   1.28952503     -0.428642988     -0.606999993       88.3462372      -1.56072676    
   1.23252702     -0.575810015     -0.606999993       88.3462372      -1.56072676    
   1.23120904     -0.575251997     -0.303514004       83.8728333      -1.56019187    
   1.23252702     -0.575810015     -0.606999993       83.8728333      -1.56019187    
   1.15788805     -0.715448976     -0.606999993       83.8728333      -1.56019187    
   1.15591598     -0.714210987     -0.303485006       83.8728333      -1.56019187    
   1.23120904     -0.575251997     -0.303514004       91.9223557      -1.56111979    
   1.23237598     -0.576093972       0.00000000       91.9223557      -1.56111979    
   1.28947699     -0.428801000       0.00000000       91.9223557      -1.56111979    
   1.28844094     -0.428344995     -0.303512990       91.9223557      -1.56111979    
   1.28947699     -0.428801000       0.00000000       94.4959793      -1.56138170    
   1.33532202     -0.277671993       0.00000000       94.4959793      -1.56138170    
   1.33076501     -0.276203990     -0.303492010       94.4959793      -1.56138170    
   1.28844094     -0.428344995     -0.303512990       94.4959793      -1.56138170    
   1.33076501     -0.276203990     -0.303492010       96.6906662      -1.56159365    
   1.35229194     -0.119709998     -0.303514004       96.6906662      -1.56159365    
   1.35321999     -0.119608998     -0.606999993       96.6906662      -1.56159365    
   1.33549094     -0.277112991     -0.606999993       96.6906662      -1.56159365    
   1.33076501     -0.276203990     -0.303492010       91.5610275      -1.56107903    
   1.33549094     -0.277112991     -0.606999993       91.5610275      -1.56107903    
   1.28952503     -0.428642988     -0.606999993       91.5610275      -1.56107903    
   1.28844094     -0.428344995     -0.303512990       91.5610275      -1.56107903    
   1.33076501     -0.276203990     -0.303492010       94.8613815      -1.56141794    
   1.33532202     -0.277671993       0.00000000       94.8613815      -1.56141794    
   1.35319102     -0.119900003       0.00000000       94.8613815      -1.56141794    
   1.35229194     -0.119709998     -0.303514004       94.8613815      -1.56141794    
   1.35319102     -0.119900003       0.00000000       95.7748108      -1.56150711    
   1.36124396       3.81390005E-02   0.00000000       95.7748108      -1.56150711    
   1.35858905       3.79349999E-02 -0.303501010       95.7748108      -1.56150711    
   1.35229194     -0.119709998     -0.303514004       95.7748108      -1.56150711    
   1.35858905       3.79349999E-02 -0.303501010       95.1973190      -1.56144929    
   1.34464097      0.195331007     -0.303496003       95.1973190      -1.56144929    
   1.34573400      0.195616007     -0.606999993       95.1973190      -1.56144929    
   1.36126804       3.78950015E-02 -0.606999993       95.1973190      -1.56144929    
   1.35858905       3.79349999E-02 -0.303501010       95.7584152      -1.56150424    
   1.36126804       3.78950015E-02 -0.606999993       95.7584152      -1.56150424    
   1.35321999     -0.119608998     -0.606999993       95.7584152      -1.56150424    
   1.35229194     -0.119709998     -0.303514004       95.7584152      -1.56150424    
   1.35858905       3.79349999E-02 -0.303501010       98.4788589      -1.56176198    
   1.36124396       3.81390005E-02   0.00000000       98.4788589      -1.56176198    
   1.34575403      0.195406005       0.00000000       98.4788589      -1.56176198    
   1.34464097      0.195331007     -0.303496003       98.4788589      -1.56176198    
   1.34575403      0.195406005       0.00000000       96.6867447      -1.56159508    
   1.31339800      0.349945009       0.00000000       96.6867447      -1.56159508    
   1.31216300      0.349725991     -0.303487003       96.6867447      -1.56159508    
   1.34464097      0.195331007     -0.303496003       96.6867447      -1.56159508    
   1.31216300      0.349725991     -0.303487003       89.7401352      -1.56088269    
   1.26341999      0.500032008     -0.303494006       89.7401352      -1.56088269    
   1.26736605      0.501691997     -0.606999993       89.7401352      -1.56088269    
   1.31333196      0.350163996     -0.606999993       89.7401352      -1.56088269    
   1.31216300      0.349725991     -0.303487003       93.5417938      -1.56128466    
   1.31333196      0.350163996     -0.606999993       93.5417938      -1.56128466    
   1.34573400      0.195616007     -0.606999993       93.5417938      -1.56128466    
   1.34464097      0.195331007     -0.303496003       93.5417938      -1.56128466    
   1.31216300      0.349725991     -0.303487003       93.5465164      -1.56128681    
   1.31339800      0.349945009       0.00000000       93.5465164      -1.56128681    
   1.26751196      0.501209974       0.00000000       93.5465164      -1.56128681    
   1.26341999      0.500032008     -0.303494006       93.5465164      -1.56128681    
   1.26751196      0.501209974       0.00000000       86.2236481      -1.56048119    
   1.19658697      0.643051028       0.00000000       86.2236481      -1.56048119    
   1.19583094      0.642783999     -0.303505003       86.2236481      -1.56048119    
   1.26341999      0.500032008     -0.303494006       86.2236481      -1.56048119    
   1.19583094      0.642783999     -0.303505003       82.7822189      -1.56005347    
   1.11495602      0.778467000     -0.303483993       82.7822189      -1.56005347    
   1.11731696      0.779847026     -0.606999993       82.7822189      -1.56005347    
   1.19653296      0.643149972     -0.606999993       82.7822189      -1.56005347    
   1.19583094      0.642783999     -0.303505003       85.6687088      -1.56041336    
   1.19653296      0.643149972     -0.606999993       85.6687088      -1.56041336    
   1.26736605      0.501691997     -0.606999993       85.6687088      -1.56041336    
   1.26341999      0.500032008     -0.303494006       85.6687088      -1.56041336    
   1.19583094      0.642783999     -0.303505003       80.7334747      -1.55978191    
   1.19658697      0.643051028       0.00000000       80.7334747      -1.55978191    
   1.11705506      0.780165970       0.00000000       80.7334747      -1.55978191    
   1.11495602      0.778467000     -0.303483993       80.7334747      -1.55978191    
   1.11705506      0.780165970       0.00000000       74.3268890      -1.55883515    
   1.01674199      0.902397990       0.00000000       74.3268890      -1.55883515    
   1.01591504      0.901737988     -0.303478003       74.3268890      -1.55883515    
   1.11495602      0.778467000     -0.303483993       74.3268890      -1.55883515    
   1.01591504      0.901737988     -0.303478003       66.7428436      -1.55747938    
  0.904204011       1.01322901     -0.303456992       66.7428436      -1.55747938    
  0.905143023       1.01448905     -0.606999993       66.7428436      -1.55747938    
   1.01659799      0.902572989     -0.606999993       66.7428436      -1.55747938    
   1.01591504      0.901737988     -0.303478003       73.9037323      -1.55876625    
   1.01659799      0.902572989     -0.606999993       73.9037323      -1.55876625    
   1.11731696      0.779847026     -0.606999993       73.9037323      -1.55876625    
   1.11495602      0.778467000     -0.303483993       73.9037323      -1.55876625    
   1.01591504      0.901737988     -0.303478003       66.8087463      -1.55749238    
   1.01674199      0.902397990       0.00000000       66.8087463      -1.55749238    
  0.905318975       1.01434398       0.00000000       66.8087463      -1.55749238    
  0.904204011       1.01322901     -0.303456992       66.8087463      -1.55749238    
  0.905318975       1.01434398       0.00000000       60.8336334      -1.55618954    
  0.782918990       1.11479497       0.00000000       60.8336334      -1.55618954    
  0.780644000       1.11195600     -0.303485006       60.8336334      -1.55618954    
  0.904204011       1.01322901     -0.303456992       60.8336334      -1.55618954    
  0.780644000       1.11195600     -0.303485006       49.9269943      -1.55300546    
  0.645825028       1.19414902     -0.303514004       49.9269943      -1.55300546    
  0.646153986       1.19492805     -0.606999993       49.9269943      -1.55300546    
  0.782611012       1.11504900     -0.606999993       49.9269943      -1.55300546    
  0.780644000       1.11195600     -0.303485006       58.6499405      -1.55564618    
  0.782611012       1.11504900     -0.606999993       58.6499405      -1.55564618    
  0.905143023       1.01448905     -0.606999993       58.6499405      -1.55564618    
  0.904204011       1.01322901     -0.303456992       58.6499405      -1.55564618    
  0.780644000       1.11195600     -0.303485006       52.1192780      -1.55375230    
  0.782918990       1.11479497       0.00000000       52.1192780      -1.55375230    
  0.646345019       1.19482601       0.00000000       52.1192780      -1.55375230    
  0.645825028       1.19414902     -0.303514004       52.1192780      -1.55375230    
  0.646345019       1.19482601       0.00000000       39.6411705      -1.54839492    
  0.504974008       1.26637006       0.00000000       39.6411705      -1.54839492    
  0.503772974       1.26314998     -0.303521991       39.6411705      -1.54839492    
  0.645825028       1.19414902     -0.303514004       39.6411705      -1.54839492    
  0.503772974       1.26314998     -0.303521991       30.7541008      -1.54193449    
  0.353130996       1.31116498     -0.303510994       30.7541008      -1.54193449    
  0.353300005       1.31237996     -0.606999993       30.7541008      -1.54193449    
  0.505183995       1.26630700     -0.606999993       30.7541008      -1.54193449    
  0.503772974       1.26314998     -0.303521991       40.4568939      -1.54884911    
  0.505183995       1.26630700     -0.606999993       40.4568939      -1.54884911    
  0.646153986       1.19492805     -0.606999993       40.4568939      -1.54884911    
  0.645825028       1.19414902     -0.303514004       40.4568939      -1.54884911    
  0.503772974       1.26314998     -0.303521991       29.3574810      -1.54055548    
  0.504974008       1.26637006       0.00000000       29.3574810      -1.54055548    
  0.353493989       1.31232095       0.00000000       29.3574810      -1.54055548    
  0.353130996       1.31116498     -0.303510994       29.3574810      -1.54055548    
  0.353493989       1.31232095       0.00000000       18.3701191      -1.52247310    
  0.199064001       1.34539402       0.00000000       18.3701191      -1.52247310    
  0.198755994       1.34360003     -0.303496003       18.3701191      -1.52247310    
  0.353130996       1.31116498     -0.303510994       18.3701191      -1.52247310    
  0.198755994       1.34360003     -0.303496003       7.04347134      -1.44456327    
   4.12769988E-02   1.35817802     -0.303508013       7.04347134      -1.44456327    
   4.12410013E-02   1.36093795     -0.606999993       7.04347134      -1.44456327    
  0.199025005       1.34539795     -0.606999993       7.04347134      -1.44456327    
  0.198755994       1.34360003     -0.303496003       20.2355614      -1.52694237    
  0.199025005       1.34539795     -0.606999993       20.2355614      -1.52694237    
  0.353300005       1.31237996     -0.606999993       20.2355614      -1.52694237    
  0.353130996       1.31116498     -0.303510994       20.2355614      -1.52694237    
  0.198755994       1.34360003     -0.303496003       7.20123863      -1.44731188    
  0.199064001       1.34539402       0.00000000       7.20123863      -1.44731188    
   4.17769998E-02   1.36088502       0.00000000       7.20123863      -1.44731188    
   4.12769988E-02   1.35817802     -0.303508013       7.20123863      -1.44731188    
   4.17769998E-02   1.36088502       0.00000000       3.89977264       1.34142220    
 -0.116410002       1.35353506       0.00000000       3.89977264       1.34142220    
 -0.116471998       1.35271096     -0.303496987       3.89977264       1.34142220    
   4.12769988E-02   1.35817802     -0.303508013       3.89977264       1.34142220    
 -0.116471998       1.35271096     -0.303496987       16.0791702       1.51566792    
 -0.273027003       1.33229196     -0.303496003       16.0791702       1.51566792    
 -0.273876995       1.33647299     -0.606999993       16.0791702       1.51566792    
 -0.116722003       1.35350394     -0.606999993       16.0791702       1.51566792    
 -0.116471998       1.35271096     -0.303496987       3.89972067       1.34149969    
 -0.116722003       1.35350394     -0.606999993       3.89972067       1.34149969    
   4.12410013E-02   1.36093795     -0.606999993       3.89972067       1.34149969    
   4.12769988E-02   1.35817802     -0.303508013       3.89972067       1.34149969    
 -0.116471998       1.35271096     -0.303496987       15.2052622       1.51247001    
 -0.116410002       1.35353506       0.00000000       15.2052622       1.51247001    
 -0.274069011       1.33641505       0.00000000       15.2052622       1.51247001    
 -0.273027003       1.33229196     -0.303496003       15.2052622       1.51247001    
 -0.274069011       1.33641505       0.00000000       25.9835892       1.53668904    
 -0.425588995       1.29045200       0.00000000       25.9835892       1.53668904    
 -0.425258011       1.28953803     -0.303507000       25.9835892       1.53668904    
 -0.273027003       1.33229196     -0.303496003       25.9835892       1.53668904    
 -0.425258011       1.28953803     -0.303507000       36.9236526       1.54681897    
 -0.572302997       1.23206902     -0.303485990       36.9236526       1.54681897    
 -0.573064029       1.23399496     -0.606999993       36.9236526       1.54681897    
 -0.425651014       1.29043305     -0.606999993       36.9236526       1.54681897    
 -0.425258011       1.28953803     -0.303507000       26.4884682       1.53735614    
 -0.425651014       1.29043305     -0.606999993       26.4884682       1.53735614    
 -0.273876995       1.33647299     -0.606999993       26.4884682       1.53735614    
 -0.273027003       1.33229196     -0.303496003       26.4884682       1.53735614    
 -0.425258011       1.28953803     -0.303507000       36.9208832       1.54680490    
 -0.425588995       1.29045200       0.00000000       36.9208832       1.54680490    
 -0.573195994       1.23392498       0.00000000       36.9208832       1.54680490    
 -0.572302997       1.23206902     -0.303485990       36.9208832       1.54680490    
 -0.573195994       1.23392498       0.00000000       47.2021332       1.55203748    
 -0.712655008       1.15938199       0.00000000       47.2021332       1.55203748    
 -0.711889029       1.15749002     -0.303496003       47.2021332       1.55203748    
 -0.572302997       1.23206902     -0.303485990       47.2021332       1.55203748    
 -0.711889029       1.15749002     -0.303496003       55.4083061       1.55483043    
 -0.840825975       1.06629205     -0.303485990       55.4083061       1.55483043    
 -0.841368973       1.06682706     -0.606999993       55.4083061       1.55483043    
 -0.712980986       1.15920806     -0.606999993       55.4083061       1.55483043    
 -0.711889029       1.15749002     -0.303496003       46.2750664       1.55167198    
 -0.712980986       1.15920806     -0.606999993       46.2750664       1.55167198    
 -0.573064029       1.23399496     -0.606999993       46.2750664       1.55167198    
 -0.572302997       1.23206902     -0.303485990       46.2750664       1.55167198    
 -0.711889029       1.15749002     -0.303496003       56.6767120       1.55517960    
 -0.712655008       1.15938199       0.00000000       56.6767120       1.55517960    
 -0.841165006       1.06699395       0.00000000       56.6767120       1.55517960    
 -0.840825975       1.06629205     -0.303485990       56.6767120       1.55517960    
 -0.841165006       1.06699395       0.00000000       65.5352936       1.55729437    
 -0.963320017      0.966744006       0.00000000       65.5352936       1.55729437    
 -0.960084975      0.962615013     -0.303470999       65.5352936       1.55729437    
 -0.840825975       1.06629205     -0.303485990       65.5352936       1.55729437    
 -0.960084975      0.962615013     -0.303470999       71.5303574       1.55843663    
  -1.06383705      0.843237996     -0.303481996       71.5303574       1.55843663    
  -1.06481802      0.843816996     -0.606999993       71.5303574       1.55843663    
 -0.963873982      0.966289997     -0.606999993       71.5303574       1.55843663    
 -0.960084975      0.962615013     -0.303470999       64.0369720       1.55698669    
 -0.963873982      0.966289997     -0.606999993       64.0369720       1.55698669    
 -0.841368973       1.06682706     -0.606999993       64.0369720       1.55698669    
 -0.840825975       1.06629205     -0.303485990       64.0369720       1.55698669    
 -0.960084975      0.962615013     -0.303470999       73.6148529       1.55877948    
 -0.963320017      0.966744006       0.00000000       73.6148529       1.55877948    
  -1.06464398      0.844029009       0.00000000       73.6148529       1.55877948    
  -1.06383705      0.843237996     -0.303481996       73.6148529       1.55877948    
  -1.06464398      0.844029009       0.00000000       80.6096878       1.55982471    
  -1.15769398      0.715813994       0.00000000       80.6096878       1.55982471    
  -1.15564799      0.714680016     -0.303483993       80.6096878       1.55982471    
  -1.06383705      0.843237996     -0.303481996       80.6096878       1.55982471    
  -1.15564799      0.714680016     -0.303483993       84.1040573       1.56028974    
  -1.23108304      0.575536013     -0.303514004       84.1040573       1.56028974    
  -1.23232996      0.576179981     -0.606999993       84.1040573       1.56028974    
  -1.15756094      0.716063023     -0.606999993       84.1040573       1.56028974    
  -1.15564799      0.714680016     -0.303483993       78.2239151       1.55949771    
  -1.15756094      0.716063023     -0.606999993       78.2239151       1.55949771    
  -1.06481802      0.843816996     -0.606999993       78.2239151       1.55949771    
  -1.06383705      0.843237996     -0.303481996       78.2239151       1.55949771    
  -1.15564799      0.714680016     -0.303483993       86.3369904       1.56055427    
  -1.15769398      0.715813994       0.00000000       86.3369904       1.56055427    
  -1.23224795      0.576331973       0.00000000       86.3369904       1.56055427    
  -1.23108304      0.575536013     -0.303514004       86.3369904       1.56055427    
  -1.23224795      0.576331973       0.00000000       90.9436951       1.56107461    
  -1.28948605      0.428772002       0.00000000       90.9436951       1.56107461    
  -1.28842103      0.428404987     -0.303512990       90.9436951       1.56107461    
  -1.23108304      0.575536013     -0.303514004       90.9436951       1.56107461    
  -1.28842103      0.428404987     -0.303512990       89.0655365       1.56087780    
  -1.33082402      0.275959998     -0.303492010       89.0655365       1.56087780    
  -1.33550000      0.277083993     -0.606999993       89.0655365       1.56087780    