 VARIABLES="X" "Y" "Z" "abs(p) (Pa)" "angle(p) (rad)"
ZONE N=   2720,E =    2069, F=FEPOINT, ET=QUADRILATERAL
 -0.767116010      -1.12776399       0.00000000       6799.16602      -1.58909488    
 -0.769354999      -1.12002099     -0.303523988       6799.16602      -1.58909488    
 -0.896136999      -1.02028203     -0.303463012       6799.16602      -1.58909488    
 -0.894908011      -1.02288902       0.00000000       6799.16602      -1.58909488    
 -0.767116010      -1.12776399       0.00000000       7228.40479      -1.58969033    
 -0.630888999      -1.20308697       0.00000000       7228.40479      -1.58969033    
 -0.635528028      -1.19958198     -0.303541005       7228.40479      -1.58969033    
 -0.769354999      -1.12002099     -0.303523988       7228.40479      -1.58969033    
 -0.635528028      -1.19958198     -0.303541005       10190.0928      -1.57570505    
 -0.495362997      -1.26606500     -0.303519011       10190.0928      -1.57570505    
 -0.499298006      -1.26809204     -0.606999993       10190.0928      -1.57570505    
 -0.640147984      -1.19813800     -0.606998026       10190.0928      -1.57570505    
 -0.635528028      -1.19958198     -0.303541005       9593.22070      -1.57557940    
 -0.640147984      -1.19813800     -0.606998026       9593.22070      -1.57557940    
 -0.777105987      -1.11956596     -0.606999993       9593.22070      -1.57557940    
 -0.769354999      -1.12002099     -0.303523988       9593.22070      -1.57557940    
 -0.635528028      -1.19958198     -0.303541005       7557.45850      -1.59014821    
 -0.630888999      -1.20308697       0.00000000       7557.45850      -1.59014821    
 -0.494486004      -1.26955199       0.00000000       7557.45850      -1.59014821    
 -0.495362997      -1.26606500     -0.303519011       7557.45850      -1.59014821    
 -0.494486004      -1.26955199       0.00000000       7828.48535      -1.59062636    
 -0.346311986      -1.31449997       0.00000000       7828.48535      -1.59062636    
 -0.346753001      -1.31307304     -0.303510010       7828.48535      -1.59062636    
 -0.495362997      -1.26606500     -0.303519011       7828.48535      -1.59062636    
 -0.346753001      -1.31307304     -0.303510010       10999.7324      -1.57590282    
 -0.193608001      -1.34425998     -0.303494990       10999.7324      -1.57590282    
 -0.195028007      -1.34579206     -0.606999993       10999.7324      -1.57590282    
 -0.348751009      -1.31376004     -0.606999993       10999.7324      -1.57590282    
 -0.346753001      -1.31307304     -0.303510010       10648.5703      -1.57582247    
 -0.348751009      -1.31376004     -0.606999993       10648.5703      -1.57582247    
 -0.499298006      -1.26809204     -0.606999993       10648.5703      -1.57582247    
 -0.495362997      -1.26606500     -0.303519011       10648.5703      -1.57582247    
 -0.346753001      -1.31307304     -0.303510010       8108.19775      -1.59083700    
 -0.346311986      -1.31449997       0.00000000       8108.19775      -1.59083700    
 -0.193381995      -1.34595394       0.00000000       8108.19775      -1.59083700    
 -0.193608001      -1.34425998     -0.303494990       8108.19775      -1.59083700    
 -0.193381995      -1.34595394       0.00000000       8198.77246      -1.59138095    
  -3.75179984E-02  -1.36130500       0.00000000       8198.77246      -1.59138095    
  -3.73950005E-02  -1.35827899     -0.303512007       8198.77246      -1.59138095    
 -0.193608001      -1.34425998     -0.303494990       8198.77246      -1.59138095    
  -3.73950005E-02  -1.35827899     -0.303512007       11206.8955      -1.57602155    
  0.119547002      -1.35239303     -0.303498000       11206.8955      -1.57602155    
  0.119135000      -1.35326600     -0.606999993       11206.8955      -1.57602155    
  -3.82840000E-02  -1.36122894     -0.606998980       11206.8955      -1.57602155    
  -3.73950005E-02  -1.35827899     -0.303512007       11192.0996      -1.57598495    
  -3.82840000E-02  -1.36122894     -0.606998980       11192.0996      -1.57598495    
 -0.195028007      -1.34579206     -0.606999993       11192.0996      -1.57598495    
 -0.193608001      -1.34425998     -0.303494990       11192.0996      -1.57598495    
  -3.73950005E-02  -1.35827899     -0.303512007       8129.85449      -1.59157813    
  -3.75179984E-02  -1.36130500       0.00000000       8129.85449      -1.59157813    
  0.119788997      -1.35320199       0.00000000       8129.85449      -1.59157813    
  0.119547002      -1.35239303     -0.303498000       8129.85449      -1.59157813    
  0.119788997      -1.35320199       0.00000000       7883.24951      -1.59204566    
  0.276576012      -1.33565402       0.00000000       7883.24951      -1.59204566    
  0.275435001      -1.33191597     -0.303496003       7883.24951      -1.59204566    
  0.119547002      -1.35239303     -0.303498000       7883.24951      -1.59204566    
  0.275435001      -1.33191597     -0.303496003       11066.1348      -1.57587862    
  0.427076995      -1.28898001     -0.303507000       11066.1348      -1.57587862    
  0.427242011      -1.28995001     -0.606999993       11066.1348      -1.57587862    
  0.275831014      -1.33588004     -0.606999993       11066.1348      -1.57587862    
  0.275435001      -1.33191597     -0.303496003       11318.7637      -1.57592189    
  0.275831014      -1.33588004     -0.606999993       11318.7637      -1.57592189    
  0.119135000      -1.35326600     -0.606999993       11318.7637      -1.57592189    
  0.119547002      -1.35239303     -0.303498000       11318.7637      -1.57592189    
  0.275435001      -1.33191597     -0.303496003       7616.85254      -1.59214640    
  0.276576012      -1.33565402       0.00000000       7616.85254      -1.59214640    
  0.427509993      -1.28986895       0.00000000       7616.85254      -1.59214640    
  0.427076995      -1.28898001     -0.303507000       7616.85254      -1.59214640    
  0.427509993      -1.28986895       0.00000000       7399.92773      -1.59159446    
  0.574636996      -1.23315501       0.00000000       7399.92773      -1.59159446    
  0.573706985      -1.23136795     -0.303485990       7399.92773      -1.59159446    
  0.427076995      -1.28898001     -0.303507000       7399.92773      -1.59159446    
  0.573706985      -1.23136795     -0.303485990       10127.5068      -1.57573605    
  0.712854981      -1.15688002     -0.303496987       10127.5068      -1.57573605    
  0.713809013      -1.15876603     -0.606999993       10127.5068      -1.57573605    
  0.574283004      -1.23334301     -0.606999993       10127.5068      -1.57573605    
  0.573706985      -1.23136795     -0.303485990       10683.7842      -1.57578158    
  0.574283004      -1.23334301     -0.606999993       10683.7842      -1.57578158    
  0.427242011      -1.28995001     -0.606999993       10683.7842      -1.57578158    
  0.427076995      -1.28898001     -0.303507000       10683.7842      -1.57578158    
  0.573706985      -1.23136795     -0.303485990       7000.28564      -1.59160495    
  0.574636996      -1.23315501       0.00000000       7000.28564      -1.59160495    
  0.713741004      -1.15880203       0.00000000       7000.28564      -1.59160495    
  0.712854981      -1.15688002     -0.303496987       7000.28564      -1.59160495    
  0.713741004      -1.15880203       0.00000000       6576.01611      -1.59156287    
  0.841937006      -1.06636095       0.00000000       6576.01611      -1.59156287    
  0.841498017      -1.06573403     -0.303485990       6576.01611      -1.59156287    
  0.712854981      -1.15688002     -0.303496987       6576.01611      -1.59156287    
  0.841498017      -1.06573403     -0.303485990       8670.18945      -1.57568932    
  0.960639000     -0.962104976     -0.303470999       8670.18945      -1.57568932    
  0.964356005     -0.965893984     -0.606999993       8670.18945      -1.57568932    
  0.841796994      -1.06647599     -0.606999993       8670.18945      -1.57568932    
  0.841498017      -1.06573403     -0.303485990       9473.33887      -1.57567823    
  0.841796994      -1.06647599     -0.606999993       9473.33887      -1.57567823    
  0.713809013      -1.15876603     -0.606999993       9473.33887      -1.57567823    
  0.712854981      -1.15688002     -0.303496987       9473.33887      -1.57567823    
  0.841498017      -1.06573403     -0.303485990       6103.87012      -1.59198809    
  0.841937006      -1.06636095       0.00000000       6103.87012      -1.59198809    
  0.963932991     -0.966242015       0.00000000       6103.87012      -1.59198809    
  0.960639000     -0.962104976     -0.303470999       6103.87012      -1.59198809    
  0.963932991     -0.966242015       0.00000000       5495.22412      -1.59233475    
   1.06506598     -0.843514979       0.00000000       5495.22412      -1.59233475    
   1.06428695     -0.842682004     -0.303481996       5495.22412      -1.59233475    
  0.960639000     -0.962104976     -0.303470999       5495.22412      -1.59233475    
   1.06428695     -0.842682004     -0.303481996       7124.02051      -1.57555163    
   1.15591598     -0.714210987     -0.303485006       7124.02051      -1.57555163    
   1.15788805     -0.715448976     -0.606999993       7124.02051      -1.57555163    
   1.06537795     -0.843134999     -0.606999993       7124.02051      -1.57555163    
   1.06428695     -0.842682004     -0.303481996       7787.76953      -1.57572389    
   1.06537795     -0.843134999     -0.606999993       7787.76953      -1.57572389    
  0.964356005     -0.965893984     -0.606999993       7787.76953      -1.57572389    
  0.960639000     -0.962104976     -0.303470999       7787.76953      -1.57572389    
   1.06428695     -0.842682004     -0.303481996       4780.93262      -1.59205842    
   1.06506598     -0.843514979       0.00000000       4780.93262      -1.59205842    
   1.15792501     -0.715381980       0.00000000       4780.93262      -1.59205842    
   1.15591598     -0.714210987     -0.303485006       4780.93262      -1.59205842    
   1.15792501     -0.715381980       0.00000000       4048.17383      -1.59181905    
   1.23237598     -0.576093972       0.00000000       4048.17383      -1.59181905    
   1.23120904     -0.575251997     -0.303514004       4048.17383      -1.59181905    
   1.15591598     -0.714210987     -0.303485006       4048.17383      -1.59181905    
   1.23120904     -0.575251997     -0.303514004       4850.30566      -1.57554257    
   1.28844094     -0.428344995     -0.303512990       4850.30566      -1.57554257    
   1.28952503     -0.428642988     -0.606999993       4850.30566      -1.57554257    
   1.23252702     -0.575810015     -0.606999993       4850.30566      -1.57554257    
   1.23120904     -0.575251997     -0.303514004       6016.50146      -1.57560241    
   1.23252702     -0.575810015     -0.606999993       6016.50146      -1.57560241    
   1.15788805     -0.715448976     -0.606999993       6016.50146      -1.57560241    
   1.15591598     -0.714210987     -0.303485006       6016.50146      -1.57560241    
   1.23120904     -0.575251997     -0.303514004       3742.56519      -1.58846772    
   1.23237598     -0.576093972       0.00000000       3742.56519      -1.58846772    
   1.28947699     -0.428801000       0.00000000       3742.56519      -1.58846772    
   1.28844094     -0.428344995     -0.303512990       3742.56519      -1.58846772    
   1.28947699     -0.428801000       0.00000000       2783.84229      -1.58746636    
   1.33532202     -0.277671993       0.00000000       2783.84229      -1.58746636    
   1.33076501     -0.276203990     -0.303492010       2783.84229      -1.58746636    
   1.28844094     -0.428344995     -0.303512990       2783.84229      -1.58746636    
   1.33076501     -0.276203990     -0.303492010       2523.32983      -1.57430840    
   1.35229194     -0.119709998     -0.303514004       2523.32983      -1.57430840    
   1.35321999     -0.119608998     -0.606999993       2523.32983      -1.57430840    
   1.33549094     -0.277112991     -0.606999993       2523.32983      -1.57430840    
   1.33076501     -0.276203990     -0.303492010       3645.90747      -1.57524395    
   1.33549094     -0.277112991     -0.606999993       3645.90747      -1.57524395    
   1.28952503     -0.428642988     -0.606999993       3645.90747      -1.57524395    
   1.28844094     -0.428344995     -0.303512990       3645.90747      -1.57524395    
   1.33076501     -0.276203990     -0.303492010       1585.31494      -1.58702219    
   1.33532202     -0.277671993       0.00000000       1585.31494      -1.58702219    
   1.35319102     -0.119900003       0.00000000       1585.31494      -1.58702219    
   1.35229194     -0.119709998     -0.303514004       1585.31494      -1.58702219    
   1.35319102     -0.119900003       0.00000000       710.901428      -1.57559359    
   1.36124396       3.81390005E-02   0.00000000       710.901428      -1.57559359    
   1.35858905       3.79349999E-02 -0.303501010       710.901428      -1.57559359    
   1.35229194     -0.119709998     -0.303514004       710.901428      -1.57559359    
   1.35858905       3.79349999E-02 -0.303501010       382.351898       1.55105340    
   1.34464097      0.195331007     -0.303496003       382.351898       1.55105340    
   1.34573400      0.195616007     -0.606999993       382.351898       1.55105340    
   1.36126804       3.78950015E-02 -0.606999993       382.351898       1.55105340    
   1.35858905       3.79349999E-02 -0.303501010       861.460083      -1.57127941    
   1.36126804       3.78950015E-02 -0.606999993       861.460083      -1.57127941    
   1.35321999     -0.119608998     -0.606999993       861.460083      -1.57127941    
   1.35229194     -0.119709998     -0.303514004       861.460083      -1.57127941    
   1.35858905       3.79349999E-02 -0.303501010       42.9639664       1.13644266    
   1.36124396       3.81390005E-02   0.00000000       42.9639664       1.13644266    
   1.34575403      0.195406005       0.00000000       42.9639664       1.13644266    
   1.34464097      0.195331007     -0.303496003       42.9639664       1.13644266    
   1.34575403      0.195406005       0.00000000       939.961182       1.52915597    
   1.31339800      0.349945009       0.00000000       939.961182       1.52915597    
   1.31216300      0.349725991     -0.303487003       939.961182       1.52915597    
   1.34464097      0.195331007     -0.303496003       939.961182       1.52915597    
   1.31216300      0.349725991     -0.303487003       3034.51001       1.56359601    
   1.26341999      0.500032008     -0.303494006       3034.51001       1.56359601    
   1.26736605      0.501691997     -0.606999993       3034.51001       1.56359601    
   1.31333196      0.350163996     -0.606999993       3034.51001       1.56359601    
   1.31216300      0.349725991     -0.303487003       1646.82275       1.56159377    
   1.31333196      0.350163996     -0.606999993       1646.82275       1.56159377    
   1.34573400      0.195616007     -0.606999993       1646.82275       1.56159377    
   1.34464097      0.195331007     -0.303496003       1646.82275       1.56159377    
   1.31216300      0.349725991     -0.303487003       1809.26306       1.53762579    
   1.31339800      0.349945009       0.00000000       1809.26306       1.53762579    
   1.26751196      0.501209974       0.00000000       1809.26306       1.53762579    
   1.26341999      0.500032008     -0.303494006       1809.26306       1.53762579    
   1.26751196      0.501209974       0.00000000       2804.55444       1.54273307    
   1.19658697      0.643051028       0.00000000       2804.55444       1.54273307    
   1.19583094      0.642783999     -0.303505003       2804.55444       1.54273307    
   1.26341999      0.500032008     -0.303494006       2804.55444       1.54273307    
   1.19583094      0.642783999     -0.303505003       5451.75684       1.56495881    
   1.11495602      0.778467000     -0.303483993       5451.75684       1.56495881    
   1.11731696      0.779847026     -0.606999993       5451.75684       1.56495881    
   1.19653296      0.643149972     -0.606999993       5451.75684       1.56495881    
   1.19583094      0.642783999     -0.303505003       4216.71582       1.56434572    
   1.19653296      0.643149972     -0.606999993       4216.71582       1.56434572    
   1.26736605      0.501691997     -0.606999993       4216.71582       1.56434572    
   1.26341999      0.500032008     -0.303494006       4216.71582       1.56434572    
   1.19583094      0.642783999     -0.303505003       3646.88770       1.54448009    
   1.19658697      0.643051028       0.00000000       3646.88770       1.54448009    
   1.11705506      0.780165970       0.00000000       3646.88770       1.54448009    
   1.11495602      0.778467000     -0.303483993       3646.88770       1.54448009    
   1.11705506      0.780165970       0.00000000       4438.36572       1.54608905    
   1.01674199      0.902397990       0.00000000       4438.36572       1.54608905    
   1.01591504      0.901737988     -0.303478003       4438.36572       1.54608905    
   1.11495602      0.778467000     -0.303483993       4438.36572       1.54608905    
   1.01591504      0.901737988     -0.303478003       7560.50684       1.56583929    
  0.904204011       1.01322901     -0.303456992       7560.50684       1.56583929    
  0.905143023       1.01448905     -0.606999993       7560.50684       1.56583929    
   1.01659799      0.902572989     -0.606999993       7560.50684       1.56583929    
   1.01591504      0.901737988     -0.303478003       6595.52637       1.56549823    
   1.01659799      0.902572989     -0.606999993       6595.52637       1.56549823    
   1.11731696      0.779847026     -0.606999993       6595.52637       1.56549823    
   1.11495602      0.778467000     -0.303483993       6595.52637       1.56549823    
   1.01591504      0.901737988     -0.303478003       5219.80469       1.54771554    
   1.01674199      0.902397990       0.00000000       5219.80469       1.54771554    
  0.905318975       1.01434398       0.00000000       5219.80469       1.54771554    
  0.904204011       1.01322901     -0.303456992       5219.80469       1.54771554    
  0.905318975       1.01434398       0.00000000       5906.41016       1.54824328    
  0.782918990       1.11479497       0.00000000       5906.41016       1.54824328    
  0.780644000       1.11195600     -0.303485006       5906.41016       1.54824328    
  0.904204011       1.01322901     -0.303456992       5906.41016       1.54824328    
  0.780644000       1.11195600     -0.303485006       9111.83594       1.56614411    
  0.645825028       1.19414902     -0.303514004       9111.83594       1.56614411    
  0.646153986       1.19492805     -0.606999993       9111.83594       1.56614411    
  0.782611012       1.11504900     -0.606999993       9111.83594       1.56614411    
  0.780644000       1.11195600     -0.303485006       8395.43750       1.56602633    
  0.782611012       1.11504900     -0.606999993       8395.43750       1.56602633    
  0.905143023       1.01448905     -0.606999993       8395.43750       1.56602633    
  0.904204011       1.01322901     -0.303456992       8395.43750       1.56602633    
  0.780644000       1.11195600     -0.303485006       6448.41748       1.54883146    
  0.782918990       1.11479497       0.00000000       6448.41748       1.54883146    
  0.646345019       1.19482601       0.00000000       6448.41748       1.54883146    
  0.645825028       1.19414902     -0.303514004       6448.41748       1.54883146    
  0.646345019       1.19482601       0.00000000       6849.68701       1.54893553    
  0.504974008       1.26637006       0.00000000       6849.68701       1.54893553    
  0.503772974       1.26314998     -0.303521991       6849.68701       1.54893553    
  0.645825028       1.19414902     -0.303514004       6849.68701       1.54893553    
  0.503772974       1.26314998     -0.303521991       10220.4893       1.56619239    
  0.353130996       1.31116498     -0.303510994       10220.4893       1.56619239    
  0.353300005       1.31237996     -0.606999993       10220.4893       1.56619239    
  0.505183995       1.26630700     -0.606999993       10220.4893       1.56619239    
  0.503772974       1.26314998     -0.303521991       9729.87988       1.56617641    
  0.505183995       1.26630700     -0.606999993       9729.87988       1.56617641    
  0.646153986       1.19492805     -0.606999993       9729.87988       1.56617641    
  0.645825028       1.19414902     -0.303514004       9729.87988       1.56617641    
  0.503772974       1.26314998     -0.303521991       7212.54492       1.54932904    
  0.504974008       1.26637006       0.00000000       7212.54492       1.54932904    
  0.353493989       1.31232095       0.00000000       7212.54492       1.54932904    
  0.353130996       1.31116498     -0.303510994       7212.54492       1.54932904    
  0.353493989       1.31232095       0.00000000       7553.74072       1.55002320    
  0.199064001       1.34539402       0.00000000       7553.74072       1.55002320    
  0.198755994       1.34360003     -0.303496003       7553.74072       1.55002320    
  0.353130996       1.31116498     -0.303510994       7553.74072       1.55002320    
  0.198755994       1.34360003     -0.303496003       10679.6357       1.56617522    
   4.12769988E-02   1.35817802     -0.303508013       10679.6357       1.56617522    
   4.12410013E-02   1.36093795     -0.606999993       10679.6357       1.56617522    
  0.199025005       1.34539795     -0.606999993       10679.6357       1.56617522    
  0.198755994       1.34360003     -0.303496003       10576.0020       1.56621003    
  0.199025005       1.34539795     -0.606999993       10576.0020       1.56621003    
  0.353300005       1.31237996     -0.606999993       10576.0020       1.56621003    
  0.353130996       1.31116498     -0.303510994       10576.0020       1.56621003    
  0.198755994       1.34360003     -0.303496003       7668.70410       1.54995322    
  0.199064001       1.34539402       0.00000000       7668.70410       1.54995322    
   4.17769998E-02   1.36088502       0.00000000       7668.70410       1.54995322    
   4.12769988E-02   1.35817802     -0.303508013       7668.70410       1.54995322    
   4.17769998E-02   1.36088502       0.00000000       7897.17920       1.55056417    
 -0.116410002       1.35353506       0.00000000       7897.17920       1.55056417    
 -0.116471998       1.35271096     -0.303496987       7897.17920       1.55056417    
   4.12769988E-02   1.35817802     -0.303508013       7897.17920       1.55056417    
 -0.116471998       1.35271096     -0.303496987       10846.7246       1.56637633    
 -0.273027003       1.33229196     -0.303496003       10846.7246       1.56637633    
 -0.273876995       1.33647299     -0.606999993       10846.7246       1.56637633    
 -0.116722003       1.35350394     -0.606999993       10846.7246       1.56637633    
 -0.116471998       1.35271096     -0.303496987       10755.4707       1.56622481    
 -0.116722003       1.35350394     -0.606999993       10755.4707       1.56622481    
   4.12410013E-02   1.36093795     -0.606999993       10755.4707       1.56622481    
   4.12769988E-02   1.35817802     -0.303508013       10755.4707       1.56622481    
 -0.116471998       1.35271096     -0.303496987       7894.17822       1.55067277    
 -0.116410002       1.35353506       0.00000000       7894.17822       1.55067277    
 -0.274069011       1.33641505       0.00000000       7894.17822       1.55067277    
 -0.273027003       1.33229196     -0.303496003       7894.17822       1.55067277    
 -0.274069011       1.33641505       0.00000000       7790.74707       1.55124545    
 -0.425588995       1.29045200       0.00000000       7790.74707       1.55124545    
 -0.425258011       1.28953803     -0.303507000       7790.74707       1.55124545    
 -0.273027003       1.33229196     -0.303496003       7790.74707       1.55124545    
 -0.425258011       1.28953803     -0.303507000       10293.5039       1.56672120    
 -0.572302997       1.23206902     -0.303485990       10293.5039       1.56672120    
 -0.573064029       1.23399496     -0.606999993       10293.5039       1.56672120    
 -0.425651014       1.29043305     -0.606999993       10293.5039       1.56672120    
 -0.425258011       1.28953803     -0.303507000       10636.1533       1.56651235    
 -0.425651014       1.29043305     -0.606999993       10636.1533       1.56651235    
 -0.273876995       1.33647299     -0.606999993       10636.1533       1.56651235    
 -0.273027003       1.33229196     -0.303496003       10636.1533       1.56651235    
 -0.425258011       1.28953803     -0.303507000       7604.95752       1.55242419    
 -0.425588995       1.29045200       0.00000000       7604.95752       1.55242419    
 -0.573195994       1.23392498       0.00000000       7604.95752       1.55242419    
 -0.572302997       1.23206902     -0.303485990       7604.95752       1.55242419    
 -0.573195994       1.23392498       0.00000000       7203.91357       1.55308139    
 -0.712655008       1.15938199       0.00000000       7203.91357       1.55308139    
 -0.711889029       1.15749002     -0.303496003       7203.91357       1.55308139    
 -0.572302997       1.23206902     -0.303485990       7203.91357       1.55308139    
 -0.711889029       1.15749002     -0.303496003       9159.18359       1.56702852    
 -0.840825975       1.06629205     -0.303485990       9159.18359       1.56702852    
 -0.841368973       1.06682706     -0.606999993       9159.18359       1.56702852    
 -0.712980986       1.15920806     -0.606999993       9159.18359       1.56702852    
 -0.711889029       1.15749002     -0.303496003       9778.29102       1.56688118    
 -0.712980986       1.15920806     -0.606999993       9778.29102       1.56688118    
 -0.573064029       1.23399496     -0.606999993       9778.29102       1.56688118    
 -0.572302997       1.23206902     -0.303485990       9778.29102       1.56688118    
 -0.711889029       1.15749002     -0.303496003       6748.41943       1.55391788    
 -0.712655008       1.15938199       0.00000000       6748.41943       1.55391788    
 -0.841165006       1.06699395       0.00000000       6748.41943       1.55391788    
 -0.840825975       1.06629205     -0.303485990       6748.41943       1.55391788    
 -0.841165006       1.06699395       0.00000000       6118.98486       1.55406499    
 -0.963320017      0.966744006       0.00000000       6118.98486       1.55406499    
 -0.960084975      0.962615013     -0.303470999       6118.98486       1.55406499    
 -0.840825975       1.06629205     -0.303485990       6118.98486       1.55406499    
 -0.960084975      0.962615013     -0.303470999       7476.00732       1.56700206    
  -1.06383705      0.843237996     -0.303481996       7476.00732       1.56700206    
  -1.06481802      0.843816996     -0.606999993       7476.00732       1.56700206    
 -0.963873982      0.966289997     -0.606999993       7476.00732       1.56700206    
 -0.960084975      0.962615013     -0.303470999       8366.37500       1.56706965    
 -0.963873982      0.966289997     -0.606999993       8366.37500       1.56706965    
 -0.841368973       1.06682706     -0.606999993       8366.37500       1.56706965    
 -0.840825975       1.06629205     -0.303485990       8366.37500       1.56706965    
 -0.960084975      0.962615013     -0.303470999       5484.64795       1.55419052    
 -0.963320017      0.966744006       0.00000000       5484.64795       1.55419052    
  -1.06464398      0.844029009       0.00000000       5484.64795       1.55419052    
  -1.06383705      0.843237996     -0.303481996       5484.64795       1.55419052    
  -1.06464398      0.844029009       0.00000000       4737.69727       1.55432844    
  -1.15769398      0.715813994       0.00000000       4737.69727       1.55432844    
  -1.15564799      0.714680016     -0.303483993       4737.69727       1.55432844    
  -1.06383705      0.843237996     -0.303481996       4737.69727       1.55432844    
  -1.15564799      0.714680016     -0.303483993       5422.98877       1.56667137    
  -1.23108304      0.575536013     -0.303514004       5422.98877       1.56667137    
  -1.23232996      0.576179981     -0.606999993       5422.98877       1.56667137    
  -1.15756094      0.716063023     -0.606999993       5422.98877       1.56667137    
  -1.15564799      0.714680016     -0.303483993       6487.60693       1.56687891    
  -1.15756094      0.716063023     -0.606999993       6487.60693       1.56687891    
  -1.06481802      0.843816996     -0.606999993       6487.60693       1.56687891    
  -1.06383705      0.843237996     -0.303481996       6487.60693       1.56687891    
  -1.15564799      0.714680016     -0.303483993       3956.57764       1.55415368    
  -1.15769398      0.715813994       0.00000000       3956.57764       1.55415368    
  -1.23224795      0.576331973       0.00000000       3956.57764       1.55415368    
  -1.23108304      0.575536013     -0.303514004       3956.57764       1.55415368    
  -1.23224795      0.576331973       0.00000000       3147.00537       1.55444360    
  -1.28948605      0.428772002       0.00000000       3147.00537       1.55444360    
  -1.28842103      0.428404987     -0.303512990       3147.00537       1.55444360    
  -1.23108304      0.575536013     -0.303514004       3147.00537       1.55444360    
  -1.28842103      0.428404987     -0.303512990       2930.09253       1.56618917    
  -1.33082402      0.275959998     -0.303492010       2930.09253       1.56618917    
  -1.33550000      0.277083993     -0.606999993       2930.09253       1.56618917    