 VARIABLES="X" "Y" "Z" "abs(p) (Pa)" "angle(p) (rad)"
ZONE N=   2720,E =    2069, F=FEPOINT, ET=QUADRILATERAL
 -0.767116010      -1.12776399       0.00000000       1915.96106       1.71029496    
 -0.769354999      -1.12002099     -0.303523988       1915.96106       1.71029496    
 -0.896136999      -1.02028203     -0.303463012       1915.96106       1.71029496    
 -0.894908011      -1.02288902       0.00000000       1915.96106       1.71029496    
 -0.767116010      -1.12776399       0.00000000       1619.62646       1.71120369    
 -0.630888999      -1.20308697       0.00000000       1619.62646       1.71120369    
 -0.635528028      -1.19958198     -0.303541005       1619.62646       1.71120369    
 -0.769354999      -1.12002099     -0.303523988       1619.62646       1.71120369    
 -0.635528028      -1.19958198     -0.303541005       1447.92029       1.70988452    
 -0.495362997      -1.26606500     -0.303519011       1447.92029       1.70988452    
 -0.499298006      -1.26809204     -0.606999993       1447.92029       1.70988452    
 -0.640147984      -1.19813800     -0.606998026       1447.92029       1.70988452    
 -0.635528028      -1.19958198     -0.303541005       1807.49048       1.70892727    
 -0.640147984      -1.19813800     -0.606998026       1807.49048       1.70892727    
 -0.777105987      -1.11956596     -0.606999993       1807.49048       1.70892727    
 -0.769354999      -1.12002099     -0.303523988       1807.49048       1.70892727    
 -0.635528028      -1.19958198     -0.303541005       1278.90417       1.71136427    
 -0.630888999      -1.20308697       0.00000000       1278.90417       1.71136427    
 -0.494486004      -1.26955199       0.00000000       1278.90417       1.71136427    
 -0.495362997      -1.26606500     -0.303519011       1278.90417       1.71136427    
 -0.494486004      -1.26955199       0.00000000       954.849976       1.71347535    
 -0.346311986      -1.31449997       0.00000000       954.849976       1.71347535    
 -0.346753001      -1.31307304     -0.303510010       954.849976       1.71347535    
 -0.495362997      -1.26606500     -0.303519011       954.849976       1.71347535    
 -0.346753001      -1.31307304     -0.303510010       686.195496       1.71581268    
 -0.193608001      -1.34425998     -0.303494990       686.195496       1.71581268    
 -0.195028007      -1.34579206     -0.606999993       686.195496       1.71581268    
 -0.348751009      -1.31376004     -0.606999993       686.195496       1.71581268    
 -0.346753001      -1.31307304     -0.303510010       1078.81482       1.71182787    
 -0.348751009      -1.31376004     -0.606999993       1078.81482       1.71182787    
 -0.499298006      -1.26809204     -0.606999993       1078.81482       1.71182787    
 -0.495362997      -1.26606500     -0.303519011       1078.81482       1.71182787    
 -0.346753001      -1.31307304     -0.303510010       607.168030       1.71811080    
 -0.346311986      -1.31449997       0.00000000       607.168030       1.71811080    
 -0.193381995      -1.34595394       0.00000000       607.168030       1.71811080    
 -0.193608001      -1.34425998     -0.303494990       607.168030       1.71811080    
 -0.193381995      -1.34595394       0.00000000       273.168121       1.73966849    
  -3.75179984E-02  -1.36130500       0.00000000       273.168121       1.73966849    
  -3.73950005E-02  -1.35827899     -0.303512007       273.168121       1.73966849    
 -0.193608001      -1.34425998     -0.303494990       273.168121       1.73966849    
  -3.73950005E-02  -1.35827899     -0.303512007       117.102669      -1.49872470    
  0.119547002      -1.35239303     -0.303498000       117.102669      -1.49872470    
  0.119135000      -1.35326600     -0.606999993       117.102669      -1.49872470    
  -3.82840000E-02  -1.36122894     -0.606998980       117.102669      -1.49872470    
  -3.73950005E-02  -1.35827899     -0.303512007       283.680786       1.73022878    
  -3.82840000E-02  -1.36122894     -0.606998980       283.680786       1.73022878    
 -0.195028007      -1.34579206     -0.606999993       283.680786       1.73022878    
 -0.193608001      -1.34425998     -0.303494990       283.680786       1.73022878    
  -3.73950005E-02  -1.35827899     -0.303512007       84.0030518      -1.54825211    
  -3.75179984E-02  -1.36130500       0.00000000       84.0030518      -1.54825211    
  0.119788997      -1.35320199       0.00000000       84.0030518      -1.54825211    
  0.119547002      -1.35239303     -0.303498000       84.0030518      -1.54825211    
  0.119788997      -1.35320199       0.00000000       451.262726      -1.45612001    
  0.276576012      -1.33565402       0.00000000       451.262726      -1.45612001    
  0.275435001      -1.33191597     -0.303496003       451.262726      -1.45612001    
  0.119547002      -1.35239303     -0.303498000       451.262726      -1.45612001    
  0.275435001      -1.33191597     -0.303496003       901.455444      -1.44623208    
  0.427076995      -1.28898001     -0.303507000       901.455444      -1.44623208    
  0.427242011      -1.28995001     -0.606999993       901.455444      -1.44623208    
  0.275831014      -1.33588004     -0.606999993       901.455444      -1.44623208    
  0.275435001      -1.33191597     -0.303496003       511.656006      -1.45287335    
  0.275831014      -1.33588004     -0.606999993       511.656006      -1.45287335    
  0.119135000      -1.35326600     -0.606999993       511.656006      -1.45287335    
  0.119547002      -1.35239303     -0.303498000       511.656006      -1.45287335    
  0.275435001      -1.33191597     -0.303496003       796.960999      -1.44758701    
  0.276576012      -1.33565402       0.00000000       796.960999      -1.44758701    
  0.427509993      -1.28986895       0.00000000       796.960999      -1.44758701    
  0.427076995      -1.28898001     -0.303507000       796.960999      -1.44758701    
  0.427509993      -1.28986895       0.00000000       1139.02881      -1.44443035    
  0.574636996      -1.23315501       0.00000000       1139.02881      -1.44443035    
  0.573706985      -1.23136795     -0.303485990       1139.02881      -1.44443035    
  0.427076995      -1.28898001     -0.303507000       1139.02881      -1.44443035    
  0.573706985      -1.23136795     -0.303485990       1657.43079      -1.44178867    
  0.712854981      -1.15688002     -0.303496987       1657.43079      -1.44178867    
  0.713809013      -1.15876603     -0.606999993       1657.43079      -1.44178867    
  0.574283004      -1.23334301     -0.606999993       1657.43079      -1.44178867    
  0.573706985      -1.23136795     -0.303485990       1288.82495      -1.44327736    
  0.574283004      -1.23334301     -0.606999993       1288.82495      -1.44327736    
  0.427242011      -1.28995001     -0.606999993       1288.82495      -1.44327736    
  0.427076995      -1.28898001     -0.303507000       1288.82495      -1.44327736    
  0.573706985      -1.23136795     -0.303485990       1465.50586      -1.44250512    
  0.574636996      -1.23315501       0.00000000       1465.50586      -1.44250512    
  0.713741004      -1.15880203       0.00000000       1465.50586      -1.44250512    
  0.712854981      -1.15688002     -0.303496987       1465.50586      -1.44250512    
  0.713741004      -1.15880203       0.00000000       1771.08923      -1.44141674    
  0.841937006      -1.06636095       0.00000000       1771.08923      -1.44141674    
  0.841498017      -1.06573403     -0.303485990       1771.08923      -1.44141674    
  0.712854981      -1.15688002     -0.303496987       1771.08923      -1.44141674    
  0.841498017      -1.06573403     -0.303485990       2324.65649      -1.44051075    
  0.960639000     -0.962104976     -0.303470999       2324.65649      -1.44051075    
  0.964356005     -0.965893984     -0.606999993       2324.65649      -1.44051075    
  0.841796994      -1.06647599     -0.606999993       2324.65649      -1.44051075    
  0.841498017      -1.06573403     -0.303485990       1998.21240      -1.44112670    
  0.841796994      -1.06647599     -0.606999993       1998.21240      -1.44112670    
  0.713809013      -1.15876603     -0.606999993       1998.21240      -1.44112670    
  0.712854981      -1.15688002     -0.303496987       1998.21240      -1.44112670    
  0.841498017      -1.06573403     -0.303485990       2070.04492      -1.44035053    
  0.841937006      -1.06636095       0.00000000       2070.04492      -1.44035053    
  0.963932991     -0.966242015       0.00000000       2070.04492      -1.44035053    
  0.960639000     -0.962104976     -0.303470999       2070.04492      -1.44035053    
  0.963932991     -0.966242015       0.00000000       2321.03589      -1.43991733    
   1.06506598     -0.843514979       0.00000000       2321.03589      -1.43991733    
   1.06428695     -0.842682004     -0.303481996       2321.03589      -1.43991733    
  0.960639000     -0.962104976     -0.303470999       2321.03589      -1.43991733    
   1.06428695     -0.842682004     -0.303481996       2871.72778      -1.43936586    
   1.15591598     -0.714210987     -0.303485006       2871.72778      -1.43936586    
   1.15788805     -0.715448976     -0.606999993       2871.72778      -1.43936586    
   1.06537795     -0.843134999     -0.606999993       2871.72778      -1.43936586    
   1.06428695     -0.842682004     -0.303481996       2607.96289      -1.44019592    
   1.06537795     -0.843134999     -0.606999993       2607.96289      -1.44019592    
  0.964356005     -0.965893984     -0.606999993       2607.96289      -1.44019592    
  0.960639000     -0.962104976     -0.303470999       2607.96289      -1.44019592    
   1.06428695     -0.842682004     -0.303481996       2548.08472      -1.43959248    
   1.06506598     -0.843514979       0.00000000       2548.08472      -1.43959248    
   1.15792501     -0.715381980       0.00000000       2548.08472      -1.43959248    
   1.15591598     -0.714210987     -0.303485006       2548.08472      -1.43959248    
   1.15792501     -0.715381980       0.00000000       2742.31128      -1.43936694    
   1.23237598     -0.576093972       0.00000000       2742.31128      -1.43936694    
   1.23120904     -0.575251997     -0.303514004       2742.31128      -1.43936694    
   1.15591598     -0.714210987     -0.303485006       2742.31128      -1.43936694    
   1.23120904     -0.575251997     -0.303514004       3256.49756      -1.43907702    
   1.28844094     -0.428344995     -0.303512990       3256.49756      -1.43907702    
   1.28952503     -0.428642988     -0.606999993       3256.49756      -1.43907702    
   1.23252702     -0.575810015     -0.606999993       3256.49756      -1.43907702    
   1.23120904     -0.575251997     -0.303514004       3086.98877      -1.43921375    
   1.23252702     -0.575810015     -0.606999993       3086.98877      -1.43921375    
   1.15788805     -0.715448976     -0.606999993       3086.98877      -1.43921375    
   1.15591598     -0.714210987     -0.303485006       3086.98877      -1.43921375    
   1.23120904     -0.575251997     -0.303514004       2907.74341      -1.43878961    
   1.23237598     -0.576093972       0.00000000       2907.74341      -1.43878961    
   1.28947699     -0.428801000       0.00000000       2907.74341      -1.43878961    
   1.28844094     -0.428344995     -0.303512990       2907.74341      -1.43878961    
   1.28947699     -0.428801000       0.00000000       3014.13135      -1.43886280    
   1.33532202     -0.277671993       0.00000000       3014.13135      -1.43886280    
   1.33076501     -0.276203990     -0.303492010       3014.13135      -1.43886280    
   1.28844094     -0.428344995     -0.303512990       3014.13135      -1.43886280    
   1.33076501     -0.276203990     -0.303492010       3490.05469      -1.43832731    
   1.35229194     -0.119709998     -0.303514004       3490.05469      -1.43832731    
   1.35321999     -0.119608998     -0.606999993       3490.05469      -1.43832731    
   1.33549094     -0.277112991     -0.606999993       3490.05469      -1.43832731    
   1.33076501     -0.276203990     -0.303492010       3390.05884      -1.43905485    
   1.33549094     -0.277112991     -0.606999993       3390.05884      -1.43905485    
   1.28952503     -0.428642988     -0.606999993       3390.05884      -1.43905485    
   1.28844094     -0.428344995     -0.303512990       3390.05884      -1.43905485    
   1.33076501     -0.276203990     -0.303492010       3072.22778      -1.43925416    
   1.33532202     -0.277671993       0.00000000       3072.22778      -1.43925416    
   1.35319102     -0.119900003       0.00000000       3072.22778      -1.43925416    
   1.35229194     -0.119709998     -0.303514004       3072.22778      -1.43925416    
   1.35319102     -0.119900003       0.00000000       3104.41260      -1.43923831    
   1.36124396       3.81390005E-02   0.00000000       3104.41260      -1.43923831    
   1.35858905       3.79349999E-02 -0.303501010       3104.41260      -1.43923831    
   1.35229194     -0.119709998     -0.303514004       3104.41260      -1.43923831    
   1.35858905       3.79349999E-02 -0.303501010       3501.61157      -1.43873596    
   1.34464097      0.195331007     -0.303496003       3501.61157      -1.43873596    
   1.34573400      0.195616007     -0.606999993       3501.61157      -1.43873596    
   1.36126804       3.78950015E-02 -0.606999993       3501.61157      -1.43873596    
   1.35858905       3.79349999E-02 -0.303501010       3511.14526      -1.43867636    
   1.36126804       3.78950015E-02 -0.606999993       3511.14526      -1.43867636    
   1.35321999     -0.119608998     -0.606999993       3511.14526      -1.43867636    
   1.35229194     -0.119709998     -0.303514004       3511.14526      -1.43867636    
   1.35858905       3.79349999E-02 -0.303501010       3115.98511      -1.43847728    
   1.36124396       3.81390005E-02   0.00000000       3115.98511      -1.43847728    
   1.34575403      0.195406005       0.00000000       3115.98511      -1.43847728    
   1.34464097      0.195331007     -0.303496003       3115.98511      -1.43847728    
   1.34575403      0.195406005       0.00000000       3063.11670      -1.43854296    
   1.31339800      0.349945009       0.00000000       3063.11670      -1.43854296    
   1.31216300      0.349725991     -0.303487003       3063.11670      -1.43854296    
   1.34464097      0.195331007     -0.303496003       3063.11670      -1.43854296    
   1.31216300      0.349725991     -0.303487003       3328.52783      -1.43904018    
   1.26341999      0.500032008     -0.303494006       3328.52783      -1.43904018    
   1.26736605      0.501691997     -0.606999993       3328.52783      -1.43904018    
   1.31333196      0.350163996     -0.606999993       3328.52783      -1.43904018    
   1.31216300      0.349725991     -0.303487003       3439.56372      -1.43875504    
   1.31333196      0.350163996     -0.606999993       3439.56372      -1.43875504    
   1.34573400      0.195616007     -0.606999993       3439.56372      -1.43875504    
   1.34464097      0.195331007     -0.303496003       3439.56372      -1.43875504    
   1.31216300      0.349725991     -0.303487003       2971.65698      -1.43862426    
   1.31339800      0.349945009       0.00000000       2971.65698      -1.43862426    
   1.26751196      0.501209974       0.00000000       2971.65698      -1.43862426    
   1.26341999      0.500032008     -0.303494006       2971.65698      -1.43862426    
   1.26751196      0.501209974       0.00000000       2817.47827      -1.43961537    
   1.19658697      0.643051028       0.00000000       2817.47827      -1.43961537    
   1.19583094      0.642783999     -0.303505003       2817.47827      -1.43961537    
   1.26341999      0.500032008     -0.303494006       2817.47827      -1.43961537    
   1.19583094      0.642783999     -0.303505003       3002.46436      -1.43878579    
   1.11495602      0.778467000     -0.303483993       3002.46436      -1.43878579    
   1.11731696      0.779847026     -0.606999993       3002.46436      -1.43878579    
   1.19653296      0.643149972     -0.606999993       3002.46436      -1.43878579    
   1.19583094      0.642783999     -0.303505003       3178.24927      -1.43914366    
   1.19653296      0.643149972     -0.606999993       3178.24927      -1.43914366    
   1.26736605      0.501691997     -0.606999993       3178.24927      -1.43914366    
   1.26341999      0.500032008     -0.303494006       3178.24927      -1.43914366    
   1.19583094      0.642783999     -0.303505003       2638.63770      -1.43989992    
   1.19658697      0.643051028       0.00000000       2638.63770      -1.43989992    
   1.11705506      0.780165970       0.00000000       2638.63770      -1.43989992    
   1.11495602      0.778467000     -0.303483993       2638.63770      -1.43989992    
   1.11705506      0.780165970       0.00000000       2431.75000      -1.44022036    
   1.01674199      0.902397990       0.00000000       2431.75000      -1.44022036    
   1.01591504      0.901737988     -0.303478003       2431.75000      -1.44022036    
   1.11495602      0.778467000     -0.303483993       2431.75000      -1.44022036    
   1.01591504      0.901737988     -0.303478003       2480.28589      -1.43998086    
  0.904204011       1.01322901     -0.303456992       2480.28589      -1.43998086    
  0.905143023       1.01448905     -0.606999993       2480.28589      -1.43998086    
   1.01659799      0.902572989     -0.606999993       2480.28589      -1.43998086    
   1.01591504      0.901737988     -0.303478003       2755.26929      -1.43968749    
   1.01659799      0.902572989     -0.606999993       2755.26929      -1.43968749    
   1.11731696      0.779847026     -0.606999993       2755.26929      -1.43968749    
   1.11495602      0.778467000     -0.303483993       2755.26929      -1.43968749    
   1.01591504      0.901737988     -0.303478003       2186.62012      -1.44068515    
   1.01674199      0.902397990       0.00000000       2186.62012      -1.44068515    
  0.905318975       1.01434398       0.00000000       2186.62012      -1.44068515    
  0.904204011       1.01322901     -0.303456992       2186.62012      -1.44068515    
  0.905318975       1.01434398       0.00000000       1937.22156      -1.44041681    
  0.782918990       1.11479497       0.00000000       1937.22156      -1.44041681    
  0.780644000       1.11195600     -0.303485006       1937.22156      -1.44041681    
  0.904204011       1.01322901     -0.303456992       1937.22156      -1.44041681    
  0.780644000       1.11195600     -0.303485006       1845.80249      -1.44103861    
  0.645825028       1.19414902     -0.303514004       1845.80249      -1.44103861    
  0.646153986       1.19492805     -0.606999993       1845.80249      -1.44103861    
  0.782611012       1.11504900     -0.606999993       1845.80249      -1.44103861    
  0.780644000       1.11195600     -0.303485006       2177.21460      -1.44046390    
  0.782611012       1.11504900     -0.606999993       2177.21460      -1.44046390    
  0.905143023       1.01448905     -0.606999993       2177.21460      -1.44046390    
  0.904204011       1.01322901     -0.303456992       2177.21460      -1.44046390    
  0.780644000       1.11195600     -0.303485006       1645.92310      -1.44096947    
  0.782918990       1.11479497       0.00000000       1645.92310      -1.44096947    
  0.646345019       1.19482601       0.00000000       1645.92310      -1.44096947    
  0.645825028       1.19414902     -0.303514004       1645.92310      -1.44096947    
  0.646345019       1.19482601       0.00000000       1301.71814      -1.44353890    
  0.504974008       1.26637006       0.00000000       1301.71814      -1.44353890    
  0.503772974       1.26314998     -0.303521991       1301.71814      -1.44353890    
  0.645825028       1.19414902     -0.303514004       1301.71814      -1.44353890    
  0.503772974       1.26314998     -0.303521991       1112.31531      -1.44352651    
  0.353130996       1.31116498     -0.303510994       1112.31531      -1.44352651    
  0.353300005       1.31237996     -0.606999993       1112.31531      -1.44352651    
  0.505183995       1.26630700     -0.606999993       1112.31531      -1.44352651    
  0.503772974       1.26314998     -0.303521991       1484.19788      -1.44207048    
  0.505183995       1.26630700     -0.606999993       1484.19788      -1.44207048    
  0.646153986       1.19492805     -0.606999993       1484.19788      -1.44207048    
  0.645825028       1.19414902     -0.303514004       1484.19788      -1.44207048    
  0.503772974       1.26314998     -0.303521991       971.523621      -1.44603467    
  0.504974008       1.26637006       0.00000000       971.523621      -1.44603467    
  0.353493989       1.31232095       0.00000000       971.523621      -1.44603467    
  0.353130996       1.31116498     -0.303510994       971.523621      -1.44603467    
  0.353493989       1.31232095       0.00000000       617.628357      -1.45189512    
  0.199064001       1.34539402       0.00000000       617.628357      -1.45189512    
  0.198755994       1.34360003     -0.303496003       617.628357      -1.45189512    
  0.353130996       1.31116498     -0.303510994       617.628357      -1.45189512    
  0.198755994       1.34360003     -0.303496003       290.825836      -1.46913290    
   4.12769988E-02   1.35817802     -0.303508013       290.825836      -1.46913290    
   4.12410013E-02   1.36093795     -0.606999993       290.825836      -1.46913290    
  0.199025005       1.34539795     -0.606999993       290.825836      -1.46913290    
  0.198755994       1.34360003     -0.303496003       715.369629      -1.44745398    
  0.199025005       1.34539795     -0.606999993       715.369629      -1.44745398    
  0.353300005       1.31237996     -0.606999993       715.369629      -1.44745398    
  0.353130996       1.31116498     -0.303510994       715.369629      -1.44745398    
  0.198755994       1.34360003     -0.303496003       258.363373      -1.47424829    
  0.199064001       1.34539402       0.00000000       258.363373      -1.47424829    
   4.17769998E-02   1.36088502       0.00000000       258.363373      -1.47424829    
   4.12769988E-02   1.35817802     -0.303508013       258.363373      -1.47424829    
   4.17769998E-02   1.36088502       0.00000000       102.676308       1.79941785    
 -0.116410002       1.35353506       0.00000000       102.676308       1.79941785    
 -0.116471998       1.35271096     -0.303496987       102.676308       1.79941785    
   4.12769988E-02   1.35817802     -0.303508013       102.676308       1.79941785    
 -0.116471998       1.35271096     -0.303496987       532.320251       1.72565114    
 -0.273027003       1.33229196     -0.303496003       532.320251       1.72565114    
 -0.273876995       1.33647299     -0.606999993       532.320251       1.72565114    
 -0.116722003       1.35350394     -0.606999993       532.320251       1.72565114    
 -0.116471998       1.35271096     -0.303496987       114.376274       1.78746629    
 -0.116722003       1.35350394     -0.606999993       114.376274       1.78746629    
   4.12410013E-02   1.36093795     -0.606999993       114.376274       1.78746629    
   4.12769988E-02   1.35817802     -0.303508013       114.376274       1.78746629    
 -0.116471998       1.35271096     -0.303496987       469.249847       1.72632766    
 -0.116410002       1.35353506       0.00000000       469.249847       1.72632766    
 -0.274069011       1.33641505       0.00000000       469.249847       1.72632766    
 -0.273027003       1.33229196     -0.303496003       469.249847       1.72632766    
 -0.274069011       1.33641505       0.00000000       816.542419       1.71745253    
 -0.425588995       1.29045200       0.00000000       816.542419       1.71745253    
 -0.425258011       1.28953803     -0.303507000       816.542419       1.71745253    
 -0.273027003       1.33229196     -0.303496003       816.542419       1.71745253    
 -0.425258011       1.28953803     -0.303507000       1312.08130       1.71342981    
 -0.572302997       1.23206902     -0.303485990       1312.08130       1.71342981    
 -0.573064029       1.23399496     -0.606999993       1312.08130       1.71342981    
 -0.425651014       1.29043305     -0.606999993       1312.08130       1.71342981    
 -0.425258011       1.28953803     -0.303507000       923.615906       1.71670377    
 -0.425651014       1.29043305     -0.606999993       923.615906       1.71670377    
 -0.273876995       1.33647299     -0.606999993       923.615906       1.71670377    
 -0.273027003       1.33229196     -0.303496003       923.615906       1.71670377    
 -0.425258011       1.28953803     -0.303507000       1162.17737       1.71410608    
 -0.425588995       1.29045200       0.00000000       1162.17737       1.71410608    
 -0.573195994       1.23392498       0.00000000       1162.17737       1.71410608    
 -0.572302997       1.23206902     -0.303485990       1162.17737       1.71410608    
 -0.573195994       1.23392498       0.00000000       1488.63928       1.71233821    
 -0.712655008       1.15938199       0.00000000       1488.63928       1.71233821    
 -0.711889029       1.15749002     -0.303496003       1488.63928       1.71233821    
 -0.572302997       1.23206902     -0.303485990       1488.63928       1.71233821    
 -0.711889029       1.15749002     -0.303496003       2021.84460       1.71027935    
 -0.840825975       1.06629205     -0.303485990       2021.84460       1.71027935    
 -0.841368973       1.06682706     -0.606999993       2021.84460       1.71027935    
 -0.712980986       1.15920806     -0.606999993       2021.84460       1.71027935    
 -0.711889029       1.15749002     -0.303496003       1678.20349       1.71137035    
 -0.712980986       1.15920806     -0.606999993       1678.20349       1.71137035    
 -0.573064029       1.23399496     -0.606999993       1678.20349       1.71137035    
 -0.572302997       1.23206902     -0.303485990       1678.20349       1.71137035    
 -0.711889029       1.15749002     -0.303496003       1792.69238       1.71115470    
 -0.712655008       1.15938199       0.00000000       1792.69238       1.71115470    
 -0.841165006       1.06699395       0.00000000       1792.69238       1.71115470    
 -0.840825975       1.06629205     -0.303485990       1792.69238       1.71115470    
 -0.841165006       1.06699395       0.00000000       2081.12598       1.71041977    
 -0.963320017      0.966744006       0.00000000       2081.12598       1.71041977    
 -0.960084975      0.962615013     -0.303470999       2081.12598       1.71041977    
 -0.840825975       1.06629205     -0.303485990       2081.12598       1.71041977    
 -0.960084975      0.962615013     -0.303470999       2629.46509       1.70906651    
  -1.06383705      0.843237996     -0.303481996       2629.46509       1.70906651    
  -1.06481802      0.843816996     -0.606999993       2629.46509       1.70906651    
 -0.963873982      0.966289997     -0.606999993       2629.46509       1.70906651    
 -0.960084975      0.962615013     -0.303470999       2347.11133       1.70960832    
 -0.963873982      0.966289997     -0.606999993       2347.11133       1.70960832    
 -0.841368973       1.06682706     -0.606999993       2347.11133       1.70960832    
 -0.840825975       1.06629205     -0.303485990       2347.11133       1.70960832    
 -0.960084975      0.962615013     -0.303470999       2335.03198       1.71000278    
 -0.963320017      0.966744006       0.00000000       2335.03198       1.71000278    
  -1.06464398      0.844029009       0.00000000       2335.03198       1.71000278    
  -1.06383705      0.843237996     -0.303481996       2335.03198       1.71000278    
  -1.06464398      0.844029009       0.00000000       2563.87012       1.70958734    
  -1.15769398      0.715813994       0.00000000       2563.87012       1.70958734    
  -1.15564799      0.714680016     -0.303483993       2563.87012       1.70958734    
  -1.06383705      0.843237996     -0.303481996       2563.87012       1.70958734    
  -1.15564799      0.714680016     -0.303483993       3099.87720       1.70854580    
  -1.23108304      0.575536013     -0.303514004       3099.87720       1.70854580    
  -1.23232996      0.576179981     -0.606999993       3099.87720       1.70854580    
  -1.15756094      0.716063023     -0.606999993       3099.87720       1.70854580    
  -1.15564799      0.714680016     -0.303483993       2881.86377       1.70876384    
  -1.15756094      0.716063023     -0.606999993       2881.86377       1.70876384    
  -1.06481802      0.843816996     -0.606999993       2881.86377       1.70876384    
  -1.06383705      0.843237996     -0.303481996       2881.86377       1.70876384    
  -1.15564799      0.714680016     -0.303483993       2759.49121       1.70926738    
  -1.15769398      0.715813994       0.00000000       2759.49121       1.70926738    
  -1.23224795      0.576331973       0.00000000       2759.49121       1.70926738    
  -1.23108304      0.575536013     -0.303514004       2759.49121       1.70926738    
  -1.23224795      0.576331973       0.00000000       2914.63843       1.70904791    
  -1.28948605      0.428772002       0.00000000       2914.63843       1.70904791    
  -1.28842103      0.428404987     -0.303512990       2914.63843       1.70904791    
  -1.23108304      0.575536013     -0.303514004       2914.63843       1.70904791    
  -1.28842103      0.428404987     -0.303512990       3387.28442       1.70757818    
  -1.33082402      0.275959998     -0.303492010       3387.28442       1.70757818    
  -1.33550000      0.277083993     -0.606999993       3387.28442       1.70757818    