 VARIABLES="X" "Y" "Z" "abs(p) (Pa)" "angle(p) (rad)"
ZONE N=   2720,E =    2069, F=FEPOINT, ET=QUADRILATERAL
 -0.767116010      -1.12776399       0.00000000       6.61858892      -1.57216907    
 -0.769354999      -1.12002099     -0.303523988       6.61858892      -1.57216907    
 -0.896136999      -1.02028203     -0.303463012       6.61858892      -1.57216907    
 -0.894908011      -1.02288902       0.00000000       6.61858892      -1.57216907    
 -0.767116010      -1.12776399       0.00000000       7.00512457       1.57237482    
 -0.630888999      -1.20308697       0.00000000       7.00512457       1.57237482    
 -0.635528028      -1.19958198     -0.303541005       7.00512457       1.57237482    
 -0.769354999      -1.12002099     -0.303523988       7.00512457       1.57237482    
 -0.635528028      -1.19958198     -0.303541005       6.71799755      -1.57244766    
 -0.495362997      -1.26606500     -0.303519011       6.71799755      -1.57244766    
 -0.499298006      -1.26809204     -0.606999993       6.71799755      -1.57244766    
 -0.640147984      -1.19813800     -0.606998026       6.71799755      -1.57244766    
 -0.635528028      -1.19958198     -0.303541005       5.63985682       1.57251656    
 -0.640147984      -1.19813800     -0.606998026       5.63985682       1.57251656    
 -0.777105987      -1.11956596     -0.606999993       5.63985682       1.57251656    
 -0.769354999      -1.12002099     -0.303523988       5.63985682       1.57251656    
 -0.635528028      -1.19958198     -0.303541005       5.94407558      -1.57296371    
 -0.630888999      -1.20308697       0.00000000       5.94407558      -1.57296371    
 -0.494486004      -1.26955199       0.00000000       5.94407558      -1.57296371    
 -0.495362997      -1.26606500     -0.303519011       5.94407558      -1.57296371    
 -0.494486004      -1.26955199       0.00000000       5.43770790       1.57340240    
 -0.346311986      -1.31449997       0.00000000       5.43770790       1.57340240    
 -0.346753001      -1.31307304     -0.303510010       5.43770790       1.57340240    
 -0.495362997      -1.26606500     -0.303519011       5.43770790       1.57340240    
 -0.346753001      -1.31307304     -0.303510010      0.359770685      -1.60657299    
 -0.193608001      -1.34425998     -0.303494990      0.359770685      -1.60657299    
 -0.195028007      -1.34579206     -0.606999993      0.359770685      -1.60657299    
 -0.348751009      -1.31376004     -0.606999993      0.359770685      -1.60657299    
 -0.346753001      -1.31307304     -0.303510010       5.79253817       1.57290900    
 -0.348751009      -1.31376004     -0.606999993       5.79253817       1.57290900    
 -0.499298006      -1.26809204     -0.606999993       5.79253817       1.57290900    
 -0.495362997      -1.26606500     -0.303519011       5.79253817       1.57290900    
 -0.346753001      -1.31307304     -0.303510010      0.312279314      -1.61835468    
 -0.346311986      -1.31449997       0.00000000      0.312279314      -1.61835468    
 -0.193381995      -1.34595394       0.00000000      0.312279314      -1.61835468    
 -0.193608001      -1.34425998     -0.303494990      0.312279314      -1.61835468    
 -0.193381995      -1.34595394       0.00000000       3.77592754      -1.57475495    
  -3.75179984E-02  -1.36130500       0.00000000       3.77592754      -1.57475495    
  -3.73950005E-02  -1.35827899     -0.303512007       3.77592754      -1.57475495    
 -0.193608001      -1.34425998     -0.303494990       3.77592754      -1.57475495    
  -3.73950005E-02  -1.35827899     -0.303512007       3.23910975       1.57487273    
  0.119547002      -1.35239303     -0.303498000       3.23910975       1.57487273    
  0.119135000      -1.35326600     -0.606999993       3.23910975       1.57487273    
  -3.82840000E-02  -1.36122894     -0.606998980       3.23910975       1.57487273    
  -3.73950005E-02  -1.35827899     -0.303512007       3.32477450      -1.57478893    
  -3.82840000E-02  -1.36122894     -0.606998980       3.32477450      -1.57478893    
 -0.195028007      -1.34579206     -0.606999993       3.32477450      -1.57478893    
 -0.193608001      -1.34425998     -0.303494990       3.32477450      -1.57478893    
  -3.73950005E-02  -1.35827899     -0.303512007       2.94572496       1.57582307    
  -3.75179984E-02  -1.36130500       0.00000000       2.94572496       1.57582307    
  0.119788997      -1.35320199       0.00000000       2.94572496       1.57582307    
  0.119547002      -1.35239303     -0.303498000       2.94572496       1.57582307    
  0.119788997      -1.35320199       0.00000000       9.57136917      -1.57228231    
  0.276576012      -1.33565402       0.00000000       9.57136917      -1.57228231    
  0.275435001      -1.33191597     -0.303496003       9.57136917      -1.57228231    
  0.119547002      -1.35239303     -0.303498000       9.57136917      -1.57228231    
  0.275435001      -1.33191597     -0.303496003       8.47432899       1.57216442    
  0.427076995      -1.28898001     -0.303507000       8.47432899       1.57216442    
  0.427242011      -1.28995001     -0.606999993       8.47432899       1.57216442    
  0.275831014      -1.33588004     -0.606999993       8.47432899       1.57216442    
  0.275435001      -1.33191597     -0.303496003       9.28202724      -1.57213080    
  0.275831014      -1.33588004     -0.606999993       9.28202724      -1.57213080    
  0.119135000      -1.35326600     -0.606999993       9.28202724      -1.57213080    
  0.119547002      -1.35239303     -0.303498000       9.28202724      -1.57213080    
  0.275435001      -1.33191597     -0.303496003       8.49582767       1.57237089    
  0.276576012      -1.33565402       0.00000000       8.49582767       1.57237089    
  0.427509993      -1.28986895       0.00000000       8.49582767       1.57237089    
  0.427076995      -1.28898001     -0.303507000       8.49582767       1.57237089    
  0.427509993      -1.28986895       0.00000000       1.38943362      -1.57919061    
  0.574636996      -1.23315501       0.00000000       1.38943362      -1.57919061    
  0.573706985      -1.23136795     -0.303485990       1.38943362      -1.57919061    
  0.427076995      -1.28898001     -0.303507000       1.38943362      -1.57919061    
  0.573706985      -1.23136795     -0.303485990       1.23523557      -1.57789993    
  0.712854981      -1.15688002     -0.303496987       1.23523557      -1.57789993    
  0.713809013      -1.15876603     -0.606999993       1.23523557      -1.57789993    
  0.574283004      -1.23334301     -0.606999993       1.23523557      -1.57789993    
  0.573706985      -1.23136795     -0.303485990       1.46504521      -1.57779467    
  0.574283004      -1.23334301     -0.606999993       1.46504521      -1.57779467    
  0.427242011      -1.28995001     -0.606999993       1.46504521      -1.57779467    
  0.427076995      -1.28898001     -0.303507000       1.46504521      -1.57779467    
  0.573706985      -1.23136795     -0.303485990       1.35850298      -1.57809246    
  0.574636996      -1.23315501       0.00000000       1.35850298      -1.57809246    
  0.713741004      -1.15880203       0.00000000       1.35850298      -1.57809246    
  0.712854981      -1.15688002     -0.303496987       1.35850298      -1.57809246    
  0.713741004      -1.15880203       0.00000000       2.01237893       1.57472408    
  0.841937006      -1.06636095       0.00000000       2.01237893       1.57472408    
  0.841498017      -1.06573403     -0.303485990       2.01237893       1.57472408    
  0.712854981      -1.15688002     -0.303496987       2.01237893       1.57472408    
  0.841498017      -1.06573403     -0.303485990       8.91247463      -1.57135963    
  0.960639000     -0.962104976     -0.303470999       8.91247463      -1.57135963    
  0.964356005     -0.965893984     -0.606999993       8.91247463      -1.57135963    
  0.841796994      -1.06647599     -0.606999993       8.91247463      -1.57135963    
  0.841498017      -1.06573403     -0.303485990       2.21635723       1.57393622    
  0.841796994      -1.06647599     -0.606999993       2.21635723       1.57393622    
  0.713809013      -1.15876603     -0.606999993       2.21635723       1.57393622    
  0.712854981      -1.15688002     -0.303496987       2.21635723       1.57393622    
  0.841498017      -1.06573403     -0.303485990       9.07759571      -1.57143354    
  0.841937006      -1.06636095       0.00000000       9.07759571      -1.57143354    
  0.963932991     -0.966242015       0.00000000       9.07759571      -1.57143354    
  0.960639000     -0.962104976     -0.303470999       9.07759571      -1.57143354    
  0.963932991     -0.966242015       0.00000000       9.89073563       1.57118344    
   1.06506598     -0.843514979       0.00000000       9.89073563       1.57118344    
   1.06428695     -0.842682004     -0.303481996       9.89073563       1.57118344    
  0.960639000     -0.962104976     -0.303470999       9.89073563       1.57118344    
   1.06428695     -0.842682004     -0.303481996       2.81427932      -1.57128012    
   1.15591598     -0.714210987     -0.303485006       2.81427932      -1.57128012    
   1.15788805     -0.715448976     -0.606999993       2.81427932      -1.57128012    
   1.06537795     -0.843134999     -0.606999993       2.81427932      -1.57128012    
   1.06428695     -0.842682004     -0.303481996       9.65817356       1.57112849    
   1.06537795     -0.843134999     -0.606999993       9.65817356       1.57112849    
  0.964356005     -0.965893984     -0.606999993       9.65817356       1.57112849    
  0.960639000     -0.962104976     -0.303470999       9.65817356       1.57112849    
   1.06428695     -0.842682004     -0.303481996       2.64404655      -1.57138729    
   1.06506598     -0.843514979       0.00000000       2.64404655      -1.57138729    
   1.15792501     -0.715381980       0.00000000       2.64404655      -1.57138729    
   1.15591598     -0.714210987     -0.303485006       2.64404655      -1.57138729    
   1.15792501     -0.715381980       0.00000000      0.829016149       1.57029569    
   1.23237598     -0.576093972       0.00000000      0.829016149       1.57029569    
   1.23120904     -0.575251997     -0.303514004      0.829016149       1.57029569    
   1.15591598     -0.714210987     -0.303485006      0.829016149       1.57029569    
   1.23120904     -0.575251997     -0.303514004       2.48603797       1.57007086    
   1.28844094     -0.428344995     -0.303512990       2.48603797       1.57007086    
   1.28952503     -0.428642988     -0.606999993       2.48603797       1.57007086    
   1.23252702     -0.575810015     -0.606999993       2.48603797       1.57007086    
   1.23120904     -0.575251997     -0.303514004      0.734327197       1.57032239    
   1.23252702     -0.575810015     -0.606999993      0.734327197       1.57032239    
   1.15788805     -0.715448976     -0.606999993      0.734327197       1.57032239    
   1.15591598     -0.714210987     -0.303485006      0.734327197       1.57032239    
   1.23120904     -0.575251997     -0.303514004       2.47348785       1.57000983    
   1.23237598     -0.576093972       0.00000000       2.47348785       1.57000983    
   1.28947699     -0.428801000       0.00000000       2.47348785       1.57000983    
   1.28844094     -0.428344995     -0.303512990       2.47348785       1.57000983    
   1.28947699     -0.428801000       0.00000000       7.07843685      -1.57031322    
   1.33532202     -0.277671993       0.00000000       7.07843685      -1.57031322    
   1.33076501     -0.276203990     -0.303492010       7.07843685      -1.57031322    
   1.28844094     -0.428344995     -0.303512990       7.07843685      -1.57031322    
   1.33076501     -0.276203990     -0.303492010       7.69844580       1.57029235    
   1.35229194     -0.119709998     -0.303514004       7.69844580       1.57029235    
   1.35321999     -0.119608998     -0.606999993       7.69844580       1.57029235    
   1.33549094     -0.277112991     -0.606999993       7.69844580       1.57029235    
   1.33076501     -0.276203990     -0.303492010       7.07554245      -1.57036543    
   1.33549094     -0.277112991     -0.606999993       7.07554245      -1.57036543    
   1.28952503     -0.428642988     -0.606999993       7.07554245      -1.57036543    
   1.28844094     -0.428344995     -0.303512990       7.07554245      -1.57036543    
   1.33076501     -0.276203990     -0.303492010       7.89939928       1.57025635    
   1.33532202     -0.277671993       0.00000000       7.89939928       1.57025635    
   1.35319102     -0.119900003       0.00000000       7.89939928       1.57025635    
   1.35229194     -0.119709998     -0.303514004       7.89939928       1.57025635    
   1.35319102     -0.119900003       0.00000000       4.44076633      -1.56969655    
   1.36124396       3.81390005E-02   0.00000000       4.44076633      -1.56969655    
   1.35858905       3.79349999E-02 -0.303501010       4.44076633      -1.56969655    
   1.35229194     -0.119709998     -0.303514004       4.44076633      -1.56969655    
   1.35858905       3.79349999E-02 -0.303501010       2.75887012       1.56914639    
   1.34464097      0.195331007     -0.303496003       2.75887012       1.56914639    
   1.34573400      0.195616007     -0.606999993       2.75887012       1.56914639    
   1.36126804       3.78950015E-02 -0.606999993       2.75887012       1.56914639    
   1.35858905       3.79349999E-02 -0.303501010       4.59768009      -1.56981909    
   1.36126804       3.78950015E-02 -0.606999993       4.59768009      -1.56981909    
   1.35321999     -0.119608998     -0.606999993       4.59768009      -1.56981909    
   1.35229194     -0.119709998     -0.303514004       4.59768009      -1.56981909    
   1.35858905       3.79349999E-02 -0.303501010       2.94199586       1.56909359    
   1.36124396       3.81390005E-02   0.00000000       2.94199586       1.56909359    
   1.34575403      0.195406005       0.00000000       2.94199586       1.56909359    
   1.34464097      0.195331007     -0.303496003       2.94199586       1.56909359    
   1.34575403      0.195406005       0.00000000       1.67364693       1.56796956    
   1.31339800      0.349945009       0.00000000       1.67364693       1.56796956    
   1.31216300      0.349725991     -0.303487003       1.67364693       1.56796956    
   1.34464097      0.195331007     -0.303496003       1.67364693       1.56796956    
   1.31216300      0.349725991     -0.303487003       5.19799519      -1.57006335    
   1.26341999      0.500032008     -0.303494006       5.19799519      -1.57006335    
   1.26736605      0.501691997     -0.606999993       5.19799519      -1.57006335    
   1.31333196      0.350163996     -0.606999993       5.19799519      -1.57006335    
   1.31216300      0.349725991     -0.303487003       1.59883165       1.56809664    
   1.31333196      0.350163996     -0.606999993       1.59883165       1.56809664    
   1.34573400      0.195616007     -0.606999993       1.59883165       1.56809664    
   1.34464097      0.195331007     -0.303496003       1.59883165       1.56809664    
   1.31216300      0.349725991     -0.303487003       5.24951696      -1.56998932    
   1.31339800      0.349945009       0.00000000       5.24951696      -1.56998932    
   1.26751196      0.501209974       0.00000000       5.24951696      -1.56998932    
   1.26341999      0.500032008     -0.303494006       5.24951696      -1.56998932    
   1.26751196      0.501209974       0.00000000       5.51435661       1.57024491    
   1.19658697      0.643051028       0.00000000       5.51435661       1.57024491    
   1.19583094      0.642783999     -0.303505003       5.51435661       1.57024491    
   1.26341999      0.500032008     -0.303494006       5.51435661       1.57024491    
   1.19583094      0.642783999     -0.303505003       6.75564671      -1.57057273    
   1.11495602      0.778467000     -0.303483993       6.75564671      -1.57057273    
   1.11731696      0.779847026     -0.606999993       6.75564671      -1.57057273    
   1.19653296      0.643149972     -0.606999993       6.75564671      -1.57057273    
   1.19583094      0.642783999     -0.303505003       5.58878803       1.57028246    
   1.19653296      0.643149972     -0.606999993       5.58878803       1.57028246    
   1.26736605      0.501691997     -0.606999993       5.58878803       1.57028246    
   1.26341999      0.500032008     -0.303494006       5.58878803       1.57028246    
   1.19583094      0.642783999     -0.303505003       6.84370565      -1.57053220    
   1.19658697      0.643051028       0.00000000       6.84370565      -1.57053220    
   1.11705506      0.780165970       0.00000000       6.84370565      -1.57053220    
   1.11495602      0.778467000     -0.303483993       6.84370565      -1.57053220    
   1.11705506      0.780165970       0.00000000       5.53220654       1.57075036    
   1.01674199      0.902397990       0.00000000       5.53220654       1.57075036    
   1.01591504      0.901737988     -0.303478003       5.53220654       1.57075036    
   1.11495602      0.778467000     -0.303483993       5.53220654       1.57075036    
   1.01591504      0.901737988     -0.303478003      0.826889813       1.57228756    
  0.904204011       1.01322901     -0.303456992      0.826889813       1.57228756    
  0.905143023       1.01448905     -0.606999993      0.826889813       1.57228756    
   1.01659799      0.902572989     -0.606999993      0.826889813       1.57228756    
   1.01591504      0.901737988     -0.303478003       5.40064716       1.57076287    
   1.01659799      0.902572989     -0.606999993       5.40064716       1.57076287    
   1.11731696      0.779847026     -0.606999993       5.40064716       1.57076287    
   1.11495602      0.778467000     -0.303483993       5.40064716       1.57076287    
   1.01591504      0.901737988     -0.303478003      0.902573466       1.57223749    
   1.01674199      0.902397990       0.00000000      0.902573466       1.57223749    
  0.905318975       1.01434398       0.00000000      0.902573466       1.57223749    
  0.904204011       1.01322901     -0.303456992      0.902573466       1.57223749    
  0.905318975       1.01434398       0.00000000       3.82925391      -1.57162464    
  0.782918990       1.11479497       0.00000000       3.82925391      -1.57162464    
  0.780644000       1.11195600     -0.303485006       3.82925391      -1.57162464    
  0.904204011       1.01322901     -0.303456992       3.82925391      -1.57162464    
  0.780644000       1.11195600     -0.303485006       4.24514389       1.57176018    
  0.645825028       1.19414902     -0.303514004       4.24514389       1.57176018    
  0.646153986       1.19492805     -0.606999993       4.24514389       1.57176018    
  0.782611012       1.11504900     -0.606999993       4.24514389       1.57176018    
  0.780644000       1.11195600     -0.303485006       3.75143075      -1.57150638    
  0.782611012       1.11504900     -0.606999993       3.75143075      -1.57150638    
  0.905143023       1.01448905     -0.606999993       3.75143075      -1.57150638    
  0.904204011       1.01322901     -0.303456992       3.75143075      -1.57150638    
  0.780644000       1.11195600     -0.303485006       4.08906031       1.57195807    
  0.782918990       1.11479497       0.00000000       4.08906031       1.57195807    
  0.646345019       1.19482601       0.00000000       4.08906031       1.57195807    
  0.645825028       1.19414902     -0.303514004       4.08906031       1.57195807    
  0.646345019       1.19482601       0.00000000       8.28049374      -1.57150745    
  0.504974008       1.26637006       0.00000000       8.28049374      -1.57150745    
  0.503772974       1.26314998     -0.303521991       8.28049374      -1.57150745    
  0.645825028       1.19414902     -0.303514004       8.28049374      -1.57150745    
  0.503772974       1.26314998     -0.303521991       7.22703314       1.57170415    
  0.353130996       1.31116498     -0.303510994       7.22703314       1.57170415    
  0.353300005       1.31237996     -0.606999993       7.22703314       1.57170415    
  0.505183995       1.26630700     -0.606999993       7.22703314       1.57170415    
  0.503772974       1.26314998     -0.303521991       8.09997845      -1.57145905    
  0.505183995       1.26630700     -0.606999993       8.09997845      -1.57145905    
  0.646153986       1.19492805     -0.606999993       8.09997845      -1.57145905    
  0.645825028       1.19414902     -0.303514004       8.09997845      -1.57145905    
  0.503772974       1.26314998     -0.303521991       7.33924055       1.57178938    
  0.504974008       1.26637006       0.00000000       7.33924055       1.57178938    
  0.353493989       1.31232095       0.00000000       7.33924055       1.57178938    
  0.353130996       1.31116498     -0.303510994       7.33924055       1.57178938    
  0.353493989       1.31232095       0.00000000      0.829144180      -1.58075726    
  0.199064001       1.34539402       0.00000000      0.829144180      -1.58075726    
  0.198755994       1.34360003     -0.303496003      0.829144180      -1.58075726    
  0.353130996       1.31116498     -0.303510994      0.829144180      -1.58075726    
  0.198755994       1.34360003     -0.303496003       2.77105403      -1.57360983    
   4.12769988E-02   1.35817802     -0.303508013       2.77105403      -1.57360983    
   4.12410013E-02   1.36093795     -0.606999993       2.77105403      -1.57360983    
  0.199025005       1.34539795     -0.606999993       2.77105403      -1.57360983    
  0.198755994       1.34360003     -0.303496003      0.817609966      -1.57989335    
  0.199025005       1.34539795     -0.606999993      0.817609966      -1.57989335    
  0.353300005       1.31237996     -0.606999993      0.817609966      -1.57989335    
  0.353130996       1.31116498     -0.303510994      0.817609966      -1.57989335    
  0.198755994       1.34360003     -0.303496003       2.99278855      -1.57381833    
  0.199064001       1.34539402       0.00000000       2.99278855      -1.57381833    
   4.17769998E-02   1.36088502       0.00000000       2.99278855      -1.57381833    
   4.12769988E-02   1.35817802     -0.303508013       2.99278855      -1.57381833    
   4.17769998E-02   1.36088502       0.00000000       2.54829240       1.57454062    
 -0.116410002       1.35353506       0.00000000       2.54829240       1.57454062    
 -0.116471998       1.35271096     -0.303496987       2.54829240       1.57454062    
   4.12769988E-02   1.35817802     -0.303508013       2.54829240       1.57454062    
 -0.116471998       1.35271096     -0.303496987       9.23189354      -1.57167768    
 -0.273027003       1.33229196     -0.303496003       9.23189354      -1.57167768    
 -0.273876995       1.33647299     -0.606999993       9.23189354      -1.57167768    
 -0.116722003       1.35350394     -0.606999993       9.23189354      -1.57167768    
 -0.116471998       1.35271096     -0.303496987       2.95560503       1.57356822    
 -0.116722003       1.35350394     -0.606999993       2.95560503       1.57356822    
   4.12410013E-02   1.36093795     -0.606999993       2.95560503       1.57356822    
   4.12769988E-02   1.35817802     -0.303508013       2.95560503       1.57356822    
 -0.116471998       1.35271096     -0.303496987       9.59760284      -1.57178974    
 -0.116410002       1.35353506       0.00000000       9.59760284      -1.57178974    
 -0.274069011       1.33641505       0.00000000       9.59760284      -1.57178974    
 -0.273027003       1.33229196     -0.303496003       9.59760284      -1.57178974    
 -0.274069011       1.33641505       0.00000000       8.71789265       1.57186246    
 -0.425588995       1.29045200       0.00000000       8.71789265       1.57186246    
 -0.425258011       1.28953803     -0.303507000       8.71789265       1.57186246    
 -0.273027003       1.33229196     -0.303496003       8.71789265       1.57186246    
 -0.425258011       1.28953803     -0.303507000       1.64276171      -1.57504809    
 -0.572302997       1.23206902     -0.303485990       1.64276171      -1.57504809    
 -0.573064029       1.23399496     -0.606999993       1.64276171      -1.57504809    
 -0.425651014       1.29043305     -0.606999993       1.64276171      -1.57504809    
 -0.425258011       1.28953803     -0.303507000       8.61751461       1.57170475    
 -0.425651014       1.29043305     -0.606999993       8.61751461       1.57170475    
 -0.273876995       1.33647299     -0.606999993       8.61751461       1.57170475    
 -0.273027003       1.33229196     -0.303496003       8.61751461       1.57170475    
 -0.425258011       1.28953803     -0.303507000       1.56108034      -1.57605314    
 -0.425588995       1.29045200       0.00000000       1.56108034      -1.57605314    
 -0.573195994       1.23392498       0.00000000       1.56108034      -1.57605314    
 -0.572302997       1.23206902     -0.303485990       1.56108034      -1.57605314    
 -0.573195994       1.23392498       0.00000000       1.07583904      -1.57730484    
 -0.712655008       1.15938199       0.00000000       1.07583904      -1.57730484    
 -0.711889029       1.15749002     -0.303496003       1.07583904      -1.57730484    
 -0.572302997       1.23206902     -0.303485990       1.07583904      -1.57730484    
 -0.711889029       1.15749002     -0.303496003       2.23535132       1.57293379    
 -0.840825975       1.06629205     -0.303485990       2.23535132       1.57293379    
 -0.841368973       1.06682706     -0.606999993       2.23535132       1.57293379    
 -0.712980986       1.15920806     -0.606999993       2.23535132       1.57293379    
 -0.711889029       1.15749002     -0.303496003       1.01163948      -1.57675648    
 -0.712980986       1.15920806     -0.606999993       1.01163948      -1.57675648    
 -0.573064029       1.23399496     -0.606999993       1.01163948      -1.57675648    
 -0.572302997       1.23206902     -0.303485990       1.01163948      -1.57675648    
 -0.711889029       1.15749002     -0.303496003       2.02817082       1.57359421    
 -0.712655008       1.15938199       0.00000000       2.02817082       1.57359421    
 -0.841165006       1.06699395       0.00000000       2.02817082       1.57359421    
 -0.840825975       1.06629205     -0.303485990       2.02817082       1.57359421    
 -0.841165006       1.06699395       0.00000000       8.94452286      -1.57123005    
 -0.963320017      0.966744006       0.00000000       8.94452286      -1.57123005    
 -0.960084975      0.962615013     -0.303470999       8.94452286      -1.57123005    
 -0.840825975       1.06629205     -0.303485990       8.94452286      -1.57123005    
 -0.960084975      0.962615013     -0.303470999       9.63918400       1.57099569    
  -1.06383705      0.843237996     -0.303481996       9.63918400       1.57099569    
  -1.06481802      0.843816996     -0.606999993       9.63918400       1.57099569    
 -0.963873982      0.966289997     -0.606999993       9.63918400       1.57099569    
 -0.960084975      0.962615013     -0.303470999       8.81586647      -1.57116508    
 -0.963873982      0.966289997     -0.606999993       8.81586647      -1.57116508    
 -0.841368973       1.06682706     -0.606999993       8.81586647      -1.57116508    
 -0.840825975       1.06629205     -0.303485990       8.81586647      -1.57116508    
 -0.960084975      0.962615013     -0.303470999       9.84184265       1.57104504    
 -0.963320017      0.966744006       0.00000000       9.84184265       1.57104504    
  -1.06464398      0.844029009       0.00000000       9.84184265       1.57104504    
  -1.06383705      0.843237996     -0.303481996       9.84184265       1.57104504    
  -1.06464398      0.844029009       0.00000000       2.79556704      -1.57099915    
  -1.15769398      0.715813994       0.00000000       2.79556704      -1.57099915    
  -1.15564799      0.714680016     -0.303483993       2.79556704      -1.57099915    
  -1.06383705      0.843237996     -0.303481996       2.79556704      -1.57099915    
  -1.15564799      0.714680016     -0.303483993      0.804425657       1.56972528    
  -1.23108304      0.575536013     -0.303514004      0.804425657       1.56972528    
  -1.23232996      0.576179981     -0.606999993      0.804425657       1.56972528    
  -1.15756094      0.716063023     -0.606999993      0.804425657       1.56972528    
  -1.15564799      0.714680016     -0.303483993       2.97541690      -1.57091308    
  -1.15756094      0.716063023     -0.606999993       2.97541690      -1.57091308    
  -1.06481802      0.843816996     -0.606999993       2.97541690      -1.57091308    
  -1.06383705      0.843237996     -0.303481996       2.97541690      -1.57091308    
  -1.15564799      0.714680016     -0.303483993      0.883695483       1.56981111    
  -1.15769398      0.715813994       0.00000000      0.883695483       1.56981111    
  -1.23224795      0.576331973       0.00000000      0.883695483       1.56981111    
  -1.23108304      0.575536013     -0.303514004      0.883695483       1.56981111    
  -1.23224795      0.576331973       0.00000000       2.47210336       1.56995904    
  -1.28948605      0.428772002       0.00000000       2.47210336       1.56995904    
  -1.28842103      0.428404987     -0.303512990       2.47210336       1.56995904    
  -1.23108304      0.575536013     -0.303514004       2.47210336       1.56995904    
  -1.28842103      0.428404987     -0.303512990       7.03102255      -1.57038546    
  -1.33082402      0.275959998     -0.303492010       7.03102255      -1.57038546    
  -1.33550000      0.277083993     -0.606999993       7.03102255      -1.57038546    