 VARIABLES="X" "Y" "Z" "abs(p) (Pa)" "angle(p) (rad)"
ZONE N=   2720,E =    2069, F=FEPOINT, ET=QUADRILATERAL
 -0.767116010      -1.12776399       0.00000000       1844.24634       1.64951432    
 -0.769354999      -1.12002099     -0.303523988       1844.24634       1.64951432    
 -0.896136999      -1.02028203     -0.303463012       1844.24634       1.64951432    
 -0.894908011      -1.02288902       0.00000000       1844.24634       1.64951432    
 -0.767116010      -1.12776399       0.00000000       2094.16724       1.64928281    
 -0.630888999      -1.20308697       0.00000000       2094.16724       1.64928281    
 -0.635528028      -1.19958198     -0.303541005       2094.16724       1.64928281    
 -0.769354999      -1.12002099     -0.303523988       2094.16724       1.64928281    
 -0.635528028      -1.19958198     -0.303541005       728.884521       1.64590061    
 -0.495362997      -1.26606500     -0.303519011       728.884521       1.64590061    
 -0.499298006      -1.26809204     -0.606999993       728.884521       1.64590061    
 -0.640147984      -1.19813800     -0.606998026       728.884521       1.64590061    
 -0.635528028      -1.19958198     -0.303541005       670.849609       1.64448512    
 -0.640147984      -1.19813800     -0.606998026       670.849609       1.64448512    
 -0.777105987      -1.11956596     -0.606999993       670.849609       1.64448512    
 -0.769354999      -1.12002099     -0.303523988       670.849609       1.64448512    
 -0.635528028      -1.19958198     -0.303541005       2373.51758       1.64692175    
 -0.630888999      -1.20308697       0.00000000       2373.51758       1.64692175    
 -0.494486004      -1.26955199       0.00000000       2373.51758       1.64692175    
 -0.495362997      -1.26606500     -0.303519011       2373.51758       1.64692175    
 -0.494486004      -1.26955199       0.00000000       2569.41772       1.64698315    
 -0.346311986      -1.31449997       0.00000000       2569.41772       1.64698315    
 -0.346753001      -1.31307304     -0.303510010       2569.41772       1.64698315    
 -0.495362997      -1.26606500     -0.303519011       2569.41772       1.64698315    
 -0.346753001      -1.31307304     -0.303510010       814.273682       1.64758766    
 -0.193608001      -1.34425998     -0.303494990       814.273682       1.64758766    
 -0.195028007      -1.34579206     -0.606999993       814.273682       1.64758766    
 -0.348751009      -1.31376004     -0.606999993       814.273682       1.64758766    
 -0.346753001      -1.31307304     -0.303510010       776.683533       1.64691472    
 -0.348751009      -1.31376004     -0.606999993       776.683533       1.64691472    
 -0.499298006      -1.26809204     -0.606999993       776.683533       1.64691472    
 -0.495362997      -1.26606500     -0.303519011       776.683533       1.64691472    
 -0.346753001      -1.31307304     -0.303510010       2723.99292       1.64706862    
 -0.346311986      -1.31449997       0.00000000       2723.99292       1.64706862    
 -0.193381995      -1.34595394       0.00000000       2723.99292       1.64706862    
 -0.193608001      -1.34425998     -0.303494990       2723.99292       1.64706862    
 -0.193381995      -1.34595394       0.00000000       2798.13477       1.64892972    
  -3.75179984E-02  -1.36130500       0.00000000       2798.13477       1.64892972    
  -3.73950005E-02  -1.35827899     -0.303512007       2798.13477       1.64892972    
 -0.193608001      -1.34425998     -0.303494990       2798.13477       1.64892972    
  -3.73950005E-02  -1.35827899     -0.303512007       854.163330       1.64855003    
  0.119547002      -1.35239303     -0.303498000       854.163330       1.64855003    
  0.119135000      -1.35326600     -0.606999993       854.163330       1.64855003    
  -3.82840000E-02  -1.36122894     -0.606998980       854.163330       1.64855003    
  -3.73950005E-02  -1.35827899     -0.303512007       832.054993       1.64907289    
  -3.82840000E-02  -1.36122894     -0.606998980       832.054993       1.64907289    
 -0.195028007      -1.34579206     -0.606999993       832.054993       1.64907289    
 -0.193608001      -1.34425998     -0.303494990       832.054993       1.64907289    
  -3.73950005E-02  -1.35827899     -0.303512007       2849.99561       1.64898455    
  -3.75179984E-02  -1.36130500       0.00000000       2849.99561       1.64898455    
  0.119788997      -1.35320199       0.00000000       2849.99561       1.64898455    
  0.119547002      -1.35239303     -0.303498000       2849.99561       1.64898455    
  0.119788997      -1.35320199       0.00000000       2878.59082       1.64935172    
  0.276576012      -1.33565402       0.00000000       2878.59082       1.64935172    
  0.275435001      -1.33191597     -0.303496003       2878.59082       1.64935172    
  0.119547002      -1.35239303     -0.303498000       2878.59082       1.64935172    
  0.275435001      -1.33191597     -0.303496003       767.512451       1.65760303    
  0.427076995      -1.28898001     -0.303507000       767.512451       1.65760303    
  0.427242011      -1.28995001     -0.606999993       767.512451       1.65760303    
  0.275831014      -1.33588004     -0.606999993       767.512451       1.65760303    
  0.275435001      -1.33191597     -0.303496003       770.365967       1.65777230    
  0.275831014      -1.33588004     -0.606999993       770.365967       1.65777230    
  0.119135000      -1.35326600     -0.606999993       770.365967       1.65777230    
  0.119547002      -1.35239303     -0.303498000       770.365967       1.65777230    
  0.275435001      -1.33191597     -0.303496003       2860.85107       1.64943898    
  0.276576012      -1.33565402       0.00000000       2860.85107       1.64943898    
  0.427509993      -1.28986895       0.00000000       2860.85107       1.64943898    
  0.427076995      -1.28898001     -0.303507000       2860.85107       1.64943898    
  0.427509993      -1.28986895       0.00000000       2776.85571       1.64926839    
  0.574636996      -1.23315501       0.00000000       2776.85571       1.64926839    
  0.573706985      -1.23136795     -0.303485990       2776.85571       1.64926839    
  0.427076995      -1.28898001     -0.303507000       2776.85571       1.64926839    
  0.573706985      -1.23136795     -0.303485990       744.928650       1.65664351    
  0.712854981      -1.15688002     -0.303496987       744.928650       1.65664351    
  0.713809013      -1.15876603     -0.606999993       744.928650       1.65664351    
  0.574283004      -1.23334301     -0.606999993       744.928650       1.65664351    
  0.573706985      -1.23136795     -0.303485990       754.765503       1.65743101    
  0.574283004      -1.23334301     -0.606999993       754.765503       1.65743101    
  0.427242011      -1.28995001     -0.606999993       754.765503       1.65743101    
  0.427076995      -1.28898001     -0.303507000       754.765503       1.65743101    
  0.573706985      -1.23136795     -0.303485990       2703.43091       1.64911997    
  0.574636996      -1.23315501       0.00000000       2703.43091       1.64911997    
  0.713741004      -1.15880203       0.00000000       2703.43091       1.64911997    
  0.712854981      -1.15688002     -0.303496987       2703.43091       1.64911997    
  0.713741004      -1.15880203       0.00000000       2606.33472       1.64918220    
  0.841937006      -1.06636095       0.00000000       2606.33472       1.64918220    
  0.841498017      -1.06573403     -0.303485990       2606.33472       1.64918220    
  0.712854981      -1.15688002     -0.303496987       2606.33472       1.64918220    
  0.841498017      -1.06573403     -0.303485990       714.935120       1.65437961    
  0.960639000     -0.962104976     -0.303470999       714.935120       1.65437961    
  0.964356005     -0.965893984     -0.606999993       714.935120       1.65437961    
  0.841796994      -1.06647599     -0.606999993       714.935120       1.65437961    
  0.841498017      -1.06573403     -0.303485990       735.527161       1.65497863    
  0.841796994      -1.06647599     -0.606999993       735.527161       1.65497863    
  0.713809013      -1.15876603     -0.606999993       735.527161       1.65497863    
  0.712854981      -1.15688002     -0.303496987       735.527161       1.65497863    
  0.841498017      -1.06573403     -0.303485990       2535.65918       1.64997578    
  0.841937006      -1.06636095       0.00000000       2535.65918       1.64997578    
  0.963932991     -0.966242015       0.00000000       2535.65918       1.64997578    
  0.960639000     -0.962104976     -0.303470999       2535.65918       1.64997578    
  0.963932991     -0.966242015       0.00000000       2421.54785       1.65014720    
   1.06506598     -0.843514979       0.00000000       2421.54785       1.65014720    
   1.06428695     -0.842682004     -0.303481996       2421.54785       1.65014720    
  0.960639000     -0.962104976     -0.303470999       2421.54785       1.65014720    
   1.06428695     -0.842682004     -0.303481996       551.667480       1.66693723    
   1.15591598     -0.714210987     -0.303485006       551.667480       1.66693723    
   1.15788805     -0.715448976     -0.606999993       551.667480       1.66693723    
   1.06537795     -0.843134999     -0.606999993       551.667480       1.66693723    
   1.06428695     -0.842682004     -0.303481996       685.696289       1.65378392    
   1.06537795     -0.843134999     -0.606999993       685.696289       1.65378392    
  0.964356005     -0.965893984     -0.606999993       685.696289       1.65378392    
  0.960639000     -0.962104976     -0.303470999       685.696289       1.65378392    
   1.06428695     -0.842682004     -0.303481996       2223.63916       1.65020490    
   1.06506598     -0.843514979       0.00000000       2223.63916       1.65020490    
   1.15792501     -0.715381980       0.00000000       2223.63916       1.65020490    
   1.15591598     -0.714210987     -0.303485006       2223.63916       1.65020490    
   1.15792501     -0.715381980       0.00000000       2053.97754       1.65015006    
   1.23237598     -0.576093972       0.00000000       2053.97754       1.65015006    
   1.23120904     -0.575251997     -0.303514004       2053.97754       1.65015006    
   1.15591598     -0.714210987     -0.303485006       2053.97754       1.65015006    
   1.23120904     -0.575251997     -0.303514004       459.122772       1.66684663    
   1.28844094     -0.428344995     -0.303512990       459.122772       1.66684663    
   1.28952503     -0.428642988     -0.606999993       459.122772       1.66684663    
   1.23252702     -0.575810015     -0.606999993       459.122772       1.66684663    
   1.23120904     -0.575251997     -0.303514004       511.575928       1.66667223    
   1.23252702     -0.575810015     -0.606999993       511.575928       1.66667223    
   1.15788805     -0.715448976     -0.606999993       511.575928       1.66667223    
   1.15591598     -0.714210987     -0.303485006       511.575928       1.66667223    
   1.23120904     -0.575251997     -0.303514004       1740.60303       1.65440571    
   1.23237598     -0.576093972       0.00000000       1740.60303       1.65440571    
   1.28947699     -0.428801000       0.00000000       1740.60303       1.65440571    
   1.28844094     -0.428344995     -0.303512990       1740.60303       1.65440571    
   1.28947699     -0.428801000       0.00000000       1548.71716       1.65309870    
   1.33532202     -0.277671993       0.00000000       1548.71716       1.65309870    
   1.33076501     -0.276203990     -0.303492010       1548.71716       1.65309870    
   1.28844094     -0.428344995     -0.303512990       1548.71716       1.65309870    
   1.33076501     -0.276203990     -0.303492010       201.922897       1.73401833    
   1.35229194     -0.119709998     -0.303514004       201.922897       1.73401833    
   1.35321999     -0.119608998     -0.606999993       201.922897       1.73401833    
   1.33549094     -0.277112991     -0.606999993       201.922897       1.73401833    
   1.33076501     -0.276203990     -0.303492010       391.498810       1.66929555    
   1.33549094     -0.277112991     -0.606999993       391.498810       1.66929555    
   1.28952503     -0.428642988     -0.606999993       391.498810       1.66929555    
   1.28844094     -0.428344995     -0.303512990       391.498810       1.66929555    
   1.33076501     -0.276203990     -0.303492010       1397.63550       1.64741778    
   1.33532202     -0.277671993       0.00000000       1397.63550       1.64741778    
   1.35319102     -0.119900003       0.00000000       1397.63550       1.64741778    
   1.35229194     -0.119709998     -0.303514004       1397.63550       1.64741778    
   1.35319102     -0.119900003       0.00000000       1115.39062       1.64587617    
   1.36124396       3.81390005E-02   0.00000000       1115.39062       1.64587617    
   1.35858905       3.79349999E-02 -0.303501010       1115.39062       1.64587617    
   1.35229194     -0.119709998     -0.303514004       1115.39062       1.64587617    
   1.35858905       3.79349999E-02 -0.303501010       159.300598       1.69852209    
   1.34464097      0.195331007     -0.303496003       159.300598       1.69852209    
   1.34573400      0.195616007     -0.606999993       159.300598       1.69852209    
   1.36126804       3.78950015E-02 -0.606999993       159.300598       1.69852209    
   1.35858905       3.79349999E-02 -0.303501010       231.609116       1.68592560    
   1.36126804       3.78950015E-02 -0.606999993       231.609116       1.68592560    
   1.35321999     -0.119608998     -0.606999993       231.609116       1.68592560    
   1.35229194     -0.119709998     -0.303514004       231.609116       1.68592560    
   1.35858905       3.79349999E-02 -0.303501010       713.435852       1.65653276    
   1.36124396       3.81390005E-02   0.00000000       713.435852       1.65653276    
   1.34575403      0.195406005       0.00000000       713.435852       1.65653276    
   1.34464097      0.195331007     -0.303496003       713.435852       1.65653276    
   1.34575403      0.195406005       0.00000000       430.282562       1.65725422    
   1.31339800      0.349945009       0.00000000       430.282562       1.65725422    
   1.31216300      0.349725991     -0.303487003       430.282562       1.65725422    
   1.34464097      0.195331007     -0.303496003       430.282562       1.65725422    
   1.31216300      0.349725991     -0.303487003       35.8527184       1.75391471    
   1.26341999      0.500032008     -0.303494006       35.8527184       1.75391471    
   1.26736605      0.501691997     -0.606999993       35.8527184       1.75391471    
   1.31333196      0.350163996     -0.606999993       35.8527184       1.75391471    
   1.31216300      0.349725991     -0.303487003       85.5883560       1.72936249    
   1.31333196      0.350163996     -0.606999993       85.5883560       1.72936249    
   1.34573400      0.195616007     -0.606999993       85.5883560       1.72936249    
   1.34464097      0.195331007     -0.303496003       85.5883560       1.72936249    
   1.31216300      0.349725991     -0.303487003       145.827866       1.65983868    
   1.31339800      0.349945009       0.00000000       145.827866       1.65983868    
   1.26751196      0.501209974       0.00000000       145.827866       1.65983868    
   1.26341999      0.500032008     -0.303494006       145.827866       1.65983868    
   1.26751196      0.501209974       0.00000000       11.3948250     -0.337060571    
   1.19658697      0.643051028       0.00000000       11.3948250     -0.337060571    
   1.19583094      0.642783999     -0.303505003       11.3948250     -0.337060571    
   1.26341999      0.500032008     -0.303494006       11.3948250     -0.337060571    
   1.19583094      0.642783999     -0.303505003       49.4012718      -1.42017663    
   1.11495602      0.778467000     -0.303483993       49.4012718      -1.42017663    
   1.11731696      0.779847026     -0.606999993       49.4012718      -1.42017663    
   1.19653296      0.643149972     -0.606999993       49.4012718      -1.42017663    
   1.19583094      0.642783999     -0.303505003       37.1541138      -1.56292558    
   1.19653296      0.643149972     -0.606999993       37.1541138      -1.56292558    
   1.26736605      0.501691997     -0.606999993       37.1541138      -1.56292558    
   1.26341999      0.500032008     -0.303494006       37.1541138      -1.56292558    
   1.19583094      0.642783999     -0.303505003       298.336365      -1.45220196    
   1.19658697      0.643051028       0.00000000       298.336365      -1.45220196    
   1.11705506      0.780165970       0.00000000       298.336365      -1.45220196    
   1.11495602      0.778467000     -0.303483993       298.336365      -1.45220196    
   1.11705506      0.780165970       0.00000000       565.253296      -1.46861804    
   1.01674199      0.902397990       0.00000000       565.253296      -1.46861804    
   1.01591504      0.901737988     -0.303478003       565.253296      -1.46861804    
   1.11495602      0.778467000     -0.303483993       565.253296      -1.46861804    
   1.01591504      0.901737988     -0.303478003       77.5127335      -1.30620980    
  0.904204011       1.01322901     -0.303456992       77.5127335      -1.30620980    
  0.905143023       1.01448905     -0.606999993       77.5127335      -1.30620980    
   1.01659799      0.902572989     -0.606999993       77.5127335      -1.30620980    
   1.01591504      0.901737988     -0.303478003       15.1666927     -0.404372603    
   1.01659799      0.902572989     -0.606999993       15.1666927     -0.404372603    
   1.11731696      0.779847026     -0.606999993       15.1666927     -0.404372603    
   1.11495602      0.778467000     -0.303483993       15.1666927     -0.404372603    
   1.01591504      0.901737988     -0.303478003       816.603638      -1.47413349    
   1.01674199      0.902397990       0.00000000       816.603638      -1.47413349    
  0.905318975       1.01434398       0.00000000       816.603638      -1.47413349    
  0.904204011       1.01322901     -0.303456992       816.603638      -1.47413349    
  0.905318975       1.01434398       0.00000000       1008.72272      -1.47084439    
  0.782918990       1.11479497       0.00000000       1008.72272      -1.47084439    
  0.780644000       1.11195600     -0.303485006       1008.72272      -1.47084439    
  0.904204011       1.01322901     -0.303456992       1008.72272      -1.47084439    
  0.780644000       1.11195600     -0.303485006       203.915359      -1.41513383    
  0.645825028       1.19414902     -0.303514004       203.915359      -1.41513383    
  0.646153986       1.19492805     -0.606999993       203.915359      -1.41513383    
  0.782611012       1.11504900     -0.606999993       203.915359      -1.41513383    
  0.780644000       1.11195600     -0.303485006       143.755890      -1.38699305    
  0.782611012       1.11504900     -0.606999993       143.755890      -1.38699305    
  0.905143023       1.01448905     -0.606999993       143.755890      -1.38699305    
  0.904204011       1.01322901     -0.303456992       143.755890      -1.38699305    
  0.780644000       1.11195600     -0.303485006       1244.70154      -1.47475100    
  0.782918990       1.11479497       0.00000000       1244.70154      -1.47475100    
  0.646345019       1.19482601       0.00000000       1244.70154      -1.47475100    
  0.645825028       1.19414902     -0.303514004       1244.70154      -1.47475100    
  0.646345019       1.19482601       0.00000000       1534.46863      -1.48023880    
  0.504974008       1.26637006       0.00000000       1534.46863      -1.48023880    
  0.503772974       1.26314998     -0.303521991       1534.46863      -1.48023880    
  0.645825028       1.19414902     -0.303514004       1534.46863      -1.48023880    
  0.503772974       1.26314998     -0.303521991       303.288330      -1.43378103    
  0.353130996       1.31116498     -0.303510994       303.288330      -1.43378103    
  0.353300005       1.31237996     -0.606999993       303.288330      -1.43378103    
  0.505183995       1.26630700     -0.606999993       303.288330      -1.43378103    
  0.503772974       1.26314998     -0.303521991       260.575470      -1.42863929    
  0.505183995       1.26630700     -0.606999993       260.575470      -1.42863929    
  0.646153986       1.19492805     -0.606999993       260.575470      -1.42863929    
  0.645825028       1.19414902     -0.303514004       260.575470      -1.42863929    
  0.503772974       1.26314998     -0.303521991       1722.37048      -1.48083997    
  0.504974008       1.26637006       0.00000000       1722.37048      -1.48083997    
  0.353493989       1.31232095       0.00000000       1722.37048      -1.48083997    
  0.353130996       1.31116498     -0.303510994       1722.37048      -1.48083997    
  0.353493989       1.31232095       0.00000000       1876.56958      -1.48125267    
  0.199064001       1.34539402       0.00000000       1876.56958      -1.48125267    
  0.198755994       1.34360003     -0.303496003       1876.56958      -1.48125267    
  0.353130996       1.31116498     -0.303510994       1876.56958      -1.48125267    
  0.198755994       1.34360003     -0.303496003       457.491211      -1.46284866    
   4.12769988E-02   1.35817802     -0.303508013       457.491211      -1.46284866    
   4.12410013E-02   1.36093795     -0.606999993       457.491211      -1.46284866    
  0.199025005       1.34539795     -0.606999993       457.491211      -1.46284866    
  0.198755994       1.34360003     -0.303496003       349.842957      -1.44029605    
  0.199025005       1.34539795     -0.606999993       349.842957      -1.44029605    
  0.353300005       1.31237996     -0.606999993       349.842957      -1.44029605    
  0.353130996       1.31116498     -0.303510994       349.842957      -1.44029605    
  0.198755994       1.34360003     -0.303496003       2036.08716      -1.48171425    
  0.199064001       1.34539402       0.00000000       2036.08716      -1.48171425    
   4.17769998E-02   1.36088502       0.00000000       2036.08716      -1.48171425    
   4.12769988E-02   1.35817802     -0.303508013       2036.08716      -1.48171425    
   4.17769998E-02   1.36088502       0.00000000       2136.99609      -1.48147774    
 -0.116410002       1.35353506       0.00000000       2136.99609      -1.48147774    
 -0.116471998       1.35271096     -0.303496987       2136.99609      -1.48147774    
   4.12769988E-02   1.35817802     -0.303508013       2136.99609      -1.48147774    
 -0.116471998       1.35271096     -0.303496987       481.394775      -1.45792067    
 -0.273027003       1.33229196     -0.303496003       481.394775      -1.45792067    
 -0.273876995       1.33647299     -0.606999993       481.394775      -1.45792067    
 -0.116722003       1.35350394     -0.606999993       481.394775      -1.45792067    
 -0.116471998       1.35271096     -0.303496987       489.388245      -1.46426451    
 -0.116722003       1.35350394     -0.606999993       489.388245      -1.46426451    
   4.12410013E-02   1.36093795     -0.606999993       489.388245      -1.46426451    
   4.12769988E-02   1.35817802     -0.303508013       489.388245      -1.46426451    
 -0.116471998       1.35271096     -0.303496987       2246.04492      -1.48179567    
 -0.116410002       1.35353506       0.00000000       2246.04492      -1.48179567    
 -0.274069011       1.33641505       0.00000000       2246.04492      -1.48179567    
 -0.273027003       1.33229196     -0.303496003       2246.04492      -1.48179567    
 -0.274069011       1.33641505       0.00000000       2268.65869      -1.48194492    
 -0.425588995       1.29045200       0.00000000       2268.65869      -1.48194492    
 -0.425258011       1.28953803     -0.303507000       2268.65869      -1.48194492    
 -0.273027003       1.33229196     -0.303496003       2268.65869      -1.48194492    
 -0.425258011       1.28953803     -0.303507000       474.779236      -1.45689571    
 -0.572302997       1.23206902     -0.303485990       474.779236      -1.45689571    
 -0.573064029       1.23399496     -0.606999993       474.779236      -1.45689571    
 -0.425651014       1.29043305     -0.606999993       474.779236      -1.45689571    
 -0.425258011       1.28953803     -0.303507000       487.510071      -1.45799816    
 -0.425651014       1.29043305     -0.606999993       487.510071      -1.45799816    
 -0.273876995       1.33647299     -0.606999993       487.510071      -1.45799816    
 -0.273027003       1.33229196     -0.303496003       487.510071      -1.45799816    
 -0.425258011       1.28953803     -0.303507000       2194.89404      -1.48205543    
 -0.425588995       1.29045200       0.00000000       2194.89404      -1.48205543    
 -0.573195994       1.23392498       0.00000000       2194.89404      -1.48205543    
 -0.572302997       1.23206902     -0.303485990       2194.89404      -1.48205543    
 -0.573195994       1.23392498       0.00000000       2123.51343      -1.48246157    
 -0.712655008       1.15938199       0.00000000       2123.51343      -1.48246157    
 -0.711889029       1.15749002     -0.303496003       2123.51343      -1.48246157    
 -0.572302997       1.23206902     -0.303485990       2123.51343      -1.48246157    
 -0.711889029       1.15749002     -0.303496003       432.465881      -1.45571017    
 -0.840825975       1.06629205     -0.303485990       432.465881      -1.45571017    
 -0.841368973       1.06682706     -0.606999993       432.465881      -1.45571017    
 -0.712980986       1.15920806     -0.606999993       432.465881      -1.45571017    
 -0.711889029       1.15749002     -0.303496003       465.733337      -1.45818782    
 -0.712980986       1.15920806     -0.606999993       465.733337      -1.45818782    
 -0.573064029       1.23399496     -0.606999993       465.733337      -1.45818782    
 -0.572302997       1.23206902     -0.303485990       465.733337      -1.45818782    
 -0.711889029       1.15749002     -0.303496003       1996.96497      -1.48226035    
 -0.712655008       1.15938199       0.00000000       1996.96497      -1.48226035    
 -0.841165006       1.06699395       0.00000000       1996.96497      -1.48226035    
 -0.840825975       1.06629205     -0.303485990       1996.96497      -1.48226035    
 -0.841165006       1.06699395       0.00000000       1914.04944      -1.48263693    
 -0.963320017      0.966744006       0.00000000       1914.04944      -1.48263693    
 -0.960084975      0.962615013     -0.303470999       1914.04944      -1.48263693    
 -0.840825975       1.06629205     -0.303485990       1914.04944      -1.48263693    
 -0.960084975      0.962615013     -0.303470999       369.683136      -1.45284283    
  -1.06383705      0.843237996     -0.303481996       369.683136      -1.45284283    
  -1.06481802      0.843816996     -0.606999993       369.683136      -1.45284283    
 -0.963873982      0.966289997     -0.606999993       369.683136      -1.45284283    
 -0.960084975      0.962615013     -0.303470999       398.984192      -1.45369077    
 -0.963873982      0.966289997     -0.606999993       398.984192      -1.45369077    
 -0.841368973       1.06682706     -0.606999993       398.984192      -1.45369077    
 -0.840825975       1.06629205     -0.303485990       398.984192      -1.45369077    
 -0.960084975      0.962615013     -0.303470999       1802.17065      -1.48252106    
 -0.963320017      0.966744006       0.00000000       1802.17065      -1.48252106    
  -1.06464398      0.844029009       0.00000000       1802.17065      -1.48252106    
  -1.06383705      0.843237996     -0.303481996       1802.17065      -1.48252106    
  -1.06464398      0.844029009       0.00000000       1660.15625      -1.48301101    
  -1.15769398      0.715813994       0.00000000       1660.15625      -1.48301101    
  -1.15564799      0.714680016     -0.303483993       1660.15625      -1.48301101    
  -1.06383705      0.843237996     -0.303481996       1660.15625      -1.48301101    
  -1.15564799      0.714680016     -0.303483993       262.680176      -1.43364072    
  -1.23108304      0.575536013     -0.303514004       262.680176      -1.43364072    
  -1.23232996      0.576179981     -0.606999993       262.680176      -1.43364072    
  -1.15756094      0.716063023     -0.606999993       262.680176      -1.43364072    
  -1.15564799      0.714680016     -0.303483993       326.605804      -1.44842184    
  -1.15756094      0.716063023     -0.606999993       326.605804      -1.44842184    
  -1.06481802      0.843816996     -0.606999993       326.605804      -1.44842184    
  -1.06383705      0.843237996     -0.303481996       326.605804      -1.44842184    
  -1.15564799      0.714680016     -0.303483993       1529.14600      -1.48365486    
  -1.15769398      0.715813994       0.00000000       1529.14600      -1.48365486    
  -1.23224795      0.576331973       0.00000000       1529.14600      -1.48365486    
  -1.23108304      0.575536013     -0.303514004       1529.14600      -1.48365486    
  -1.23224795      0.576331973       0.00000000       1334.58252      -1.48410881    
  -1.28948605      0.428772002       0.00000000       1334.58252      -1.48410881    
  -1.28842103      0.428404987     -0.303512990       1334.58252      -1.48410881    
  -1.23108304      0.575536013     -0.303514004       1334.58252      -1.48410881    
  -1.28842103      0.428404987     -0.303512990       260.534607      -1.47392094    
  -1.33082402      0.275959998     -0.303492010       260.534607      -1.47392094    
  -1.33550000      0.277083993     -0.606999993       260.534607      -1.47392094    