 VARIABLES="X" "Y" "Z" "abs(p) (Pa)" "angle(p) (rad)"
ZONE N=   2720,E =    2069, F=FEPOINT, ET=QUADRILATERAL
 -0.767116010      -1.12776399       0.00000000       612.611755      -1.58272123    
 -0.769354999      -1.12002099     -0.303523988       612.611755      -1.58272123    
 -0.896136999      -1.02028203     -0.303463012       612.611755      -1.58272123    
 -0.894908011      -1.02288902       0.00000000       612.611755      -1.58272123    
 -0.767116010      -1.12776399       0.00000000       664.053589      -1.58272636    
 -0.630888999      -1.20308697       0.00000000       664.053589      -1.58272636    
 -0.635528028      -1.19958198     -0.303541005       664.053589      -1.58272636    
 -0.769354999      -1.12002099     -0.303523988       664.053589      -1.58272636    
 -0.635528028      -1.19958198     -0.303541005       541.574524      -1.58824873    
 -0.495362997      -1.26606500     -0.303519011       541.574524      -1.58824873    
 -0.499298006      -1.26809204     -0.606999993       541.574524      -1.58824873    
 -0.640147984      -1.19813800     -0.606998026       541.574524      -1.58824873    
 -0.635528028      -1.19958198     -0.303541005       509.949310      -1.58819139    
 -0.640147984      -1.19813800     -0.606998026       509.949310      -1.58819139    
 -0.777105987      -1.11956596     -0.606999993       509.949310      -1.58819139    
 -0.769354999      -1.12002099     -0.303523988       509.949310      -1.58819139    
 -0.635528028      -1.19958198     -0.303541005       704.781555      -1.58273590    
 -0.630888999      -1.20308697       0.00000000       704.781555      -1.58273590    
 -0.494486004      -1.26955199       0.00000000       704.781555      -1.58273590    
 -0.495362997      -1.26606500     -0.303519011       704.781555      -1.58273590    
 -0.494486004      -1.26955199       0.00000000       737.177429      -1.58273494    
 -0.346311986      -1.31449997       0.00000000       737.177429      -1.58273494    
 -0.346753001      -1.31307304     -0.303510010       737.177429      -1.58273494    
 -0.495362997      -1.26606500     -0.303519011       737.177429      -1.58273494    
 -0.346753001      -1.31307304     -0.303510010       585.247803      -1.58821499    
 -0.193608001      -1.34425998     -0.303494990       585.247803      -1.58821499    
 -0.195028007      -1.34579206     -0.606999993       585.247803      -1.58821499    
 -0.348751009      -1.31376004     -0.606999993       585.247803      -1.58821499    
 -0.346753001      -1.31307304     -0.303510010       567.490906      -1.58822370    
 -0.348751009      -1.31376004     -0.606999993       567.490906      -1.58822370    
 -0.499298006      -1.26809204     -0.606999993       567.490906      -1.58822370    
 -0.495362997      -1.26606500     -0.303519011       567.490906      -1.58822370    
 -0.346753001      -1.31307304     -0.303510010       760.091064      -1.58272958    
 -0.346311986      -1.31449997       0.00000000       760.091064      -1.58272958    
 -0.193381995      -1.34595394       0.00000000       760.091064      -1.58272958    
 -0.193608001      -1.34425998     -0.303494990       760.091064      -1.58272958    
 -0.193381995      -1.34595394       0.00000000       773.768555      -1.58273935    
  -3.75179984E-02  -1.36130500       0.00000000       773.768555      -1.58273935    
  -3.73950005E-02  -1.35827899     -0.303512007       773.768555      -1.58273935    
 -0.193608001      -1.34425998     -0.303494990       773.768555      -1.58273935    
  -3.73950005E-02  -1.35827899     -0.303512007       597.375977      -1.58820629    
  0.119547002      -1.35239303     -0.303498000       597.375977      -1.58820629    
  0.119135000      -1.35326600     -0.606999993       597.375977      -1.58820629    
  -3.82840000E-02  -1.36122894     -0.606998980       597.375977      -1.58820629    
  -3.73950005E-02  -1.35827899     -0.303512007       595.235046      -1.58823073    
  -3.82840000E-02  -1.36122894     -0.606998980       595.235046      -1.58823073    
 -0.195028007      -1.34579206     -0.606999993       595.235046      -1.58823073    
 -0.193608001      -1.34425998     -0.303494990       595.235046      -1.58823073    
  -3.73950005E-02  -1.35827899     -0.303512007       776.107727      -1.58273864    
  -3.75179984E-02  -1.36130500       0.00000000       776.107727      -1.58273864    
  0.119788997      -1.35320199       0.00000000       776.107727      -1.58273864    
  0.119547002      -1.35239303     -0.303498000       776.107727      -1.58273864    
  0.119788997      -1.35320199       0.00000000       768.069031      -1.58275199    
  0.276576012      -1.33565402       0.00000000       768.069031      -1.58275199    
  0.275435001      -1.33191597     -0.303496003       768.069031      -1.58275199    
  0.119547002      -1.35239303     -0.303498000       768.069031      -1.58275199    
  0.275435001      -1.33191597     -0.303496003       576.788208      -1.58835423    
  0.427076995      -1.28898001     -0.303507000       576.788208      -1.58835423    
  0.427242011      -1.28995001     -0.606999993       576.788208      -1.58835423    
  0.275831014      -1.33588004     -0.606999993       576.788208      -1.58835423    
  0.275435001      -1.33191597     -0.303496003       591.288513      -1.58832562    
  0.275831014      -1.33588004     -0.606999993       591.288513      -1.58832562    
  0.119135000      -1.35326600     -0.606999993       591.288513      -1.58832562    
  0.119547002      -1.35239303     -0.303498000       591.288513      -1.58832562    
  0.275435001      -1.33191597     -0.303496003       749.000854      -1.58277774    
  0.276576012      -1.33565402       0.00000000       749.000854      -1.58277774    
  0.427509993      -1.28986895       0.00000000       749.000854      -1.58277774    
  0.427076995      -1.28898001     -0.303507000       749.000854      -1.58277774    
  0.427509993      -1.28986895       0.00000000       721.079773      -1.58274519    
  0.574636996      -1.23315501       0.00000000       721.079773      -1.58274519    
  0.573706985      -1.23136795     -0.303485990       721.079773      -1.58274519    
  0.427076995      -1.28898001     -0.303507000       721.079773      -1.58274519    
  0.573706985      -1.23136795     -0.303485990       526.140747      -1.58831370    
  0.712854981      -1.15688002     -0.303496987       526.140747      -1.58831370    
  0.713809013      -1.15876603     -0.606999993       526.140747      -1.58831370    
  0.574283004      -1.23334301     -0.606999993       526.140747      -1.58831370    
  0.573706985      -1.23136795     -0.303485990       555.450562      -1.58831322    
  0.574283004      -1.23334301     -0.606999993       555.450562      -1.58831322    
  0.427242011      -1.28995001     -0.606999993       555.450562      -1.58831322    
  0.427076995      -1.28898001     -0.303507000       555.450562      -1.58831322    
  0.573706985      -1.23136795     -0.303485990       684.347412      -1.58270085    
  0.574636996      -1.23315501       0.00000000       684.347412      -1.58270085    
  0.713741004      -1.15880203       0.00000000       684.347412      -1.58270085    
  0.712854981      -1.15688002     -0.303496987       684.347412      -1.58270085    
  0.713741004      -1.15880203       0.00000000       637.259949      -1.58268225    
  0.841937006      -1.06636095       0.00000000       637.259949      -1.58268225    
  0.841498017      -1.06573403     -0.303485990       637.259949      -1.58268225    
  0.712854981      -1.15688002     -0.303496987       637.259949      -1.58268225    
  0.841498017      -1.06573403     -0.303485990       446.961823      -1.58828127    
  0.960639000     -0.962104976     -0.303470999       446.961823      -1.58828127    
  0.964356005     -0.965893984     -0.606999993       446.961823      -1.58828127    
  0.841796994      -1.06647599     -0.606999993       446.961823      -1.58828127    
  0.841498017      -1.06573403     -0.303485990       489.666321      -1.58830512    
  0.841796994      -1.06647599     -0.606999993       489.666321      -1.58830512    
  0.713809013      -1.15876603     -0.606999993       489.666321      -1.58830512    
  0.712854981      -1.15688002     -0.303496987       489.666321      -1.58830512    
  0.841498017      -1.06573403     -0.303485990       581.644775      -1.58274853    
  0.841937006      -1.06636095       0.00000000       581.644775      -1.58274853    
  0.963932991     -0.966242015       0.00000000       581.644775      -1.58274853    
  0.960639000     -0.962104976     -0.303470999       581.644775      -1.58274853    
  0.963932991     -0.966242015       0.00000000       516.480469      -1.58281386    
   1.06506598     -0.843514979       0.00000000       516.480469      -1.58281386    
   1.06428695     -0.842682004     -0.303481996       516.480469      -1.58281386    
  0.960639000     -0.962104976     -0.303470999       516.480469      -1.58281386    
   1.06428695     -0.842682004     -0.303481996       343.351959      -1.58842313    
   1.15591598     -0.714210987     -0.303485006       343.351959      -1.58842313    
   1.15788805     -0.715448976     -0.606999993       343.351959      -1.58842313    
   1.06537795     -0.843134999     -0.606999993       343.351959      -1.58842313    
   1.06428695     -0.842682004     -0.303481996       396.284088      -1.58838320    
   1.06537795     -0.843134999     -0.606999993       396.284088      -1.58838320    
  0.964356005     -0.965893984     -0.606999993       396.284088      -1.58838320    
  0.960639000     -0.962104976     -0.303470999       396.284088      -1.58838320    
   1.06428695     -0.842682004     -0.303481996       446.396515      -1.58274174    
   1.06506598     -0.843514979       0.00000000       446.396515      -1.58274174    
   1.15792501     -0.715381980       0.00000000       446.396515      -1.58274174    
   1.15591598     -0.714210987     -0.303485006       446.396515      -1.58274174    
   1.15792501     -0.715381980       0.00000000       369.116821      -1.58275414    
   1.23237598     -0.576093972       0.00000000       369.116821      -1.58275414    
   1.23120904     -0.575251997     -0.303514004       369.116821      -1.58275414    
   1.15591598     -0.714210987     -0.303485006       369.116821      -1.58275414    
   1.23120904     -0.575251997     -0.303514004       220.975815      -1.58845210    
   1.28844094     -0.428344995     -0.303512990       220.975815      -1.58845210    
   1.28952503     -0.428642988     -0.606999993       220.975815      -1.58845210    
   1.23252702     -0.575810015     -0.606999993       220.975815      -1.58845210    
   1.23120904     -0.575251997     -0.303514004       283.959229      -1.58845937    
   1.23252702     -0.575810015     -0.606999993       283.959229      -1.58845937    
   1.15788805     -0.715448976     -0.606999993       283.959229      -1.58845937    
   1.15591598     -0.714210987     -0.303485006       283.959229      -1.58845937    
   1.23120904     -0.575251997     -0.303514004       286.776550      -1.58300269    
   1.23237598     -0.576093972       0.00000000       286.776550      -1.58300269    
   1.28947699     -0.428801000       0.00000000       286.776550      -1.58300269    
   1.28844094     -0.428344995     -0.303512990       286.776550      -1.58300269    
   1.28947699     -0.428801000       0.00000000       202.884613      -1.58261490    
   1.33532202     -0.277671993       0.00000000       202.884613      -1.58261490    
   1.33076501     -0.276203990     -0.303492010       202.884613      -1.58261490    
   1.28844094     -0.428344995     -0.303512990       202.884613      -1.58261490    
   1.33076501     -0.276203990     -0.303492010       86.3543091      -1.58887196    
   1.35229194     -0.119709998     -0.303514004       86.3543091      -1.58887196    
   1.35321999     -0.119608998     -0.606999993       86.3543091      -1.58887196    
   1.33549094     -0.277112991     -0.606999993       86.3543091      -1.58887196    
   1.33076501     -0.276203990     -0.303492010       156.214539      -1.58829176    
   1.33549094     -0.277112991     -0.606999993       156.214539      -1.58829176    
   1.28952503     -0.428642988     -0.606999993       156.214539      -1.58829176    
   1.28844094     -0.428344995     -0.303512990       156.214539      -1.58829176    
   1.33076501     -0.276203990     -0.303492010       113.545418      -1.58201897    
   1.33532202     -0.277671993       0.00000000       113.545418      -1.58201897    
   1.35319102     -0.119900003       0.00000000       113.545418      -1.58201897    
   1.35229194     -0.119709998     -0.303514004       113.545418      -1.58201897    
   1.35319102     -0.119900003       0.00000000       24.8039455      -1.57741165    
   1.36124396       3.81390005E-02   0.00000000       24.8039455      -1.57741165    
   1.35858905       3.79349999E-02 -0.303501010       24.8039455      -1.57741165    
   1.35229194     -0.119709998     -0.303514004       24.8039455      -1.57741165    
   1.35858905       3.79349999E-02 -0.303501010       51.3113708       1.55201674    
   1.34464097      0.195331007     -0.303496003       51.3113708       1.55201674    
   1.34573400      0.195616007     -0.606999993       51.3113708       1.55201674    
   1.36126804       3.78950015E-02 -0.606999993       51.3113708       1.55201674    
   1.35858905       3.79349999E-02 -0.303501010       19.0018845      -1.58375502    
   1.36126804       3.78950015E-02 -0.606999993       19.0018845      -1.58375502    
   1.35321999     -0.119608998     -0.606999993       19.0018845      -1.58375502    
   1.35229194     -0.119709998     -0.303514004       19.0018845      -1.58375502    
   1.35858905       3.79349999E-02 -0.303501010       66.0809555       1.55701864    
   1.36124396       3.81390005E-02   0.00000000       66.0809555       1.55701864    
   1.34575403      0.195406005       0.00000000       66.0809555       1.55701864    
   1.34464097      0.195331007     -0.303496003       66.0809555       1.55701864    
   1.34575403      0.195406005       0.00000000       154.927536       1.55791676    
   1.31339800      0.349945009       0.00000000       154.927536       1.55791676    
   1.31216300      0.349725991     -0.303487003       154.927536       1.55791676    
   1.34464097      0.195331007     -0.303496003       154.927536       1.55791676    
   1.31216300      0.349725991     -0.303487003       185.613922       1.55232823    
   1.26341999      0.500032008     -0.303494006       185.613922       1.55232823    
   1.26736605      0.501691997     -0.606999993       185.613922       1.55232823    
   1.31333196      0.350163996     -0.606999993       185.613922       1.55232823    
   1.31216300      0.349725991     -0.303487003       119.887749       1.55262637    
   1.31333196      0.350163996     -0.606999993       119.887749       1.55262637    
   1.34573400      0.195616007     -0.606999993       119.887749       1.55262637    
   1.34464097      0.195331007     -0.303496003       119.887749       1.55262637    
   1.31216300      0.349725991     -0.303487003       241.154297       1.55808783    
   1.31339800      0.349945009       0.00000000       241.154297       1.55808783    
   1.26751196      0.501209974       0.00000000       241.154297       1.55808783    
   1.26341999      0.500032008     -0.303494006       241.154297       1.55808783    
   1.26751196      0.501209974       0.00000000       326.214966       1.55830503    
   1.19658697      0.643051028       0.00000000       326.214966       1.55830503    
   1.19583094      0.642783999     -0.303505003       326.214966       1.55830503    
   1.26341999      0.500032008     -0.303494006       326.214966       1.55830503    
   1.19583094      0.642783999     -0.303505003       311.574768       1.55262244    
   1.11495602      0.778467000     -0.303483993       311.574768       1.55262244    
   1.11731696      0.779847026     -0.606999993       311.574768       1.55262244    
   1.19653296      0.643149972     -0.606999993       311.574768       1.55262244    
   1.19583094      0.642783999     -0.303505003       251.434052       1.55269158    
   1.19653296      0.643149972     -0.606999993       251.434052       1.55269158    
   1.26736605      0.501691997     -0.606999993       251.434052       1.55269158    
   1.26341999      0.500032008     -0.303494006       251.434052       1.55269158    
   1.19583094      0.642783999     -0.303505003       405.299683       1.55833650    
   1.19658697      0.643051028       0.00000000       405.299683       1.55833650    
   1.11705506      0.780165970       0.00000000       405.299683       1.55833650    
   1.11495602      0.778467000     -0.303483993       405.299683       1.55833650    
   1.11705506      0.780165970       0.00000000       480.538116       1.55845666    
   1.01674199      0.902397990       0.00000000       480.538116       1.55845666    
   1.01591504      0.901737988     -0.303478003       480.538116       1.55845666    
   1.11495602      0.778467000     -0.303483993       480.538116       1.55845666    
   1.01591504      0.901737988     -0.303478003       421.314484       1.55279243    
  0.904204011       1.01322901     -0.303456992       421.314484       1.55279243    
  0.905143023       1.01448905     -0.606999993       421.314484       1.55279243    
   1.01659799      0.902572989     -0.606999993       421.314484       1.55279243    
   1.01591504      0.901737988     -0.303478003       369.618835       1.55274880    
   1.01659799      0.902572989     -0.606999993       369.618835       1.55274880    
   1.11731696      0.779847026     -0.606999993       369.618835       1.55274880    
   1.11495602      0.778467000     -0.303483993       369.618835       1.55274880    
   1.01591504      0.901737988     -0.303478003       547.397583       1.55847633    
   1.01674199      0.902397990       0.00000000       547.397583       1.55847633    
  0.905318975       1.01434398       0.00000000       547.397583       1.55847633    
  0.904204011       1.01322901     -0.303456992       547.397583       1.55847633    
  0.905318975       1.01434398       0.00000000       607.546082       1.55846655    
  0.782918990       1.11479497       0.00000000       607.546082       1.55846655    
  0.780644000       1.11195600     -0.303485006       607.546082       1.55846655    
  0.904204011       1.01322901     -0.303456992       607.546082       1.55846655    
  0.780644000       1.11195600     -0.303485006       507.707153       1.55287015    
  0.645825028       1.19414902     -0.303514004       507.707153       1.55287015    
  0.646153986       1.19492805     -0.606999993       507.707153       1.55287015    
  0.782611012       1.11504900     -0.606999993       507.707153       1.55287015    
  0.780644000       1.11195600     -0.303485006       467.145325       1.55279350    
  0.782611012       1.11504900     -0.606999993       467.145325       1.55279350    
  0.905143023       1.01448905     -0.606999993       467.145325       1.55279350    
  0.904204011       1.01322901     -0.303456992       467.145325       1.55279350    
  0.780644000       1.11195600     -0.303485006       659.350403       1.55848444    
  0.782918990       1.11479497       0.00000000       659.350403       1.55848444    
  0.646345019       1.19482601       0.00000000       659.350403       1.55848444    
  0.645825028       1.19414902     -0.303514004       659.350403       1.55848444    
  0.646345019       1.19482601       0.00000000       701.568726       1.55848801    
  0.504974008       1.26637006       0.00000000       701.568726       1.55848801    
  0.503772974       1.26314998     -0.303521991       701.568726       1.55848801    
  0.645825028       1.19414902     -0.303514004       701.568726       1.55848801    
  0.503772974       1.26314998     -0.303521991       566.220459       1.55286860    
  0.353130996       1.31116498     -0.303510994       566.220459       1.55286860    
  0.353300005       1.31237996     -0.606999993       566.220459       1.55286860    
  0.505183995       1.26630700     -0.606999993       566.220459       1.55286860    
  0.503772974       1.26314998     -0.303521991       540.024536       1.55283761    
  0.505183995       1.26630700     -0.606999993       540.024536       1.55283761    
  0.646153986       1.19492805     -0.606999993       540.024536       1.55283761    
  0.645825028       1.19414902     -0.303514004       540.024536       1.55283761    
  0.503772974       1.26314998     -0.303521991       735.146118       1.55850923    
  0.504974008       1.26637006       0.00000000       735.146118       1.55850923    
  0.353493989       1.31232095       0.00000000       735.146118       1.55850923    
  0.353130996       1.31116498     -0.303510994       735.146118       1.55850923    
  0.353493989       1.31232095       0.00000000       757.774353       1.55850935    
  0.199064001       1.34539402       0.00000000       757.774353       1.55850935    
  0.198755994       1.34360003     -0.303496003       757.774353       1.55850935    
  0.353130996       1.31116498     -0.303510994       757.774353       1.55850935    
  0.198755994       1.34360003     -0.303496003       593.716064       1.55289054    
   4.12769988E-02   1.35817802     -0.303508013       593.716064       1.55289054    
   4.12410013E-02   1.36093795     -0.606999993       593.716064       1.55289054    
  0.199025005       1.34539795     -0.606999993       593.716064       1.55289054    
  0.198755994       1.34360003     -0.303496003       583.975159       1.55288458    
  0.199025005       1.34539795     -0.606999993       583.975159       1.55288458    
  0.353300005       1.31237996     -0.606999993       583.975159       1.55288458    
  0.353130996       1.31116498     -0.303510994       583.975159       1.55288458    
  0.198755994       1.34360003     -0.303496003       771.273254       1.55851340    
  0.199064001       1.34539402       0.00000000       771.273254       1.55851340    
   4.17769998E-02   1.36088502       0.00000000       771.273254       1.55851340    
   4.12769988E-02   1.35817802     -0.303508013       771.273254       1.55851340    
   4.17769998E-02   1.36088502       0.00000000       774.092285       1.55850112    
 -0.116410002       1.35353506       0.00000000       774.092285       1.55850112    
 -0.116471998       1.35271096     -0.303496987       774.092285       1.55850112    
   4.12769988E-02   1.35817802     -0.303508013       774.092285       1.55850112    
 -0.116471998       1.35271096     -0.303496987       589.585754       1.55276477    
 -0.273027003       1.33229196     -0.303496003       589.585754       1.55276477    
 -0.273876995       1.33647299     -0.606999993       589.585754       1.55276477    
 -0.116722003       1.35350394     -0.606999993       589.585754       1.55276477    
 -0.116471998       1.35271096     -0.303496987       595.922302       1.55290580    
 -0.116722003       1.35350394     -0.606999993       595.922302       1.55290580    
   4.12410013E-02   1.36093795     -0.606999993       595.922302       1.55290580    
   4.12769988E-02   1.35817802     -0.303508013       595.922302       1.55290580    
 -0.116471998       1.35271096     -0.303496987       766.570862       1.55849028    
 -0.116410002       1.35353506       0.00000000       766.570862       1.55849028    
 -0.274069011       1.33641505       0.00000000       766.570862       1.55849028    
 -0.273027003       1.33229196     -0.303496003       766.570862       1.55849028    
 -0.274069011       1.33641505       0.00000000       748.022949       1.55846727    
 -0.425588995       1.29045200       0.00000000       748.022949       1.55846727    
 -0.425258011       1.28953803     -0.303507000       748.022949       1.55846727    
 -0.273027003       1.33229196     -0.303496003       748.022949       1.55846727    
 -0.425258011       1.28953803     -0.303507000       554.736206       1.55278385    
 -0.572302997       1.23206902     -0.303485990       554.736206       1.55278385    
 -0.573064029       1.23399496     -0.606999993       554.736206       1.55278385    
 -0.425651014       1.29043305     -0.606999993       554.736206       1.55278385    
 -0.425258011       1.28953803     -0.303507000       575.306030       1.55273199    
 -0.425651014       1.29043305     -0.606999993       575.306030       1.55273199    
 -0.273876995       1.33647299     -0.606999993       575.306030       1.55273199    
 -0.273027003       1.33229196     -0.303496003       575.306030       1.55273199    
 -0.425258011       1.28953803     -0.303507000       720.824463       1.55851007    
 -0.425588995       1.29045200       0.00000000       720.824463       1.55851007    
 -0.573195994       1.23392498       0.00000000       720.824463       1.55851007    
 -0.572302997       1.23206902     -0.303485990       720.824463       1.55851007    
 -0.573195994       1.23392498       0.00000000       684.436951       1.55854869    
 -0.712655008       1.15938199       0.00000000       684.436951       1.55854869    
 -0.711889029       1.15749002     -0.303496003       684.436951       1.55854869    
 -0.572302997       1.23206902     -0.303485990       684.436951       1.55854869    
 -0.711889029       1.15749002     -0.303496003       489.527649       1.55273926    
 -0.840825975       1.06629205     -0.303485990       489.527649       1.55273926    
 -0.841368973       1.06682706     -0.606999993       489.527649       1.55273926    
 -0.712980986       1.15920806     -0.606999993       489.527649       1.55273926    
 -0.711889029       1.15749002     -0.303496003       525.696411       1.55275941    
 -0.712980986       1.15920806     -0.606999993       525.696411       1.55275941    
 -0.573064029       1.23399496     -0.606999993       525.696411       1.55275941    
 -0.572302997       1.23206902     -0.303485990       525.696411       1.55275941    
 -0.711889029       1.15749002     -0.303496003       637.720154       1.55857134    
 -0.712655008       1.15938199       0.00000000       637.720154       1.55857134    
 -0.841165006       1.06699395       0.00000000       637.720154       1.55857134    
 -0.840825975       1.06629205     -0.303485990       637.720154       1.55857134    
 -0.841165006       1.06699395       0.00000000       583.114868       1.55858862    
 -0.963320017      0.966744006       0.00000000       583.114868       1.55858862    
 -0.960084975      0.962615013     -0.303470999       583.114868       1.55858862    
 -0.840825975       1.06629205     -0.303485990       583.114868       1.55858862    
 -0.960084975      0.962615013     -0.303470999       396.765930       1.55258143    
  -1.06383705      0.843237996     -0.303481996       396.765930       1.55258143    
  -1.06481802      0.843816996     -0.606999993       396.765930       1.55258143    
 -0.963873982      0.966289997     -0.606999993       396.765930       1.55258143    
 -0.960084975      0.962615013     -0.303470999       447.562378       1.55275154    
 -0.963873982      0.966289997     -0.606999993       447.562378       1.55275154    
 -0.841368973       1.06682706     -0.606999993       447.562378       1.55275154    
 -0.840825975       1.06629205     -0.303485990       447.562378       1.55275154    
 -0.960084975      0.962615013     -0.303470999       517.747498       1.55848598    
 -0.963320017      0.966744006       0.00000000       517.747498       1.55848598    
  -1.06464398      0.844029009       0.00000000       517.747498       1.55848598    
  -1.06383705      0.843237996     -0.303481996       517.747498       1.55848598    
  -1.06464398      0.844029009       0.00000000       447.071838       1.55847728    
  -1.15769398      0.715813994       0.00000000       447.071838       1.55847728    
  -1.15564799      0.714680016     -0.303483993       447.071838       1.55847728    
  -1.06383705      0.843237996     -0.303481996       447.071838       1.55847728    
  -1.15564799      0.714680016     -0.303483993       283.950500       1.55242586    
  -1.23108304      0.575536013     -0.303514004       283.950500       1.55242586    
  -1.23232996      0.576179981     -0.606999993       283.950500       1.55242586    
  -1.15756094      0.716063023     -0.606999993       283.950500       1.55242586    
  -1.15564799      0.714680016     -0.303483993       343.477661       1.55259705    
  -1.15756094      0.716063023     -0.606999993       343.477661       1.55259705    
  -1.06481802      0.843816996     -0.606999993       343.477661       1.55259705    
  -1.06383705      0.843237996     -0.303481996       343.477661       1.55259705    
  -1.15564799      0.714680016     -0.303483993       369.592194       1.55836105    
  -1.15769398      0.715813994       0.00000000       369.592194       1.55836105    
  -1.23224795      0.576331973       0.00000000       369.592194       1.55836105    
  -1.23108304      0.575536013     -0.303514004       369.592194       1.55836105    
  -1.23224795      0.576331973       0.00000000       287.076630       1.55820227    
  -1.28948605      0.428772002       0.00000000       287.076630       1.55820227    
  -1.28842103      0.428404987     -0.303512990       287.076630       1.55820227    
  -1.23108304      0.575536013     -0.303514004       287.076630       1.55820227    
  -1.28842103      0.428404987     -0.303512990       155.542786       1.55193150    
  -1.33082402      0.275959998     -0.303492010       155.542786       1.55193150    
  -1.33550000      0.277083993     -0.606999993       155.542786       1.55193150    