 VARIABLES="X" "Y" "Z" "abs(p) (Pa)" "angle(p) (rad)"
ZONE N=   2720,E =    2069, F=FEPOINT, ET=QUADRILATERAL
 -0.767116010      -1.12776399       0.00000000       4414.17188       2.04306674    
 -0.769354999      -1.12002099     -0.303523988       4414.17188       2.04306674    
 -0.896136999      -1.02028203     -0.303463012       4414.17188       2.04306674    
 -0.894908011      -1.02288902       0.00000000       4414.17188       2.04306674    
 -0.767116010      -1.12776399       0.00000000       4413.56738       2.04307628    
 -0.630888999      -1.20308697       0.00000000       4413.56738       2.04307628    
 -0.635528028      -1.19958198     -0.303541005       4413.56738       2.04307628    
 -0.769354999      -1.12002099     -0.303523988       4413.56738       2.04307628    
 -0.635528028      -1.19958198     -0.303541005       4391.80420       2.03936315    
 -0.495362997      -1.26606500     -0.303519011       4391.80420       2.03936315    
 -0.499298006      -1.26809204     -0.606999993       4391.80420       2.03936315    
 -0.640147984      -1.19813800     -0.606998026       4391.80420       2.03936315    
 -0.635528028      -1.19958198     -0.303541005       4392.15674       2.03935218    
 -0.640147984      -1.19813800     -0.606998026       4392.15674       2.03935218    
 -0.777105987      -1.11956596     -0.606999993       4392.15674       2.03935218    
 -0.769354999      -1.12002099     -0.303523988       4392.15674       2.03935218    
 -0.635528028      -1.19958198     -0.303541005       4411.02930       2.04312491    
 -0.630888999      -1.20308697       0.00000000       4411.02930       2.04312491    
 -0.494486004      -1.26955199       0.00000000       4411.02930       2.04312491    
 -0.495362997      -1.26606500     -0.303519011       4411.02930       2.04312491    
 -0.494486004      -1.26955199       0.00000000       4411.50439       2.04309487    
 -0.346311986      -1.31449997       0.00000000       4411.50439       2.04309487    
 -0.346753001      -1.31307304     -0.303510010       4411.50439       2.04309487    
 -0.495362997      -1.26606500     -0.303519011       4411.50439       2.04309487    
 -0.346753001      -1.31307304     -0.303510010       4391.05469       2.03941441    
 -0.193608001      -1.34425998     -0.303494990       4391.05469       2.03941441    
 -0.195028007      -1.34579206     -0.606999993       4391.05469       2.03941441    
 -0.348751009      -1.31376004     -0.606999993       4391.05469       2.03941441    
 -0.346753001      -1.31307304     -0.303510010       4391.74121       2.03935266    
 -0.348751009      -1.31376004     -0.606999993       4391.74121       2.03935266    
 -0.499298006      -1.26809204     -0.606999993       4391.74121       2.03935266    
 -0.495362997      -1.26606500     -0.303519011       4391.74121       2.03935266    
 -0.346753001      -1.31307304     -0.303510010       4412.03418       2.04309177    
 -0.346311986      -1.31449997       0.00000000       4412.03418       2.04309177    
 -0.193381995      -1.34595394       0.00000000       4412.03418       2.04309177    
 -0.193608001      -1.34425998     -0.303494990       4412.03418       2.04309177    
 -0.193381995      -1.34595394       0.00000000       4413.89258       2.04301071    
  -3.75179984E-02  -1.36130500       0.00000000       4413.89258       2.04301071    
  -3.73950005E-02  -1.35827899     -0.303512007       4413.89258       2.04301071    
 -0.193608001      -1.34425998     -0.303494990       4413.89258       2.04301071    
  -3.73950005E-02  -1.35827899     -0.303512007       4391.70264       2.03928709    
  0.119547002      -1.35239303     -0.303498000       4391.70264       2.03928709    
  0.119135000      -1.35326600     -0.606999993       4391.70264       2.03928709    
  -3.82840000E-02  -1.36122894     -0.606998980       4391.70264       2.03928709    
  -3.73950005E-02  -1.35827899     -0.303512007       4391.50049       2.03931522    
  -3.82840000E-02  -1.36122894     -0.606998980       4391.50049       2.03931522    
 -0.195028007      -1.34579206     -0.606999993       4391.50049       2.03931522    
 -0.193608001      -1.34425998     -0.303494990       4391.50049       2.03931522    
  -3.73950005E-02  -1.35827899     -0.303512007       4412.60938       2.04298902    
  -3.75179984E-02  -1.36130500       0.00000000       4412.60938       2.04298902    
  0.119788997      -1.35320199       0.00000000       4412.60938       2.04298902    
  0.119547002      -1.35239303     -0.303498000       4412.60938       2.04298902    
  0.119788997      -1.35320199       0.00000000       4412.01025       2.04292059    
  0.276576012      -1.33565402       0.00000000       4412.01025       2.04292059    
  0.275435001      -1.33191597     -0.303496003       4412.01025       2.04292059    
  0.119547002      -1.35239303     -0.303498000       4412.01025       2.04292059    
  0.275435001      -1.33191597     -0.303496003       4393.00830       2.03911972    
  0.427076995      -1.28898001     -0.303507000       4393.00830       2.03911972    
  0.427242011      -1.28995001     -0.606999993       4393.00830       2.03911972    
  0.275831014      -1.33588004     -0.606999993       4393.00830       2.03911972    
  0.275435001      -1.33191597     -0.303496003       4392.87061       2.03916597    
  0.275831014      -1.33588004     -0.606999993       4392.87061       2.03916597    
  0.119135000      -1.35326600     -0.606999993       4392.87061       2.03916597    
  0.119547002      -1.35239303     -0.303498000       4392.87061       2.03916597    
  0.275435001      -1.33191597     -0.303496003       4411.47363       2.04286528    
  0.276576012      -1.33565402       0.00000000       4411.47363       2.04286528    
  0.427509993      -1.28986895       0.00000000       4411.47363       2.04286528    
  0.427076995      -1.28898001     -0.303507000       4411.47363       2.04286528    
  0.427509993      -1.28986895       0.00000000       4410.40771       2.04285026    
  0.574636996      -1.23315501       0.00000000       4410.40771       2.04285026    
  0.573706985      -1.23136795     -0.303485990       4410.40771       2.04285026    
  0.427076995      -1.28898001     -0.303507000       4410.40771       2.04285026    
  0.573706985      -1.23136795     -0.303485990       4394.07031       2.03902102    
  0.712854981      -1.15688002     -0.303496987       4394.07031       2.03902102    
  0.713809013      -1.15876603     -0.606999993       4394.07031       2.03902102    
  0.574283004      -1.23334301     -0.606999993       4394.07031       2.03902102    
  0.573706985      -1.23136795     -0.303485990       4392.50342       2.03916240    
  0.574283004      -1.23334301     -0.606999993       4392.50342       2.03916240    
  0.427242011      -1.28995001     -0.606999993       4392.50342       2.03916240    
  0.427076995      -1.28898001     -0.303507000       4392.50342       2.03916240    
  0.573706985      -1.23136795     -0.303485990       4410.71094       2.04279327    
  0.574636996      -1.23315501       0.00000000       4410.71094       2.04279327    
  0.713741004      -1.15880203       0.00000000       4410.71094       2.04279327    
  0.712854981      -1.15688002     -0.303496987       4410.71094       2.04279327    
  0.713741004      -1.15880203       0.00000000       4411.09961       2.04275727    
  0.841937006      -1.06636095       0.00000000       4411.09961       2.04275727    
  0.841498017      -1.06573403     -0.303485990       4411.09961       2.04275727    
  0.712854981      -1.15688002     -0.303496987       4411.09961       2.04275727    
  0.841498017      -1.06573403     -0.303485990       4396.92090       2.03881764    
  0.960639000     -0.962104976     -0.303470999       4396.92090       2.03881764    
  0.964356005     -0.965893984     -0.606999993       4396.92090       2.03881764    
  0.841796994      -1.06647599     -0.606999993       4396.92090       2.03881764    
  0.841498017      -1.06573403     -0.303485990       4394.68994       2.03901362    
  0.841796994      -1.06647599     -0.606999993       4394.68994       2.03901362    
  0.713809013      -1.15876603     -0.606999993       4394.68994       2.03901362    
  0.712854981      -1.15688002     -0.303496987       4394.68994       2.03901362    
  0.841498017      -1.06573403     -0.303485990       4411.64014       2.04276443    
  0.841937006      -1.06636095       0.00000000       4411.64014       2.04276443    
  0.963932991     -0.966242015       0.00000000       4411.64014       2.04276443    
  0.960639000     -0.962104976     -0.303470999       4411.64014       2.04276443    
  0.963932991     -0.966242015       0.00000000       4413.00635       2.04269481    
   1.06506598     -0.843514979       0.00000000       4413.00635       2.04269481    
   1.06428695     -0.842682004     -0.303481996       4413.00635       2.04269481    
  0.960639000     -0.962104976     -0.303470999       4413.00635       2.04269481    
   1.06428695     -0.842682004     -0.303481996       4393.28809       2.03927827    
   1.15591598     -0.714210987     -0.303485006       4393.28809       2.03927827    
   1.15788805     -0.715448976     -0.606999993       4393.28809       2.03927827    
   1.06537795     -0.843134999     -0.606999993       4393.28809       2.03927827    
   1.06428695     -0.842682004     -0.303481996       4398.15527       2.03873277    
   1.06537795     -0.843134999     -0.606999993       4398.15527       2.03873277    
  0.964356005     -0.965893984     -0.606999993       4398.15527       2.03873277    
  0.960639000     -0.962104976     -0.303470999       4398.15527       2.03873277    
   1.06428695     -0.842682004     -0.303481996       4412.52441       2.04258323    
   1.06506598     -0.843514979       0.00000000       4412.52441       2.04258323    
   1.15792501     -0.715381980       0.00000000       4412.52441       2.04258323    
   1.15591598     -0.714210987     -0.303485006       4412.52441       2.04258323    
   1.15792501     -0.715381980       0.00000000       4415.78027       2.04245353    
   1.23237598     -0.576093972       0.00000000       4415.78027       2.04245353    
   1.23120904     -0.575251997     -0.303514004       4415.78027       2.04245353    
   1.15591598     -0.714210987     -0.303485006       4415.78027       2.04245353    
   1.23120904     -0.575251997     -0.303514004       4396.05908       2.03912163    
   1.28844094     -0.428344995     -0.303512990       4396.05908       2.03912163    
   1.28952503     -0.428642988     -0.606999993       4396.05908       2.03912163    
   1.23252702     -0.575810015     -0.606999993       4396.05908       2.03912163    
   1.23120904     -0.575251997     -0.303514004       4395.07910       2.03915501    
   1.23252702     -0.575810015     -0.606999993       4395.07910       2.03915501    
   1.15788805     -0.715448976     -0.606999993       4395.07910       2.03915501    
   1.15591598     -0.714210987     -0.303485006       4395.07910       2.03915501    
   1.23120904     -0.575251997     -0.303514004       4413.32910       2.04292846    
   1.23237598     -0.576093972       0.00000000       4413.32910       2.04292846    
   1.28947699     -0.428801000       0.00000000       4413.32910       2.04292846    
   1.28844094     -0.428344995     -0.303512990       4413.32910       2.04292846    
   1.28947699     -0.428801000       0.00000000       4417.05811       2.04285073    
   1.33532202     -0.277671993       0.00000000       4417.05811       2.04285073    
   1.33076501     -0.276203990     -0.303492010       4417.05811       2.04285073    
   1.28844094     -0.428344995     -0.303512990       4417.05811       2.04285073    
   1.33076501     -0.276203990     -0.303492010       4394.48828       2.03927493    
   1.35229194     -0.119709998     -0.303514004       4394.48828       2.03927493    
   1.35321999     -0.119608998     -0.606999993       4394.48828       2.03927493    
   1.33549094     -0.277112991     -0.606999993       4394.48828       2.03927493    
   1.33076501     -0.276203990     -0.303492010       4397.65723       2.03897715    
   1.33549094     -0.277112991     -0.606999993       4397.65723       2.03897715    
   1.28952503     -0.428642988     -0.606999993       4397.65723       2.03897715    
   1.28844094     -0.428344995     -0.303512990       4397.65723       2.03897715    
   1.33076501     -0.276203990     -0.303492010       4423.04102       2.04227567    
   1.33532202     -0.277671993       0.00000000       4423.04102       2.04227567    
   1.35319102     -0.119900003       0.00000000       4423.04102       2.04227567    
   1.35229194     -0.119709998     -0.303514004       4423.04102       2.04227567    
   1.35319102     -0.119900003       0.00000000       4424.62158       2.04217958    
   1.36124396       3.81390005E-02   0.00000000       4424.62158       2.04217958    
   1.35858905       3.79349999E-02 -0.303501010       4424.62158       2.04217958    
   1.35229194     -0.119709998     -0.303514004       4424.62158       2.04217958    
   1.35858905       3.79349999E-02 -0.303501010       4400.97998       2.03870082    
   1.34464097      0.195331007     -0.303496003       4400.97998       2.03870082    
   1.34573400      0.195616007     -0.606999993       4400.97998       2.03870082    
   1.36126804       3.78950015E-02 -0.606999993       4400.97998       2.03870082    
   1.35858905       3.79349999E-02 -0.303501010       4400.38770       2.03874278    
   1.36126804       3.78950015E-02 -0.606999993       4400.38770       2.03874278    
   1.35321999     -0.119608998     -0.606999993       4400.38770       2.03874278    
   1.35229194     -0.119709998     -0.303514004       4400.38770       2.03874278    
   1.35858905       3.79349999E-02 -0.303501010       4421.57861       2.04246426    
   1.36124396       3.81390005E-02   0.00000000       4421.57861       2.04246426    
   1.34575403      0.195406005       0.00000000       4421.57861       2.04246426    
   1.34464097      0.195331007     -0.303496003       4421.57861       2.04246426    
   1.34575403      0.195406005       0.00000000       4423.05957       2.04238820    
   1.31339800      0.349945009       0.00000000       4423.05957       2.04238820    
   1.31216300      0.349725991     -0.303487003       4423.05957       2.04238820    
   1.34464097      0.195331007     -0.303496003       4423.05957       2.04238820    
   1.31216300      0.349725991     -0.303487003       4404.58691       2.03850245    
   1.26341999      0.500032008     -0.303494006       4404.58691       2.03850245    
   1.26736605      0.501691997     -0.606999993       4404.58691       2.03850245    
   1.31333196      0.350163996     -0.606999993       4404.58691       2.03850245    
   1.31216300      0.349725991     -0.303487003       4401.30029       2.03870487    
   1.31333196      0.350163996     -0.606999993       4401.30029       2.03870487    
   1.34573400      0.195616007     -0.606999993       4401.30029       2.03870487    
   1.34464097      0.195331007     -0.303496003       4401.30029       2.03870487    
   1.31216300      0.349725991     -0.303487003       4424.75146       2.04234171    
   1.31339800      0.349945009       0.00000000       4424.75146       2.04234171    
   1.26751196      0.501209974       0.00000000       4424.75146       2.04234171    
   1.26341999      0.500032008     -0.303494006       4424.75146       2.04234171    
   1.26751196      0.501209974       0.00000000       4429.35742       2.04195547    
   1.19658697      0.643051028       0.00000000       4429.35742       2.04195547    
   1.19583094      0.642783999     -0.303505003       4429.35742       2.04195547    
   1.26341999      0.500032008     -0.303494006       4429.35742       2.04195547    
   1.19583094      0.642783999     -0.303505003       4402.42871       2.03855228    
   1.11495602      0.778467000     -0.303483993       4402.42871       2.03855228    
   1.11731696      0.779847026     -0.606999993       4402.42871       2.03855228    
   1.19653296      0.643149972     -0.606999993       4402.42871       2.03855228    
   1.19583094      0.642783999     -0.303505003       4404.89941       2.03847337    
   1.19653296      0.643149972     -0.606999993       4404.89941       2.03847337    
   1.26736605      0.501691997     -0.606999993       4404.89941       2.03847337    
   1.26341999      0.500032008     -0.303494006       4404.89941       2.03847337    
   1.19583094      0.642783999     -0.303505003       4427.42236       2.04192781    
   1.19658697      0.643051028       0.00000000       4427.42236       2.04192781    
   1.11705506      0.780165970       0.00000000       4427.42236       2.04192781    
   1.11495602      0.778467000     -0.303483993       4427.42236       2.04192781    
   1.11705506      0.780165970       0.00000000       4425.77832       2.04190731    
   1.01674199      0.902397990       0.00000000       4425.77832       2.04190731    
   1.01591504      0.901737988     -0.303478003       4425.77832       2.04190731    
   1.11495602      0.778467000     -0.303483993       4425.77832       2.04190731    
   1.01591504      0.901737988     -0.303478003       4404.43359       2.03828597    
  0.904204011       1.01322901     -0.303456992       4404.43359       2.03828597    
  0.905143023       1.01448905     -0.606999993       4404.43359       2.03828597    
   1.01659799      0.902572989     -0.606999993       4404.43359       2.03828597    
   1.01591504      0.901737988     -0.303478003       4405.37500       2.03823519    
   1.01659799      0.902572989     -0.606999993       4405.37500       2.03823519    
   1.11731696      0.779847026     -0.606999993       4405.37500       2.03823519    
   1.11495602      0.778467000     -0.303483993       4405.37500       2.03823519    
   1.01591504      0.901737988     -0.303478003       4424.09082       2.04190326    
   1.01674199      0.902397990       0.00000000       4424.09082       2.04190326    
  0.905318975       1.01434398       0.00000000       4424.09082       2.04190326    
  0.904204011       1.01322901     -0.303456992       4424.09082       2.04190326    
  0.905318975       1.01434398       0.00000000       4421.57324       2.04200602    
  0.782918990       1.11479497       0.00000000       4421.57324       2.04200602    
  0.780644000       1.11195600     -0.303485006       4421.57324       2.04200602    
  0.904204011       1.01322901     -0.303456992       4421.57324       2.04200602    
  0.780644000       1.11195600     -0.303485006       4404.53857       2.03819871    
  0.645825028       1.19414902     -0.303514004       4404.53857       2.03819871    
  0.646153986       1.19492805     -0.606999993       4404.53857       2.03819871    
  0.782611012       1.11504900     -0.606999993       4404.53857       2.03819871    
  0.780644000       1.11195600     -0.303485006       4404.90625       2.03818560    
  0.782611012       1.11504900     -0.606999993       4404.90625       2.03818560    
  0.905143023       1.01448905     -0.606999993       4404.90625       2.03818560    
  0.904204011       1.01322901     -0.303456992       4404.90625       2.03818560    
  0.780644000       1.11195600     -0.303485006       4419.84619       2.04208517    
  0.782918990       1.11479497       0.00000000       4419.84619       2.04208517    
  0.646345019       1.19482601       0.00000000       4419.84619       2.04208517    
  0.645825028       1.19414902     -0.303514004       4419.84619       2.04208517    
  0.646345019       1.19482601       0.00000000       4423.02295       2.04197931    
  0.504974008       1.26637006       0.00000000       4423.02295       2.04197931    
  0.503772974       1.26314998     -0.303521991       4423.02295       2.04197931    
  0.645825028       1.19414902     -0.303514004       4423.02295       2.04197931    
  0.503772974       1.26314998     -0.303521991       4406.11035       2.03807735    
  0.353130996       1.31116498     -0.303510994       4406.11035       2.03807735    
  0.353300005       1.31237996     -0.606999993       4406.11035       2.03807735    
  0.505183995       1.26630700     -0.606999993       4406.11035       2.03807735    
  0.503772974       1.26314998     -0.303521991       4405.30811       2.03813291    
  0.505183995       1.26630700     -0.606999993       4405.30811       2.03813291    
  0.646153986       1.19492805     -0.606999993       4405.30811       2.03813291    
  0.645825028       1.19414902     -0.303514004       4405.30811       2.03813291    
  0.503772974       1.26314998     -0.303521991       4423.22412       2.04196787    
  0.504974008       1.26637006       0.00000000       4423.22412       2.04196787    
  0.353493989       1.31232095       0.00000000       4423.22412       2.04196787    
  0.353130996       1.31116498     -0.303510994       4423.22412       2.04196787    
  0.353493989       1.31232095       0.00000000       4423.18604       2.04198146    
  0.199064001       1.34539402       0.00000000       4423.18604       2.04198146    
  0.198755994       1.34360003     -0.303496003       4423.18604       2.04198146    
  0.353130996       1.31116498     -0.303510994       4423.18604       2.04198146    
  0.198755994       1.34360003     -0.303496003       4408.48145       2.03804183    
   4.12769988E-02   1.35817802     -0.303508013       4408.48145       2.03804183    
   4.12410013E-02   1.36093795     -0.606999993       4408.48145       2.03804183    
  0.199025005       1.34539795     -0.606999993       4408.48145       2.03804183    
  0.198755994       1.34360003     -0.303496003       4405.50146       2.03816485    
  0.199025005       1.34539795     -0.606999993       4405.50146       2.03816485    
  0.353300005       1.31237996     -0.606999993       4405.50146       2.03816485    
  0.353130996       1.31116498     -0.303510994       4405.50146       2.03816485    
  0.198755994       1.34360003     -0.303496003       4423.17578       2.04201961    
  0.199064001       1.34539402       0.00000000       4423.17578       2.04201961    
   4.17769998E-02   1.36088502       0.00000000       4423.17578       2.04201961    
   4.12769988E-02   1.35817802     -0.303508013       4423.17578       2.04201961    
   4.17769998E-02   1.36088502       0.00000000       4425.45117       2.04199004    
 -0.116410002       1.35353506       0.00000000       4425.45117       2.04199004    
 -0.116471998       1.35271096     -0.303496987       4425.45117       2.04199004    
   4.12769988E-02   1.35817802     -0.303508013       4425.45117       2.04199004    
 -0.116471998       1.35271096     -0.303496987       4408.95020       2.03821039    
 -0.273027003       1.33229196     -0.303496003       4408.95020       2.03821039    
 -0.273876995       1.33647299     -0.606999993       4408.95020       2.03821039    
 -0.116722003       1.35350394     -0.606999993       4408.95020       2.03821039    
 -0.116471998       1.35271096     -0.303496987       4408.08105       2.03811860    
 -0.116722003       1.35350394     -0.606999993       4408.08105       2.03811860    
   4.12410013E-02   1.36093795     -0.606999993       4408.08105       2.03811860    
   4.12769988E-02   1.35817802     -0.303508013       4408.08105       2.03811860    
 -0.116471998       1.35271096     -0.303496987       4427.28711       2.04203343    
 -0.116410002       1.35353506       0.00000000       4427.28711       2.04203343    
 -0.274069011       1.33641505       0.00000000       4427.28711       2.04203343    
 -0.273027003       1.33229196     -0.303496003       4427.28711       2.04203343    
 -0.274069011       1.33641505       0.00000000       4427.16113       2.04208207    
 -0.425588995       1.29045200       0.00000000       4427.16113       2.04208207    
 -0.425258011       1.28953803     -0.303507000       4427.16113       2.04208207    
 -0.273027003       1.33229196     -0.303496003       4427.16113       2.04208207    
 -0.425258011       1.28953803     -0.303507000       4406.09375       2.03848410    
 -0.572302997       1.23206902     -0.303485990       4406.09375       2.03848410    
 -0.573064029       1.23399496     -0.606999993       4406.09375       2.03848410    
 -0.425651014       1.29043305     -0.606999993       4406.09375       2.03848410    
 -0.425258011       1.28953803     -0.303507000       4408.25439       2.03828168    
 -0.425651014       1.29043305     -0.606999993       4408.25439       2.03828168    
 -0.273876995       1.33647299     -0.606999993       4408.25439       2.03828168    
 -0.273027003       1.33229196     -0.303496003       4408.25439       2.03828168    
 -0.425258011       1.28953803     -0.303507000       4423.80811       2.04220843    
 -0.425588995       1.29045200       0.00000000       4423.80811       2.04220843    
 -0.573195994       1.23392498       0.00000000       4423.80811       2.04220843    
 -0.572302997       1.23206902     -0.303485990       4423.80811       2.04220843    
 -0.573195994       1.23392498       0.00000000       4420.73242       2.04235482    
 -0.712655008       1.15938199       0.00000000       4420.73242       2.04235482    
 -0.711889029       1.15749002     -0.303496003       4420.73242       2.04235482    
 -0.572302997       1.23206902     -0.303485990       4420.73242       2.04235482    
 -0.711889029       1.15749002     -0.303496003       4403.28857       2.03867173    
 -0.840825975       1.06629205     -0.303485990       4403.28857       2.03867173    
 -0.841368973       1.06682706     -0.606999993       4403.28857       2.03867173    
 -0.712980986       1.15920806     -0.606999993       4403.28857       2.03867173    
 -0.711889029       1.15749002     -0.303496003       4405.04688       2.03852320    
 -0.712980986       1.15920806     -0.606999993       4405.04688       2.03852320    
 -0.573064029       1.23399496     -0.606999993       4405.04688       2.03852320    
 -0.572302997       1.23206902     -0.303485990       4405.04688       2.03852320    
 -0.711889029       1.15749002     -0.303496003       4418.78418       2.04235601    
 -0.712655008       1.15938199       0.00000000       4418.78418       2.04235601    
 -0.841165006       1.06699395       0.00000000       4418.78418       2.04235601    
 -0.840825975       1.06629205     -0.303485990       4418.78418       2.04235601    
 -0.841165006       1.06699395       0.00000000       4417.37256       2.04247665    
 -0.963320017      0.966744006       0.00000000       4417.37256       2.04247665    
 -0.960084975      0.962615013     -0.303470999       4417.37256       2.04247665    
 -0.840825975       1.06629205     -0.303485990       4417.37256       2.04247665    
 -0.960084975      0.962615013     -0.303470999       4401.42480       2.03880644    
  -1.06383705      0.843237996     -0.303481996       4401.42480       2.03880644    
  -1.06481802      0.843816996     -0.606999993       4401.42480       2.03880644    
 -0.963873982      0.966289997     -0.606999993       4401.42480       2.03880644    
 -0.960084975      0.962615013     -0.303470999       4402.59277       2.03869700    
 -0.963873982      0.966289997     -0.606999993       4402.59277       2.03869700    
 -0.841368973       1.06682706     -0.606999993       4402.59277       2.03869700    
 -0.840825975       1.06629205     -0.303485990       4402.59277       2.03869700    
 -0.960084975      0.962615013     -0.303470999       4417.48584       2.04256320    
 -0.963320017      0.966744006       0.00000000       4417.48584       2.04256320    
  -1.06464398      0.844029009       0.00000000       4417.48584       2.04256320    
  -1.06383705      0.843237996     -0.303481996       4417.48584       2.04256320    
  -1.06464398      0.844029009       0.00000000       4417.56738       2.04257822    
  -1.15769398      0.715813994       0.00000000       4417.56738       2.04257822    
  -1.15564799      0.714680016     -0.303483993       4417.56738       2.04257822    
  -1.06383705      0.843237996     -0.303481996       4417.56738       2.04257822    
  -1.15564799      0.714680016     -0.303483993       4401.68652       2.03892612    
  -1.23108304      0.575536013     -0.303514004       4401.68652       2.03892612    
  -1.23232996      0.576179981     -0.606999993       4401.68652       2.03892612    
  -1.15756094      0.716063023     -0.606999993       4401.68652       2.03892612    
  -1.15564799      0.714680016     -0.303483993       4400.14844       2.03898907    
  -1.15756094      0.716063023     -0.606999993       4400.14844       2.03898907    
  -1.06481802      0.843816996     -0.606999993       4400.14844       2.03898907    
  -1.06383705      0.843237996     -0.303481996       4400.14844       2.03898907    
  -1.15564799      0.714680016     -0.303483993       4420.96875       2.04257131    
  -1.15769398      0.715813994       0.00000000       4420.96875       2.04257131    
  -1.23224795      0.576331973       0.00000000       4420.96875       2.04257131    
  -1.23108304      0.575536013     -0.303514004       4420.96875       2.04257131    
  -1.23224795      0.576331973       0.00000000       4422.75342       2.04259825    
  -1.28948605      0.428772002       0.00000000       4422.75342       2.04259825    
  -1.28842103      0.428404987     -0.303512990       4422.75342       2.04259825    
  -1.23108304      0.575536013     -0.303514004       4422.75342       2.04259825    
  -1.28842103      0.428404987     -0.303512990       4397.70508       2.03933334    
  -1.33082402      0.275959998     -0.303492010       4397.70508       2.03933334    
  -1.33550000      0.277083993     -0.606999993       4397.70508       2.03933334    