 VARIABLES="X" "Y" "Z" "abs(p) (Pa)" "angle(p) (rad)"
ZONE N=   2720,E =    2069, F=FEPOINT, ET=QUADRILATERAL
 -0.767116010      -1.12776399       0.00000000       66124.8438       1.67694950    
 -0.769354999      -1.12002099     -0.303523988       66124.8438       1.67694950    
 -0.896136999      -1.02028203     -0.303463012       66124.8438       1.67694950    
 -0.894908011      -1.02288902       0.00000000       66124.8438       1.67694950    
 -0.767116010      -1.12776399       0.00000000       61583.3672       1.68442369    
 -0.630888999      -1.20308697       0.00000000       61583.3672       1.68442369    
 -0.635528028      -1.19958198     -0.303541005       61583.3672       1.68442369    
 -0.769354999      -1.12002099     -0.303523988       61583.3672       1.68442369    
 -0.635528028      -1.19958198     -0.303541005       26654.0000       1.69946420    
 -0.495362997      -1.26606500     -0.303519011       26654.0000       1.69946420    
 -0.499298006      -1.26809204     -0.606999993       26654.0000       1.69946420    
 -0.640147984      -1.19813800     -0.606998026       26654.0000       1.69946420    
 -0.635528028      -1.19958198     -0.303541005       29122.4062       1.68894410    
 -0.640147984      -1.19813800     -0.606998026       29122.4062       1.68894410    
 -0.777105987      -1.11956596     -0.606999993       29122.4062       1.68894410    
 -0.769354999      -1.12002099     -0.303523988       29122.4062       1.68894410    
 -0.635528028      -1.19958198     -0.303541005       56135.2539       1.69467545    
 -0.630888999      -1.20308697       0.00000000       56135.2539       1.69467545    
 -0.494486004      -1.26955199       0.00000000       56135.2539       1.69467545    
 -0.495362997      -1.26606500     -0.303519011       56135.2539       1.69467545    
 -0.494486004      -1.26955199       0.00000000       51364.6992       1.70618308    
 -0.346311986      -1.31449997       0.00000000       51364.6992       1.70618308    
 -0.346753001      -1.31307304     -0.303510010       51364.6992       1.70618308    
 -0.495362997      -1.26606500     -0.303519011       51364.6992       1.70618308    
 -0.346753001      -1.31307304     -0.303510010       21508.5078       1.72914565    
 -0.193608001      -1.34425998     -0.303494990       21508.5078       1.72914565    
 -0.195028007      -1.34579206     -0.606999993       21508.5078       1.72914565    
 -0.348751009      -1.31376004     -0.606999993       21508.5078       1.72914565    
 -0.346753001      -1.31307304     -0.303510010       24165.7891       1.71228707    
 -0.348751009      -1.31376004     -0.606999993       24165.7891       1.71228707    
 -0.499298006      -1.26809204     -0.606999993       24165.7891       1.71228707    
 -0.495362997      -1.26606500     -0.303519011       24165.7891       1.71228707    
 -0.346753001      -1.31307304     -0.303510010       46360.1953       1.72114575    
 -0.346311986      -1.31449997       0.00000000       46360.1953       1.72114575    
 -0.193381995      -1.34595394       0.00000000       46360.1953       1.72114575    
 -0.193608001      -1.34425998     -0.303494990       46360.1953       1.72114575    
 -0.193381995      -1.34595394       0.00000000       41632.5547       1.73862386    
  -3.75179984E-02  -1.36130500       0.00000000       41632.5547       1.73862386    
  -3.73950005E-02  -1.35827899     -0.303512007       41632.5547       1.73862386    
 -0.193608001      -1.34425998     -0.303494990       41632.5547       1.73862386    
  -3.73950005E-02  -1.35827899     -0.303512007       16016.4482       1.78078973    
  0.119547002      -1.35239303     -0.303498000       16016.4482       1.78078973    
  0.119135000      -1.35326600     -0.606999993       16016.4482       1.78078973    
  -3.82840000E-02  -1.36122894     -0.606998980       16016.4482       1.78078973    
  -3.73950005E-02  -1.35827899     -0.303512007       18761.0703       1.75144041    
  -3.82840000E-02  -1.36122894     -0.606998980       18761.0703       1.75144041    
 -0.195028007      -1.34579206     -0.606999993       18761.0703       1.75144041    
 -0.193608001      -1.34425998     -0.303494990       18761.0703       1.75144041    
  -3.73950005E-02  -1.35827899     -0.303512007       36066.9336       1.76193953    
  -3.75179984E-02  -1.36130500       0.00000000       36066.9336       1.76193953    
  0.119788997      -1.35320199       0.00000000       36066.9336       1.76193953    
  0.119547002      -1.35239303     -0.303498000       36066.9336       1.76193953    
  0.119788997      -1.35320199       0.00000000       30407.3613       1.79485118    
  0.276576012      -1.33565402       0.00000000       30407.3613       1.79485118    
  0.275435001      -1.33191597     -0.303496003       30407.3613       1.79485118    
  0.119547002      -1.35239303     -0.303498000       30407.3613       1.79485118    
  0.275435001      -1.33191597     -0.303496003       10821.5977       1.87703824    
  0.427076995      -1.28898001     -0.303507000       10821.5977       1.87703824    
  0.427242011      -1.28995001     -0.606999993       10821.5977       1.87703824    
  0.275831014      -1.33588004     -0.606999993       10821.5977       1.87703824    
  0.275435001      -1.33191597     -0.303496003       13436.4531       1.81888974    
  0.275831014      -1.33588004     -0.606999993       13436.4531       1.81888974    
  0.119135000      -1.35326600     -0.606999993       13436.4531       1.81888974    
  0.119547002      -1.35239303     -0.303498000       13436.4531       1.81888974    
  0.275435001      -1.33191597     -0.303496003       25018.1680       1.83928025    
  0.276576012      -1.33565402       0.00000000       25018.1680       1.83928025    
  0.427509993      -1.28986895       0.00000000       25018.1680       1.83928025    
  0.427076995      -1.28898001     -0.303507000       25018.1680       1.83928025    
  0.427509993      -1.28986895       0.00000000       19694.4492       1.90680289    
  0.574636996      -1.23315501       0.00000000       19694.4492       1.90680289    
  0.573706985      -1.23136795     -0.303485990       19694.4492       1.90680289    
  0.427076995      -1.28898001     -0.303507000       19694.4492       1.90680289    
  0.573706985      -1.23136795     -0.303485990       6011.41748       2.13539553    
  0.712854981      -1.15688002     -0.303496987       6011.41748       2.13539553    
  0.713809013      -1.15876603     -0.606999993       6011.41748       2.13539553    
  0.574283004      -1.23334301     -0.606999993       6011.41748       2.13539553    
  0.573706985      -1.23136795     -0.303485990       8266.86035       1.97246408    
  0.574283004      -1.23334301     -0.606999993       8266.86035       1.97246408    
  0.427242011      -1.28995001     -0.606999993       8266.86035       1.97246408    
  0.427076995      -1.28898001     -0.303507000       8266.86035       1.97246408    
  0.573706985      -1.23136795     -0.303485990       15051.7178       2.01313949    
  0.574636996      -1.23315501       0.00000000       15051.7178       2.01313949    
  0.713741004      -1.15880203       0.00000000       15051.7178       2.01313949    
  0.712854981      -1.15688002     -0.303496987       15051.7178       2.01313949    
  0.713741004      -1.15880203       0.00000000       11138.4990       2.18749332    
  0.841937006      -1.06636095       0.00000000       11138.4990       2.18749332    
  0.841498017      -1.06573403     -0.303485990       11138.4990       2.18749332    
  0.712854981      -1.15688002     -0.303496987       11138.4990       2.18749332    
  0.841498017      -1.06573403     -0.303485990       3293.25488       2.93922710    
  0.960639000     -0.962104976     -0.303470999       3293.25488       2.93922710    
  0.964356005     -0.965893984     -0.606999993       3293.25488       2.93922710    
  0.841796994      -1.06647599     -0.606999993       3293.25488       2.93922710    
  0.841498017      -1.06573403     -0.303485990       4263.39941       2.42460752    
  0.841796994      -1.06647599     -0.606999993       4263.39941       2.42460752    
  0.713809013      -1.15876603     -0.606999993       4263.39941       2.42460752    
  0.712854981      -1.15688002     -0.303496987       4263.39941       2.42460752    
  0.841498017      -1.06573403     -0.303485990       8340.17871       2.48208904    
  0.841937006      -1.06636095       0.00000000       8340.17871       2.48208904    
  0.963932991     -0.966242015       0.00000000       8340.17871       2.48208904    
  0.960639000     -0.962104976     -0.303470999       8340.17871       2.48208904    
  0.963932991     -0.966242015       0.00000000       6877.67627       2.89846158    
   1.06506598     -0.843514979       0.00000000       6877.67627       2.89846158    
   1.06428695     -0.842682004     -0.303481996       6877.67627       2.89846158    
  0.960639000     -0.962104976     -0.303470999       6877.67627       2.89846158    
   1.06428695     -0.842682004     -0.303481996       4503.64893      -2.38033104    
   1.15591598     -0.714210987     -0.303485006       4503.64893      -2.38033104    
   1.15788805     -0.715448976     -0.606999993       4503.64893      -2.38033104    
   1.06537795     -0.843134999     -0.606999993       4503.64893      -2.38033104    
   1.06428695     -0.842682004     -0.303481996       3449.42554      -2.79240084    
   1.06537795     -0.843134999     -0.606999993       3449.42554      -2.79240084    
  0.964356005     -0.965893984     -0.606999993       3449.42554      -2.79240084    
  0.960639000     -0.962104976     -0.303470999       3449.42554      -2.79240084    
   1.06428695     -0.842682004     -0.303481996       6832.21484      -2.90797710    
   1.06506598     -0.843514979       0.00000000       6832.21484      -2.90797710    
   1.15792501     -0.715381980       0.00000000       6832.21484      -2.90797710    
   1.15591598     -0.714210987     -0.303485006       6832.21484      -2.90797710    
   1.15792501     -0.715381980       0.00000000       8013.52002      -2.57069159    
   1.23237598     -0.576093972       0.00000000       8013.52002      -2.57069159    
   1.23120904     -0.575251997     -0.303514004       8013.52002      -2.57069159    
   1.15591598     -0.714210987     -0.303485006       8013.52002      -2.57069159    
   1.23120904     -0.575251997     -0.303514004       6545.29150      -2.10154581    
   1.28844094     -0.428344995     -0.303512990       6545.29150      -2.10154581    
   1.28952503     -0.428642988     -0.606999993       6545.29150      -2.10154581    
   1.23252702     -0.575810015     -0.606999993       6545.29150      -2.10154581    
   1.23120904     -0.575251997     -0.303514004       5575.83789      -2.20157313    
   1.23252702     -0.575810015     -0.606999993       5575.83789      -2.20157313    
   1.15788805     -0.715448976     -0.606999993       5575.83789      -2.20157313    
   1.15591598     -0.714210987     -0.303485006       5575.83789      -2.20157313    
   1.23120904     -0.575251997     -0.303514004       9678.50586      -2.35358453    
   1.23237598     -0.576093972       0.00000000       9678.50586      -2.35358453    
   1.28947699     -0.428801000       0.00000000       9678.50586      -2.35358453    
   1.28844094     -0.428344995     -0.303512990       9678.50586      -2.35358453    
   1.28947699     -0.428801000       0.00000000       11007.9512      -2.25539684    
   1.33532202     -0.277671993       0.00000000       11007.9512      -2.25539684    
   1.33076501     -0.276203990     -0.303492010       11007.9512      -2.25539684    
   1.28844094     -0.428344995     -0.303512990       11007.9512      -2.25539684    
   1.33076501     -0.276203990     -0.303492010       8166.97656      -1.99413705    
   1.35229194     -0.119709998     -0.303514004       8166.97656      -1.99413705    
   1.35321999     -0.119608998     -0.606999993       8166.97656      -1.99413705    
   1.33549094     -0.277112991     -0.606999993       8166.97656      -1.99413705    
   1.33076501     -0.276203990     -0.303492010       7294.73291      -2.04565024    
   1.33549094     -0.277112991     -0.606999993       7294.73291      -2.04565024    
   1.28952503     -0.428642988     -0.606999993       7294.73291      -2.04565024    
   1.28844094     -0.428344995     -0.303512990       7294.73291      -2.04565024    
   1.33076501     -0.276203990     -0.303492010       11690.8828      -2.21441507    
   1.33532202     -0.277671993       0.00000000       11690.8828      -2.21441507    
   1.35319102     -0.119900003       0.00000000       11690.8828      -2.21441507    
   1.35229194     -0.119709998     -0.303514004       11690.8828      -2.21441507    
   1.35319102     -0.119900003       0.00000000       12140.6270      -2.18970585    
   1.36124396       3.81390005E-02   0.00000000       12140.6270      -2.18970585    
   1.35858905       3.79349999E-02 -0.303501010       12140.6270      -2.18970585    
   1.35229194     -0.119709998     -0.303514004       12140.6270      -2.18970585    
   1.35858905       3.79349999E-02 -0.303501010       8106.06201      -2.00315809    
   1.34464097      0.195331007     -0.303496003       8106.06201      -2.00315809    
   1.34573400      0.195616007     -0.606999993       8106.06201      -2.00315809    
   1.36126804       3.78950015E-02 -0.606999993       8106.06201      -2.00315809    
   1.35858905       3.79349999E-02 -0.303501010       8180.38770      -1.99658251    
   1.36126804       3.78950015E-02 -0.606999993       8180.38770      -1.99658251    
   1.35321999     -0.119608998     -0.606999993       8180.38770      -1.99658251    
   1.35229194     -0.119709998     -0.303514004       8180.38770      -1.99658251    
   1.35858905       3.79349999E-02 -0.303501010       12471.7412      -2.17725873    
   1.36124396       3.81390005E-02   0.00000000       12471.7412      -2.17725873    
   1.34575403      0.195406005       0.00000000       12471.7412      -2.17725873    
   1.34464097      0.195331007     -0.303496003       12471.7412      -2.17725873    
   1.34575403      0.195406005       0.00000000       11932.5020      -2.21148181    
   1.31339800      0.349945009       0.00000000       11932.5020      -2.21148181    
   1.31216300      0.349725991     -0.303487003       11932.5020      -2.21148181    
   1.34464097      0.195331007     -0.303496003       11932.5020      -2.21148181    
   1.31216300      0.349725991     -0.303487003       7081.74170      -2.07249832    
   1.26341999      0.500032008     -0.303494006       7081.74170      -2.07249832    
   1.26736605      0.501691997     -0.606999993       7081.74170      -2.07249832    
   1.31333196      0.350163996     -0.606999993       7081.74170      -2.07249832    
   1.31216300      0.349725991     -0.303487003       7770.16113      -2.02453232    
   1.31333196      0.350163996     -0.606999993       7770.16113      -2.02453232    
   1.34573400      0.195616007     -0.606999993       7770.16113      -2.02453232    
   1.34464097      0.195331007     -0.303496003       7770.16113      -2.02453232    
   1.31216300      0.349725991     -0.303487003       10955.8721      -2.28529429    
   1.31339800      0.349945009       0.00000000       10955.8721      -2.28529429    
   1.26751196      0.501209974       0.00000000       10955.8721      -2.28529429    
   1.26341999      0.500032008     -0.303494006       10955.8721      -2.28529429    
   1.26751196      0.501209974       0.00000000       9349.32715      -2.44538116    
   1.19658697      0.643051028       0.00000000       9349.32715      -2.44538116    
   1.19583094      0.642783999     -0.303505003       9349.32715      -2.44538116    
   1.26341999      0.500032008     -0.303494006       9349.32715      -2.44538116    
   1.19583094      0.642783999     -0.303505003       5386.39355      -2.24852657    
   1.11495602      0.778467000     -0.303483993       5386.39355      -2.24852657    
   1.11731696      0.779847026     -0.606999993       5386.39355      -2.24852657    
   1.19653296      0.643149972     -0.606999993       5386.39355      -2.24852657    
   1.19583094      0.642783999     -0.303505003       6233.04199      -2.14688182    
   1.19653296      0.643149972     -0.606999993       6233.04199      -2.14688182    
   1.26736605      0.501691997     -0.606999993       6233.04199      -2.14688182    
   1.26341999      0.500032008     -0.303494006       6233.04199      -2.14688182    
   1.19583094      0.642783999     -0.303505003       7848.24902      -2.69235635    
   1.19658697      0.643051028       0.00000000       7848.24902      -2.69235635    
   1.11705506      0.780165970       0.00000000       7848.24902      -2.69235635    
   1.11495602      0.778467000     -0.303483993       7848.24902      -2.69235635    
   1.11705506      0.780165970       0.00000000       6943.65234      -3.07581925    
   1.01674199      0.902397990       0.00000000       6943.65234      -3.07581925    
   1.01591504      0.901737988     -0.303478003       6943.65234      -3.07581925    
   1.11495602      0.778467000     -0.303483993       6943.65234      -3.07581925    
   1.01591504      0.901737988     -0.303478003       3352.73804      -2.99296975    
  0.904204011       1.01322901     -0.303456992       3352.73804      -2.99296975    
  0.905143023       1.01448905     -0.606999993       3352.73804      -2.99296975    
   1.01659799      0.902572989     -0.606999993       3352.73804      -2.99296975    
   1.01591504      0.901737988     -0.303478003       4059.21509      -2.54080129    
   1.01659799      0.902572989     -0.606999993       4059.21509      -2.54080129    
   1.11731696      0.779847026     -0.606999993       4059.21509      -2.54080129    
   1.11495602      0.778467000     -0.303483993       4059.21509      -2.54080129    
   1.01591504      0.901737988     -0.303478003       7386.45557       2.72703266    
   1.01674199      0.902397990       0.00000000       7386.45557       2.72703266    
  0.905318975       1.01434398       0.00000000       7386.45557       2.72703266    
  0.904204011       1.01322901     -0.303456992       7386.45557       2.72703266    
  0.905318975       1.01434398       0.00000000       9502.12695       2.36338830    
  0.782918990       1.11479497       0.00000000       9502.12695       2.36338830    
  0.780644000       1.11195600     -0.303485006       9502.12695       2.36338830    
  0.904204011       1.01322901     -0.303456992       9502.12695       2.36338830    
  0.780644000       1.11195600     -0.303485006       4981.22363       2.29121161    
  0.645825028       1.19414902     -0.303514004       4981.22363       2.29121161    
  0.646153986       1.19492805     -0.606999993       4981.22363       2.29121161    
  0.782611012       1.11504900     -0.606999993       4981.22363       2.29121161    
  0.780644000       1.11195600     -0.303485006       3637.87402       2.70420003    
  0.782611012       1.11504900     -0.606999993       3637.87402       2.70420003    
  0.905143023       1.01448905     -0.606999993       3637.87402       2.70420003    
  0.904204011       1.01322901     -0.303456992       3637.87402       2.70420003    
  0.780644000       1.11195600     -0.303485006       12741.6895       2.12705231    
  0.782918990       1.11479497       0.00000000       12741.6895       2.12705231    
  0.646345019       1.19482601       0.00000000       12741.6895       2.12705231    
  0.645825028       1.19414902     -0.303514004       12741.6895       2.12705231    
  0.646345019       1.19482601       0.00000000       17356.5723       1.97005069    
  0.504974008       1.26637006       0.00000000       17356.5723       1.97005069    
  0.503772974       1.26314998     -0.303521991       17356.5723       1.97005069    
  0.645825028       1.19414902     -0.303514004       17356.5723       1.97005069    
  0.503772974       1.26314998     -0.303521991       9278.54102       1.93432605    
  0.353130996       1.31116498     -0.303510994       9278.54102       1.93432605    
  0.353300005       1.31237996     -0.606999993       9278.54102       1.93432605    
  0.505183995       1.26630700     -0.606999993       9278.54102       1.93432605    
  0.503772974       1.26314998     -0.303521991       7000.93311       2.05991721    
  0.505183995       1.26630700     -0.606999993       7000.93311       2.05991721    
  0.646153986       1.19492805     -0.606999993       7000.93311       2.05991721    
  0.645825028       1.19414902     -0.303514004       7000.93311       2.05991721    
  0.503772974       1.26314998     -0.303521991       21923.3379       1.88371837    
  0.504974008       1.26637006       0.00000000       21923.3379       1.88371837    
  0.353493989       1.31232095       0.00000000       21923.3379       1.88371837    
  0.353130996       1.31116498     -0.303510994       21923.3379       1.88371837    
  0.353493989       1.31232095       0.00000000       26949.8672       1.82391644    
  0.199064001       1.34539402       0.00000000       26949.8672       1.82391644    
  0.198755994       1.34360003     -0.303496003       26949.8672       1.82391644    
  0.353130996       1.31116498     -0.303510994       26949.8672       1.82391644    
  0.198755994       1.34360003     -0.303496003       14859.6875       1.79753745    
   4.12769988E-02   1.35817802     -0.303508013       14859.6875       1.79753745    
   4.12410013E-02   1.36093795     -0.606999993       14859.6875       1.79753745    
  0.199025005       1.34539795     -0.606999993       14859.6875       1.79753745    
  0.198755994       1.34360003     -0.303496003       11866.6768       1.85411835    
  0.199025005       1.34539795     -0.606999993       11866.6768       1.85411835    
  0.353300005       1.31237996     -0.606999993       11866.6768       1.85411835    
  0.353130996       1.31116498     -0.303510994       11866.6768       1.85411835    
  0.198755994       1.34360003     -0.303496003       32484.9297       1.78262365    
  0.199064001       1.34539402       0.00000000       32484.9297       1.78262365    
   4.17769998E-02   1.36088502       0.00000000       32484.9297       1.78262365    
   4.12769988E-02   1.35817802     -0.303508013       32484.9297       1.78262365    
   4.17769998E-02   1.36088502       0.00000000       38024.5156       1.75385475    
 -0.116410002       1.35353506       0.00000000       38024.5156       1.75385475    
 -0.116471998       1.35271096     -0.303496987       38024.5156       1.75385475    
   4.12769988E-02   1.35817802     -0.303508013       38024.5156       1.75385475    
 -0.116471998       1.35271096     -0.303496987       20477.5605       1.73699331    
 -0.273027003       1.33229196     -0.303496003       20477.5605       1.73699331    
 -0.273876995       1.33647299     -0.606999993       20477.5605       1.73699331    
 -0.116722003       1.35350394     -0.606999993       20477.5605       1.73699331    
 -0.116471998       1.35271096     -0.303496987       17593.1758       1.76332974    
 -0.116722003       1.35350394     -0.606999993       17593.1758       1.76332974    
   4.12410013E-02   1.36093795     -0.606999993       17593.1758       1.76332974    
   4.12769988E-02   1.35817802     -0.303508013       17593.1758       1.76332974    
 -0.116471998       1.35271096     -0.303496987       44017.2031       1.73155987    
 -0.116410002       1.35353506       0.00000000       44017.2031       1.73155987    
 -0.274069011       1.33641505       0.00000000       44017.2031       1.73155987    
 -0.273027003       1.33229196     -0.303496003       44017.2031       1.73155987    
 -0.274069011       1.33641505       0.00000000       48875.1406       1.71512568    
 -0.425588995       1.29045200       0.00000000       48875.1406       1.71512568    
 -0.425258011       1.28953803     -0.303507000       48875.1406       1.71512568    
 -0.273027003       1.33229196     -0.303496003       48875.1406       1.71512568    
 -0.425258011       1.28953803     -0.303507000       25475.9844       1.70396447    
 -0.572302997       1.23206902     -0.303485990       25475.9844       1.70396447    
 -0.573064029       1.23399496     -0.606999993       25475.9844       1.70396447    
 -0.425651014       1.29043305     -0.606999993       25475.9844       1.70396447    
 -0.425258011       1.28953803     -0.303507000       23012.8359       1.71878374    
 -0.425651014       1.29043305     -0.606999993       23012.8359       1.71878374    
 -0.273876995       1.33647299     -0.606999993       23012.8359       1.71878374    
 -0.273027003       1.33229196     -0.303496003       23012.8359       1.71878374    
 -0.425258011       1.28953803     -0.303507000       52800.2266       1.70137227    
 -0.425588995       1.29045200       0.00000000       52800.2266       1.70137227    
 -0.573195994       1.23392498       0.00000000       52800.2266       1.70137227    
 -0.572302997       1.23206902     -0.303485990       52800.2266       1.70137227    
 -0.573195994       1.23392498       0.00000000       56834.3750       1.69023550    
 -0.712655008       1.15938199       0.00000000       56834.3750       1.69023550    
 -0.711889029       1.15749002     -0.303496003       56834.3750       1.69023550    
 -0.572302997       1.23206902     -0.303485990       56834.3750       1.69023550    
 -0.711889029       1.15749002     -0.303496003       29910.2031       1.68322611    
 -0.840825975       1.06629205     -0.303485990       29910.2031       1.68322611    
 -0.841368973       1.06682706     -0.606999993       29910.2031       1.68322611    
 -0.712980986       1.15920806     -0.606999993       29910.2031       1.68322611    
 -0.711889029       1.15749002     -0.303496003       27731.3691       1.69256771    
 -0.712980986       1.15920806     -0.606999993       27731.3691       1.69256771    
 -0.573064029       1.23399496     -0.606999993       27731.3691       1.69256771    
 -0.572302997       1.23206902     -0.303485990       27731.3691       1.69256771    
 -0.711889029       1.15749002     -0.303496003       60244.8398       1.68126333    
 -0.712655008       1.15938199       0.00000000       60244.8398       1.68126333    
 -0.841165006       1.06699395       0.00000000       60244.8398       1.68126333    
 -0.840825975       1.06629205     -0.303485990       60244.8398       1.68126333    
 -0.841165006       1.06699395       0.00000000       64618.4609       1.67391360    
 -0.963320017      0.966744006       0.00000000       64618.4609       1.67391360    
 -0.960084975      0.962615013     -0.303470999       64618.4609       1.67391360    
 -0.840825975       1.06629205     -0.303485990       64618.4609       1.67391360    
 -0.960084975      0.962615013     -0.303470999       34198.7070       1.66969645    
  -1.06383705      0.843237996     -0.303481996       34198.7070       1.66969645    
  -1.06481802      0.843816996     -0.606999993       34198.7070       1.66969645    
 -0.963873982      0.966289997     -0.606999993       34198.7070       1.66969645    
 -0.960084975      0.962615013     -0.303470999       32102.0488       1.67552376    
 -0.963873982      0.966289997     -0.606999993       32102.0488       1.67552376    
 -0.841368973       1.06682706     -0.606999993       32102.0488       1.67552376    
 -0.840825975       1.06629205     -0.303485990       32102.0488       1.67552376    
 -0.960084975      0.962615013     -0.303470999       69048.7812       1.66825962    
 -0.963320017      0.966744006       0.00000000       69048.7812       1.66825962    
  -1.06464398      0.844029009       0.00000000       69048.7812       1.66825962    
  -1.06383705      0.843237996     -0.303481996       69048.7812       1.66825962    
  -1.06464398      0.844029009       0.00000000       73294.9062       1.66370797    
  -1.15769398      0.715813994       0.00000000       73294.9062       1.66370797    
  -1.15564799      0.714680016     -0.303483993       73294.9062       1.66370797    
  -1.06383705      0.843237996     -0.303481996       73294.9062       1.66370797    
  -1.15564799      0.714680016     -0.303483993       38297.7969       1.66143000    
  -1.23108304      0.575536013     -0.303514004       38297.7969       1.66143000    
  -1.23232996      0.576179981     -0.606999993       38297.7969       1.66143000    
  -1.15756094      0.716063023     -0.606999993       38297.7969       1.66143000    
  -1.15564799      0.714680016     -0.303483993       36337.2539       1.66502130    
  -1.15756094      0.716063023     -0.606999993       36337.2539       1.66502130    
  -1.06481802      0.843816996     -0.606999993       36337.2539       1.66502130    
  -1.06383705      0.843237996     -0.303481996       36337.2539       1.66502130    
  -1.15564799      0.714680016     -0.303483993       78209.5000       1.66031444    
  -1.15769398      0.715813994       0.00000000       78209.5000       1.66031444    
  -1.23224795      0.576331973       0.00000000       78209.5000       1.66031444    
  -1.23108304      0.575536013     -0.303514004       78209.5000       1.66031444    
  -1.23224795      0.576331973       0.00000000       81323.6328       1.65781200    
  -1.28948605      0.428772002       0.00000000       81323.6328       1.65781200    
  -1.28842103      0.428404987     -0.303512990       81323.6328       1.65781200    
  -1.23108304      0.575536013     -0.303514004       81323.6328       1.65781200    
  -1.28842103      0.428404987     -0.303512990       40591.2656       1.65786123    
  -1.33082402      0.275959998     -0.303492010       40591.2656       1.65786123    
  -1.33550000      0.277083993     -0.606999993       40591.2656       1.65786123    