 VARIABLES="X" "Y" "Z" "abs(p) (Pa)" "angle(p) (rad)"
ZONE N=   2720,E =    2069, F=FEPOINT, ET=QUADRILATERAL
 -0.767116010      -1.12776399       0.00000000       33.8693466       1.92968321    
 -0.769354999      -1.12002099     -0.303523988       33.8693466       1.92968321    
 -0.896136999      -1.02028203     -0.303463012       33.8693466       1.92968321    
 -0.894908011      -1.02288902       0.00000000       33.8693466       1.92968321    
 -0.767116010      -1.12776399       0.00000000       34.5723038       1.92810941    
 -0.630888999      -1.20308697       0.00000000       34.5723038       1.92810941    
 -0.635528028      -1.19958198     -0.303541005       34.5723038       1.92810941    
 -0.769354999      -1.12002099     -0.303523988       34.5723038       1.92810941    
 -0.635528028      -1.19958198     -0.303541005       52.1654587       1.80926132    
 -0.495362997      -1.26606500     -0.303519011       52.1654587       1.80926132    
 -0.499298006      -1.26809204     -0.606999993       52.1654587       1.80926132    
 -0.640147984      -1.19813800     -0.606998026       52.1654587       1.80926132    
 -0.635528028      -1.19958198     -0.303541005       51.6943016       1.80764341    
 -0.640147984      -1.19813800     -0.606998026       51.6943016       1.80764341    
 -0.777105987      -1.11956596     -0.606999993       51.6943016       1.80764341    
 -0.769354999      -1.12002099     -0.303523988       51.6943016       1.80764341    
 -0.635528028      -1.19958198     -0.303541005       53.5104752       1.80195189    
 -0.630888999      -1.20308697       0.00000000       53.5104752       1.80195189    
 -0.494486004      -1.26955199       0.00000000       53.5104752       1.80195189    
 -0.495362997      -1.26606500     -0.303519011       53.5104752       1.80195189    
 -0.494486004      -1.26955199       0.00000000       53.4798622       1.80484414    
 -0.346311986      -1.31449997       0.00000000       53.4798622       1.80484414    
 -0.346753001      -1.31307304     -0.303510010       53.4798622       1.80484414    
 -0.495362997      -1.26606500     -0.303519011       53.4798622       1.80484414    
 -0.346753001      -1.31307304     -0.303510010       53.1082077       1.81051135    
 -0.193608001      -1.34425998     -0.303494990       53.1082077       1.81051135    
 -0.195028007      -1.34579206     -0.606999993       53.1082077       1.81051135    
 -0.348751009      -1.31376004     -0.606999993       53.1082077       1.81051135    
 -0.346753001      -1.31307304     -0.303510010       52.5820770       1.81043673    
 -0.348751009      -1.31376004     -0.606999993       52.5820770       1.81043673    
 -0.499298006      -1.26809204     -0.606999993       52.5820770       1.81043673    
 -0.495362997      -1.26606500     -0.303519011       52.5820770       1.81043673    
 -0.346753001      -1.31307304     -0.303510010       53.3745842       1.80759490    
 -0.346311986      -1.31449997       0.00000000       53.3745842       1.80759490    
 -0.193381995      -1.34595394       0.00000000       53.3745842       1.80759490    
 -0.193608001      -1.34425998     -0.303494990       53.3745842       1.80759490    
 -0.193381995      -1.34595394       0.00000000       35.0575829       1.93882155    
  -3.75179984E-02  -1.36130500       0.00000000       35.0575829       1.93882155    
  -3.73950005E-02  -1.35827899     -0.303512007       35.0575829       1.93882155    
 -0.193608001      -1.34425998     -0.303494990       35.0575829       1.93882155    
  -3.73950005E-02  -1.35827899     -0.303512007       52.8221130       1.81496298    
  0.119547002      -1.35239303     -0.303498000       52.8221130       1.81496298    
  0.119135000      -1.35326600     -0.606999993       52.8221130       1.81496298    
  -3.82840000E-02  -1.36122894     -0.606998980       52.8221130       1.81496298    
  -3.73950005E-02  -1.35827899     -0.303512007       50.2318192       1.82657993    
  -3.82840000E-02  -1.36122894     -0.606998980       50.2318192       1.82657993    
 -0.195028007      -1.34579206     -0.606999993       50.2318192       1.82657993    
 -0.193608001      -1.34425998     -0.303494990       50.2318192       1.82657993    
  -3.73950005E-02  -1.35827899     -0.303512007       35.2454872       1.93833971    
  -3.75179984E-02  -1.36130500       0.00000000       35.2454872       1.93833971    
  0.119788997      -1.35320199       0.00000000       35.2454872       1.93833971    
  0.119547002      -1.35239303     -0.303498000       35.2454872       1.93833971    
  0.119788997      -1.35320199       0.00000000       32.5023918       1.97192752    
  0.276576012      -1.33565402       0.00000000       32.5023918       1.97192752    
  0.275435001      -1.33191597     -0.303496003       32.5023918       1.97192752    
  0.119547002      -1.35239303     -0.303498000       32.5023918       1.97192752    
  0.275435001      -1.33191597     -0.303496003       28.4854221       2.03724337    
  0.427076995      -1.28898001     -0.303507000       28.4854221       2.03724337    
  0.427242011      -1.28995001     -0.606999993       28.4854221       2.03724337    
  0.275831014      -1.33588004     -0.606999993       28.4854221       2.03724337    
  0.275435001      -1.33191597     -0.303496003       27.9737206       2.04669595    
  0.275831014      -1.33588004     -0.606999993       27.9737206       2.04669595    
  0.119135000      -1.35326600     -0.606999993       27.9737206       2.04669595    
  0.119547002      -1.35239303     -0.303498000       27.9737206       2.04669595    
  0.275435001      -1.33191597     -0.303496003       32.8309288       1.96744728    
  0.276576012      -1.33565402       0.00000000       32.8309288       1.96744728    
  0.427509993      -1.28986895       0.00000000       32.8309288       1.96744728    
  0.427076995      -1.28898001     -0.303507000       32.8309288       1.96744728    
  0.427509993      -1.28986895       0.00000000       36.2029572       1.92737877    
  0.574636996      -1.23315501       0.00000000       36.2029572       1.92737877    
  0.573706985      -1.23136795     -0.303485990       36.2029572       1.92737877    
  0.427076995      -1.28898001     -0.303507000       36.2029572       1.92737877    
  0.573706985      -1.23136795     -0.303485990       30.4477882       2.00076556    
  0.712854981      -1.15688002     -0.303496987       30.4477882       2.00076556    
  0.713809013      -1.15876603     -0.606999993       30.4477882       2.00076556    
  0.574283004      -1.23334301     -0.606999993       30.4477882       2.00076556    
  0.573706985      -1.23136795     -0.303485990       28.9595699       2.02730846    
  0.574283004      -1.23334301     -0.606999993       28.9595699       2.02730846    
  0.427242011      -1.28995001     -0.606999993       28.9595699       2.02730846    
  0.427076995      -1.28898001     -0.303507000       28.9595699       2.02730846    
  0.573706985      -1.23136795     -0.303485990       38.6640739       1.90178907    
  0.574636996      -1.23315501       0.00000000       38.6640739       1.90178907    
  0.713741004      -1.15880203       0.00000000       38.6640739       1.90178907    
  0.712854981      -1.15688002     -0.303496987       38.6640739       1.90178907    
  0.713741004      -1.15880203       0.00000000       38.6131477       1.89949226    
  0.841937006      -1.06636095       0.00000000       38.6131477       1.89949226    
  0.841498017      -1.06573403     -0.303485990       38.6131477       1.89949226    
  0.712854981      -1.15688002     -0.303496987       38.6131477       1.89949226    
  0.841498017      -1.06573403     -0.303485990       33.7948570       1.94785726    
  0.960639000     -0.962104976     -0.303470999       33.7948570       1.94785726    
  0.964356005     -0.965893984     -0.606999993       33.7948570       1.94785726    
  0.841796994      -1.06647599     -0.606999993       33.7948570       1.94785726    
  0.841498017      -1.06573403     -0.303485990       33.7101822       1.95331824    
  0.841796994      -1.06647599     -0.606999993       33.7101822       1.95331824    
  0.713809013      -1.15876603     -0.606999993       33.7101822       1.95331824    
  0.712854981      -1.15688002     -0.303496987       33.7101822       1.95331824    
  0.841498017      -1.06573403     -0.303485990       31.2784252       1.97685993    
  0.841937006      -1.06636095       0.00000000       31.2784252       1.97685993    
  0.963932991     -0.966242015       0.00000000       31.2784252       1.97685993    
  0.960639000     -0.962104976     -0.303470999       31.2784252       1.97685993    
  0.963932991     -0.966242015       0.00000000       29.5744076       1.99622750    
   1.06506598     -0.843514979       0.00000000       29.5744076       1.99622750    
   1.06428695     -0.842682004     -0.303481996       29.5744076       1.99622750    
  0.960639000     -0.962104976     -0.303470999       29.5744076       1.99622750    
   1.06428695     -0.842682004     -0.303481996       12.4291229       2.90474582    
   1.15591598     -0.714210987     -0.303485006       12.4291229       2.90474582    
   1.15788805     -0.715448976     -0.606999993       12.4291229       2.90474582    
   1.06537795     -0.843134999     -0.606999993       12.4291229       2.90474582    
   1.06428695     -0.842682004     -0.303481996       33.3912849       1.94723284    
   1.06537795     -0.843134999     -0.606999993       33.3912849       1.94723284    
  0.964356005     -0.965893984     -0.606999993       33.3912849       1.94723284    
  0.960639000     -0.962104976     -0.303470999       33.3912849       1.94723284    
   1.06428695     -0.842682004     -0.303481996       28.8352165       2.00047827    
   1.06506598     -0.843514979       0.00000000       28.8352165       2.00047827    
   1.15792501     -0.715381980       0.00000000       28.8352165       2.00047827    
   1.15591598     -0.714210987     -0.303485006       28.8352165       2.00047827    
   1.15792501     -0.715381980       0.00000000       28.0805626       2.00507402    
   1.23237598     -0.576093972       0.00000000       28.0805626       2.00507402    
   1.23120904     -0.575251997     -0.303514004       28.0805626       2.00507402    
   1.15591598     -0.714210987     -0.303485006       28.0805626       2.00507402    
   1.23120904     -0.575251997     -0.303514004       11.7202959       3.00145650    
   1.28844094     -0.428344995     -0.303512990       11.7202959       3.00145650    
   1.28952503     -0.428642988     -0.606999993       11.7202959       3.00145650    
   1.23252702     -0.575810015     -0.606999993       11.7202959       3.00145650    
   1.23120904     -0.575251997     -0.303514004       12.1149836       2.93496823    
   1.23252702     -0.575810015     -0.606999993       12.1149836       2.93496823    
   1.15788805     -0.715448976     -0.606999993       12.1149836       2.93496823    
   1.15591598     -0.714210987     -0.303485006       12.1149836       2.93496823    
   1.23120904     -0.575251997     -0.303514004       12.2704029      -2.81198502    
   1.23237598     -0.576093972       0.00000000       12.2704029      -2.81198502    
   1.28947699     -0.428801000       0.00000000       12.2704029      -2.81198502    
   1.28844094     -0.428344995     -0.303512990       12.2704029      -2.81198502    
   1.28947699     -0.428801000       0.00000000       11.8888006       2.84045267    
   1.33532202     -0.277671993       0.00000000       11.8888006       2.84045267    
   1.33076501     -0.276203990     -0.303492010       11.8888006       2.84045267    
   1.28844094     -0.428344995     -0.303512990       11.8888006       2.84045267    
   1.33076501     -0.276203990     -0.303492010       42.1996536      -1.83572018    
   1.35229194     -0.119709998     -0.303514004       42.1996536      -1.83572018    
   1.35321999     -0.119608998     -0.606999993       42.1996536      -1.83572018    
   1.33549094     -0.277112991     -0.606999993       42.1996536      -1.83572018    
   1.33076501     -0.276203990     -0.303492010       11.4628658      -2.99035358    
   1.33549094     -0.277112991     -0.606999993       11.4628658      -2.99035358    
   1.28952503     -0.428642988     -0.606999993       11.4628658      -2.99035358    
   1.28844094     -0.428344995     -0.303512990       11.4628658      -2.99035358    
   1.33076501     -0.276203990     -0.303492010       32.7323341       1.91615117    
   1.33532202     -0.277671993       0.00000000       32.7323341       1.91615117    
   1.35319102     -0.119900003       0.00000000       32.7323341       1.91615117    
   1.35229194     -0.119709998     -0.303514004       32.7323341       1.91615117    
   1.35319102     -0.119900003       0.00000000       31.3035698       1.92314124    
   1.36124396       3.81390005E-02   0.00000000       31.3035698       1.92314124    
   1.35858905       3.79349999E-02 -0.303501010       31.3035698       1.92314124    
   1.35229194     -0.119709998     -0.303514004       31.3035698       1.92314124    
   1.35858905       3.79349999E-02 -0.303501010       18.5369434      -2.16755104    
   1.34464097      0.195331007     -0.303496003       18.5369434      -2.16755104    
   1.34573400      0.195616007     -0.606999993       18.5369434      -2.16755104    
   1.36126804       3.78950015E-02 -0.606999993       18.5369434      -2.16755104    
   1.35858905       3.79349999E-02 -0.303501010       16.8584976      -2.26041436    
   1.36126804       3.78950015E-02 -0.606999993       16.8584976      -2.26041436    
   1.35321999     -0.119608998     -0.606999993       16.8584976      -2.26041436    
   1.35229194     -0.119709998     -0.303514004       16.8584976      -2.26041436    
   1.35858905       3.79349999E-02 -0.303501010       15.0024414      -2.34847331    
   1.36124396       3.81390005E-02   0.00000000       15.0024414      -2.34847331    
   1.34575403      0.195406005       0.00000000       15.0024414      -2.34847331    
   1.34464097      0.195331007     -0.303496003       15.0024414      -2.34847331    
   1.34575403      0.195406005       0.00000000       15.1160927      -2.31509519    
   1.31339800      0.349945009       0.00000000       15.1160927      -2.31509519    
   1.31216300      0.349725991     -0.303487003       15.1160927      -2.31509519    
   1.34464097      0.195331007     -0.303496003       15.1160927      -2.31509519    
   1.31216300      0.349725991     -0.303487003       14.3410263      -2.31976581    
   1.26341999      0.500032008     -0.303494006       14.3410263      -2.31976581    
   1.26736605      0.501691997     -0.606999993       14.3410263      -2.31976581    
   1.31333196      0.350163996     -0.606999993       14.3410263      -2.31976581    
   1.31216300      0.349725991     -0.303487003       19.5160828      -2.11466217    
   1.31333196      0.350163996     -0.606999993       19.5160828      -2.11466217    
   1.34573400      0.195616007     -0.606999993       19.5160828      -2.11466217    
   1.34464097      0.195331007     -0.303496003       19.5160828      -2.11466217    
   1.31216300      0.349725991     -0.303487003       15.0138931      -2.29557514    
   1.31339800      0.349945009       0.00000000       15.0138931      -2.29557514    
   1.26751196      0.501209974       0.00000000       15.0138931      -2.29557514    
   1.26341999      0.500032008     -0.303494006       15.0138931      -2.29557514    
   1.26751196      0.501209974       0.00000000       28.2720547       1.91994536    
   1.19658697      0.643051028       0.00000000       28.2720547       1.91994536    
   1.19583094      0.642783999     -0.303505003       28.2720547       1.91994536    
   1.26341999      0.500032008     -0.303494006       28.2720547       1.91994536    
   1.19583094      0.642783999     -0.303505003       10.7685471       2.58363175    
   1.11495602      0.778467000     -0.303483993       10.7685471       2.58363175    
   1.11731696      0.779847026     -0.606999993       10.7685471       2.58363175    
   1.19653296      0.643149972     -0.606999993       10.7685471       2.58363175    
   1.19583094      0.642783999     -0.303505003       15.1085367      -2.24677634    
   1.19653296      0.643149972     -0.606999993       15.1085367      -2.24677634    
   1.26736605      0.501691997     -0.606999993       15.1085367      -2.24677634    
   1.26341999      0.500032008     -0.303494006       15.1085367      -2.24677634    
   1.19583094      0.642783999     -0.303505003       27.0637836       1.92487168    
   1.19658697      0.643051028       0.00000000       27.0637836       1.92487168    
   1.11705506      0.780165970       0.00000000       27.0637836       1.92487168    
   1.11495602      0.778467000     -0.303483993       27.0637836       1.92487168    
   1.11705506      0.780165970       0.00000000       25.7996216       1.93197513    
   1.01674199      0.902397990       0.00000000       25.7996216       1.93197513    
   1.01591504      0.901737988     -0.303478003       25.7996216       1.93197513    
   1.11495602      0.778467000     -0.303483993       25.7996216       1.93197513    
   1.01591504      0.901737988     -0.303478003       37.1044884       1.80347216    
  0.904204011       1.01322901     -0.303456992       37.1044884       1.80347216    
  0.905143023       1.01448905     -0.606999993       37.1044884       1.80347216    
   1.01659799      0.902572989     -0.606999993       37.1044884       1.80347216    
   1.01591504      0.901737988     -0.303478003       38.5452690       1.80211830    
   1.01659799      0.902572989     -0.606999993       38.5452690       1.80211830    
   1.11731696      0.779847026     -0.606999993       38.5452690       1.80211830    
   1.11495602      0.778467000     -0.303483993       38.5452690       1.80211830    
   1.01591504      0.901737988     -0.303478003       24.5011730       1.94084084    
   1.01674199      0.902397990       0.00000000       24.5011730       1.94084084    
  0.905318975       1.01434398       0.00000000       24.5011730       1.94084084    
  0.904204011       1.01322901     -0.303456992       24.5011730       1.94084084    
  0.905318975       1.01434398       0.00000000       41.7592010       1.77879238    
  0.782918990       1.11479497       0.00000000       41.7592010       1.77879238    
  0.780644000       1.11195600     -0.303485006       41.7592010       1.77879238    
  0.904204011       1.01322901     -0.303456992       41.7592010       1.77879238    
  0.780644000       1.11195600     -0.303485006       34.3909531       1.80737853    
  0.645825028       1.19414902     -0.303514004       34.3909531       1.80737853    
  0.646153986       1.19492805     -0.606999993       34.3909531       1.80737853    
  0.782611012       1.11504900     -0.606999993       34.3909531       1.80737853    
  0.780644000       1.11195600     -0.303485006       35.7083626       1.80517304    
  0.782611012       1.11504900     -0.606999993       35.7083626       1.80517304    
  0.905143023       1.01448905     -0.606999993       35.7083626       1.80517304    
  0.904204011       1.01322901     -0.303456992       35.7083626       1.80517304    
  0.780644000       1.11195600     -0.303485006       35.8177834       1.80781579    
  0.782918990       1.11479497       0.00000000       35.8177834       1.80781579    
  0.646345019       1.19482601       0.00000000       35.8177834       1.80781579    
  0.645825028       1.19414902     -0.303514004       35.8177834       1.80781579    
  0.646345019       1.19482601       0.00000000       17.3786583       2.06390953    
  0.504974008       1.26637006       0.00000000       17.3786583       2.06390953    
  0.503772974       1.26314998     -0.303521991       17.3786583       2.06390953    
  0.645825028       1.19414902     -0.303514004       17.3786583       2.06390953    
  0.503772974       1.26314998     -0.303521991       35.8332405       1.78666997    
  0.353130996       1.31116498     -0.303510994       35.8332405       1.78666997    
  0.353300005       1.31237996     -0.606999993       35.8332405       1.78666997    
  0.505183995       1.26630700     -0.606999993       35.8332405       1.78666997    
  0.503772974       1.26314998     -0.303521991       34.3270416       1.80150616    
  0.505183995       1.26630700     -0.606999993       34.3270416       1.80150616    
  0.646153986       1.19492805     -0.606999993       34.3270416       1.80150616    
  0.645825028       1.19414902     -0.303514004       34.3270416       1.80150616    
  0.503772974       1.26314998     -0.303521991       16.3905849       2.08569741    
  0.504974008       1.26637006       0.00000000       16.3905849       2.08569741    
  0.353493989       1.31232095       0.00000000       16.3905849       2.08569741    
  0.353130996       1.31116498     -0.303510994       16.3905849       2.08569741    
  0.353493989       1.31232095       0.00000000       15.5724030       2.10617733    
  0.199064001       1.34539402       0.00000000       15.5724030       2.10617733    
  0.198755994       1.34360003     -0.303496003       15.5724030       2.10617733    
  0.353130996       1.31116498     -0.303510994       15.5724030       2.10617733    
  0.198755994       1.34360003     -0.303496003       15.8193712       2.05968928    
   4.12769988E-02   1.35817802     -0.303508013       15.8193712       2.05968928    
   4.12410013E-02   1.36093795     -0.606999993       15.8193712       2.05968928    
  0.199025005       1.34539795     -0.606999993       15.8193712       2.05968928    
  0.198755994       1.34360003     -0.303496003       34.8775635       1.78853178    
  0.199025005       1.34539795     -0.606999993       34.8775635       1.78853178    
  0.353300005       1.31237996     -0.606999993       34.8775635       1.78853178    
  0.353130996       1.31116498     -0.303510994       34.8775635       1.78853178    
  0.198755994       1.34360003     -0.303496003       14.7266226       2.13288236    
  0.199064001       1.34539402       0.00000000       14.7266226       2.13288236    
   4.17769998E-02   1.36088502       0.00000000       14.7266226       2.13288236    
   4.12769988E-02   1.35817802     -0.303508013       14.7266226       2.13288236    
   4.17769998E-02   1.36088502       0.00000000       17.3636951       2.03602982    
 -0.116410002       1.35353506       0.00000000       17.3636951       2.03602982    
 -0.116471998       1.35271096     -0.303496987       17.3636951       2.03602982    
   4.12769988E-02   1.35817802     -0.303508013       17.3636951       2.03602982    
 -0.116471998       1.35271096     -0.303496987       22.6431713       1.89959538    
 -0.273027003       1.33229196     -0.303496003       22.6431713       1.89959538    
 -0.273876995       1.33647299     -0.606999993       22.6431713       1.89959538    
 -0.116722003       1.35350394     -0.606999993       22.6431713       1.89959538    
 -0.116471998       1.35271096     -0.303496987       14.7473202       2.09347701    
 -0.116722003       1.35350394     -0.606999993       14.7473202       2.09347701    
   4.12410013E-02   1.36093795     -0.606999993       14.7473202       2.09347701    
   4.12769988E-02   1.35817802     -0.303508013       14.7473202       2.09347701    
 -0.116471998       1.35271096     -0.303496987       17.0610256       2.04323435    
 -0.116410002       1.35353506       0.00000000       17.0610256       2.04323435    
 -0.274069011       1.33641505       0.00000000       17.0610256       2.04323435    
 -0.273027003       1.33229196     -0.303496003       17.0610256       2.04323435    
 -0.274069011       1.33641505       0.00000000       17.0537014       2.04381275    
 -0.425588995       1.29045200       0.00000000       17.0537014       2.04381275    
 -0.425258011       1.28953803     -0.303507000       17.0537014       2.04381275    
 -0.273027003       1.33229196     -0.303496003       17.0537014       2.04381275    
 -0.425258011       1.28953803     -0.303507000       22.8917942       1.89835095    
 -0.572302997       1.23206902     -0.303485990       22.8917942       1.89835095    
 -0.573064029       1.23399496     -0.606999993       22.8917942       1.89835095    
 -0.425651014       1.29043305     -0.606999993       22.8917942       1.89835095    
 -0.425258011       1.28953803     -0.303507000       22.4439297       1.90289259    
 -0.425651014       1.29043305     -0.606999993       22.4439297       1.90289259    
 -0.273876995       1.33647299     -0.606999993       22.4439297       1.90289259    
 -0.273027003       1.33229196     -0.303496003       22.4439297       1.90289259    
 -0.425258011       1.28953803     -0.303507000       16.5769939       2.06128955    
 -0.425588995       1.29045200       0.00000000       16.5769939       2.06128955    
 -0.573195994       1.23392498       0.00000000       16.5769939       2.06128955    
 -0.572302997       1.23206902     -0.303485990       16.5769939       2.06128955    
 -0.573195994       1.23392498       0.00000000       15.1484013       2.11793327    
 -0.712655008       1.15938199       0.00000000       15.1484013       2.11793327    
 -0.711889029       1.15749002     -0.303496003       15.1484013       2.11793327    
 -0.572302997       1.23206902     -0.303485990       15.1484013       2.11793327    
 -0.711889029       1.15749002     -0.303496003       22.2233791       1.91806042    
 -0.840825975       1.06629205     -0.303485990       22.2233791       1.91806042    
 -0.841368973       1.06682706     -0.606999993       22.2233791       1.91806042    
 -0.712980986       1.15920806     -0.606999993       22.2233791       1.91806042    
 -0.711889029       1.15749002     -0.303496003       20.6096687       1.94036758    
 -0.712980986       1.15920806     -0.606999993       20.6096687       1.94036758    
 -0.573064029       1.23399496     -0.606999993       20.6096687       1.94036758    
 -0.572302997       1.23206902     -0.303485990       20.6096687       1.94036758    
 -0.711889029       1.15749002     -0.303496003       17.8687897       2.03417635    
 -0.712655008       1.15938199       0.00000000       17.8687897       2.03417635    
 -0.841165006       1.06699395       0.00000000       17.8687897       2.03417635    
 -0.840825975       1.06629205     -0.303485990       17.8687897       2.03417635    
 -0.841165006       1.06699395       0.00000000       19.1891804       2.00791430    
 -0.963320017      0.966744006       0.00000000       19.1891804       2.00791430    
 -0.960084975      0.962615013     -0.303470999       19.1891804       2.00791430    
 -0.840825975       1.06629205     -0.303485990       19.1891804       2.00791430    
 -0.960084975      0.962615013     -0.303470999       23.4426517       1.91446257    
  -1.06383705      0.843237996     -0.303481996       23.4426517       1.91446257    
  -1.06481802      0.843816996     -0.606999993       23.4426517       1.91446257    
 -0.963873982      0.966289997     -0.606999993       23.4426517       1.91446257    
 -0.960084975      0.962615013     -0.303470999       23.3279686       1.90791655    
 -0.963873982      0.966289997     -0.606999993       23.3279686       1.90791655    
 -0.841368973       1.06682706     -0.606999993       23.3279686       1.90791655    
 -0.840825975       1.06629205     -0.303485990       23.3279686       1.90791655    
 -0.960084975      0.962615013     -0.303470999       23.9371853       1.92428744    
 -0.963320017      0.966744006       0.00000000       23.9371853       1.92428744    
  -1.06464398      0.844029009       0.00000000       23.9371853       1.92428744    
  -1.06383705      0.843237996     -0.303481996       23.9371853       1.92428744    
  -1.06464398      0.844029009       0.00000000       25.9763279       1.90348053    
  -1.15769398      0.715813994       0.00000000       25.9763279       1.90348053    
  -1.15564799      0.714680016     -0.303483993       25.9763279       1.90348053    
  -1.06383705      0.843237996     -0.303481996       25.9763279       1.90348053    
  -1.15564799      0.714680016     -0.303483993       34.4155197       1.81631315    
  -1.23108304      0.575536013     -0.303514004       34.4155197       1.81631315    
  -1.23232996      0.576179981     -0.606999993       34.4155197       1.81631315    
  -1.15756094      0.716063023     -0.606999993       34.4155197       1.81631315    
  -1.15564799      0.714680016     -0.303483993       26.3047199       1.88463497    
  -1.15756094      0.716063023     -0.606999993       26.3047199       1.88463497    
  -1.06481802      0.843816996     -0.606999993       26.3047199       1.88463497    
  -1.06383705      0.843237996     -0.303481996       26.3047199       1.88463497    
  -1.15564799      0.714680016     -0.303483993       27.9115658       1.88800359    
  -1.15769398      0.715813994       0.00000000       27.9115658       1.88800359    
  -1.23224795      0.576331973       0.00000000       27.9115658       1.88800359    
  -1.23108304      0.575536013     -0.303514004       27.9115658       1.88800359    
  -1.23224795      0.576331973       0.00000000       29.7003899       1.87683666    
  -1.28948605      0.428772002       0.00000000       29.7003899       1.87683666    
  -1.28842103      0.428404987     -0.303512990       29.7003899       1.87683666    
  -1.23108304      0.575536013     -0.303514004       29.7003899       1.87683666    
  -1.28842103      0.428404987     -0.303512990       9.77350521       2.72043014    
  -1.33082402      0.275959998     -0.303492010       9.77350521       2.72043014    
  -1.33550000      0.277083993     -0.606999993       9.77350521       2.72043014    