 VARIABLES="X" "Y" "Z" "abs(p) (Pa)" "angle(p) (rad)"
ZONE N=   2720,E =    2069, F=FEPOINT, ET=QUADRILATERAL
 -0.767116010      -1.12776399       0.00000000       313.263763       1.60421848    
 -0.769354999      -1.12002099     -0.303523988       313.263763       1.60421848    
 -0.896136999      -1.02028203     -0.303463012       313.263763       1.60421848    
 -0.894908011      -1.02288902       0.00000000       313.263763       1.60421848    
 -0.767116010      -1.12776399       0.00000000       267.130951       1.59960246    
 -0.630888999      -1.20308697       0.00000000       267.130951       1.59960246    
 -0.635528028      -1.19958198     -0.303541005       267.130951       1.59960246    
 -0.769354999      -1.12002099     -0.303523988       267.130951       1.59960246    
 -0.635528028      -1.19958198     -0.303541005       198.761658       1.60096419    
 -0.495362997      -1.26606500     -0.303519011       198.761658       1.60096419    
 -0.499298006      -1.26809204     -0.606999993       198.761658       1.60096419    
 -0.640147984      -1.19813800     -0.606998026       198.761658       1.60096419    
 -0.635528028      -1.19958198     -0.303541005       246.040924       1.60888171    
 -0.640147984      -1.19813800     -0.606998026       246.040924       1.60888171    
 -0.777105987      -1.11956596     -0.606999993       246.040924       1.60888171    
 -0.769354999      -1.12002099     -0.303523988       246.040924       1.60888171    
 -0.635528028      -1.19958198     -0.303541005       205.627594       1.59214211    
 -0.630888999      -1.20308697       0.00000000       205.627594       1.59214211    
 -0.494486004      -1.26955199       0.00000000       205.627594       1.59214211    
 -0.495362997      -1.26606500     -0.303519011       205.627594       1.59214211    
 -0.494486004      -1.26955199       0.00000000       155.757568       1.57955420    
 -0.346311986      -1.31449997       0.00000000       155.757568       1.57955420    
 -0.346753001      -1.31307304     -0.303510010       155.757568       1.57955420    
 -0.495362997      -1.26606500     -0.303519011       155.757568       1.57955420    
 -0.346753001      -1.31307304     -0.303510010       99.1177826       1.55956697    
 -0.193608001      -1.34425998     -0.303494990       99.1177826       1.55956697    
 -0.195028007      -1.34579206     -0.606999993       99.1177826       1.55956697    
 -0.348751009      -1.31376004     -0.606999993       99.1177826       1.55956697    
 -0.346753001      -1.31307304     -0.303510010       150.460052       1.58779895    
 -0.348751009      -1.31376004     -0.606999993       150.460052       1.58779895    
 -0.499298006      -1.26809204     -0.606999993       150.460052       1.58779895    
 -0.495362997      -1.26606500     -0.303519011       150.460052       1.58779895    
 -0.346753001      -1.31307304     -0.303510010       102.566139       1.55243611    
 -0.346311986      -1.31449997       0.00000000       102.566139       1.55243611    
 -0.193381995      -1.34595394       0.00000000       102.566139       1.55243611    
 -0.193608001      -1.34425998     -0.303494990       102.566139       1.55243611    
 -0.193381995      -1.34595394       0.00000000       60.1944046       1.48945081    
  -3.75179984E-02  -1.36130500       0.00000000       60.1944046       1.48945081    
  -3.73950005E-02  -1.35827899     -0.303512007       60.1944046       1.48945081    
 -0.193608001      -1.34425998     -0.303494990       60.1944046       1.48945081    
  -3.73950005E-02  -1.35827899     -0.303512007       11.7038803     -0.741382420    
  0.119547002      -1.35239303     -0.303498000       11.7038803     -0.741382420    
  0.119135000      -1.35326600     -0.606999993       11.7038803     -0.741382420    
  -3.82840000E-02  -1.36122894     -0.606998980       11.7038803     -0.741382420    
  -3.73950005E-02  -1.35827899     -0.303512007       45.1170654       1.46208727    
  -3.82840000E-02  -1.36122894     -0.606998980       45.1170654       1.46208727    
 -0.195028007      -1.34579206     -0.606999993       45.1170654       1.46208727    
 -0.193608001      -1.34425998     -0.303494990       45.1170654       1.46208727    
  -3.73950005E-02  -1.35827899     -0.303512007       9.74005699      0.567635357    
  -3.75179984E-02  -1.36130500       0.00000000       9.74005699      0.567635357    
  0.119788997      -1.35320199       0.00000000       9.74005699      0.567635357    
  0.119547002      -1.35239303     -0.303498000       9.74005699      0.567635357    
  0.119788997      -1.35320199       0.00000000       53.9611359      -1.35289049    
  0.276576012      -1.33565402       0.00000000       53.9611359      -1.35289049    
  0.275435001      -1.33191597     -0.303496003       53.9611359      -1.35289049    
  0.119547002      -1.35239303     -0.303498000       53.9611359      -1.35289049    
  0.275435001      -1.33191597     -0.303496003       105.240753      -1.41954851    
  0.427076995      -1.28898001     -0.303507000       105.240753      -1.41954851    
  0.427242011      -1.28995001     -0.606999993       105.240753      -1.41954851    
  0.275831014      -1.33588004     -0.606999993       105.240753      -1.41954851    
  0.275435001      -1.33191597     -0.303496003       54.5474129      -1.34439194    
  0.275831014      -1.33588004     -0.606999993       54.5474129      -1.34439194    
  0.119135000      -1.35326600     -0.606999993       54.5474129      -1.34439194    
  0.119547002      -1.35239303     -0.303498000       54.5474129      -1.34439194    
  0.275435001      -1.33191597     -0.303496003       106.842667      -1.43108726    
  0.276576012      -1.33565402       0.00000000       106.842667      -1.43108726    
  0.427509993      -1.28986895       0.00000000       106.842667      -1.43108726    
  0.427076995      -1.28898001     -0.303507000       106.842667      -1.43108726    
  0.427509993      -1.28986895       0.00000000       158.216248      -1.45652449    
  0.574636996      -1.23315501       0.00000000       158.216248      -1.45652449    
  0.573706985      -1.23136795     -0.303485990       158.216248      -1.45652449    
  0.427076995      -1.28898001     -0.303507000       158.216248      -1.45652449    
  0.573706985      -1.23136795     -0.303485990       204.961273      -1.45879424    
  0.712854981      -1.15688002     -0.303496987       204.961273      -1.45879424    
  0.713809013      -1.15876603     -0.606999993       204.961273      -1.45879424    
  0.574283004      -1.23334301     -0.606999993       204.961273      -1.45879424    
  0.573706985      -1.23136795     -0.303485990       156.285583      -1.44587350    
  0.574283004      -1.23334301     -0.606999993       156.285583      -1.44587350    
  0.427242011      -1.28995001     -0.606999993       156.285583      -1.44587350    
  0.427076995      -1.28898001     -0.303507000       156.285583      -1.44587350    
  0.573706985      -1.23136795     -0.303485990       209.053040      -1.46976173    
  0.574636996      -1.23315501       0.00000000       209.053040      -1.46976173    
  0.713741004      -1.15880203       0.00000000       209.053040      -1.46976173    
  0.712854981      -1.15688002     -0.303496987       209.053040      -1.46976173    
  0.713741004      -1.15880203       0.00000000       256.206757      -1.47728598    
  0.841937006      -1.06636095       0.00000000       256.206757      -1.47728598    
  0.841498017      -1.06573403     -0.303485990       256.206757      -1.47728598    
  0.712854981      -1.15688002     -0.303496987       256.206757      -1.47728598    
  0.841498017      -1.06573403     -0.303485990       290.387024      -1.47049046    
  0.960639000     -0.962104976     -0.303470999       290.387024      -1.47049046    
  0.964356005     -0.965893984     -0.606999993       290.387024      -1.47049046    
  0.841796994      -1.06647599     -0.606999993       290.387024      -1.47049046    
  0.841498017      -1.06573403     -0.303485990       248.222885      -1.46566308    
  0.841796994      -1.06647599     -0.606999993       248.222885      -1.46566308    
  0.713809013      -1.15876603     -0.606999993       248.222885      -1.46566308    
  0.712854981      -1.15688002     -0.303496987       248.222885      -1.46566308    
  0.841498017      -1.06573403     -0.303485990       304.300659      -1.48281729    
  0.841937006      -1.06636095       0.00000000       304.300659      -1.48281729    
  0.963932991     -0.966242015       0.00000000       304.300659      -1.48281729    
  0.960639000     -0.962104976     -0.303470999       304.300659      -1.48281729    
  0.963932991     -0.966242015       0.00000000       342.645538      -1.48588252    
   1.06506598     -0.843514979       0.00000000       342.645538      -1.48588252    
   1.06428695     -0.842682004     -0.303481996       342.645538      -1.48588252    
  0.960639000     -0.962104976     -0.303470999       342.645538      -1.48588252    
   1.06428695     -0.842682004     -0.303481996       369.050781      -1.47789669    
   1.15591598     -0.714210987     -0.303485006       369.050781      -1.47789669    
   1.15788805     -0.715448976     -0.606999993       369.050781      -1.47789669    
   1.06537795     -0.843134999     -0.606999993       369.050781      -1.47789669    
   1.06428695     -0.842682004     -0.303481996       327.165039      -1.47378790    
   1.06537795     -0.843134999     -0.606999993       327.165039      -1.47378790    
  0.964356005     -0.965893984     -0.606999993       327.165039      -1.47378790    
  0.960639000     -0.962104976     -0.303470999       327.165039      -1.47378790    
   1.06428695     -0.842682004     -0.303481996       377.451752      -1.48815072    
   1.06506598     -0.843514979       0.00000000       377.451752      -1.48815072    
   1.15792501     -0.715381980       0.00000000       377.451752      -1.48815072    
   1.15591598     -0.714210987     -0.303485006       377.451752      -1.48815072    
   1.15792501     -0.715381980       0.00000000       406.205261      -1.48960018    
   1.23237598     -0.576093972       0.00000000       406.205261      -1.48960018    
   1.23120904     -0.575251997     -0.303514004       406.205261      -1.48960018    
   1.15591598     -0.714210987     -0.303485006       406.205261      -1.48960018    
   1.23120904     -0.575251997     -0.303514004       418.898804      -1.48049307    
   1.28844094     -0.428344995     -0.303512990       418.898804      -1.48049307    
   1.28952503     -0.428642988     -0.606999993       418.898804      -1.48049307    
   1.23252702     -0.575810015     -0.606999993       418.898804      -1.48049307    
   1.23120904     -0.575251997     -0.303514004       396.591248      -1.47935247    
   1.23252702     -0.575810015     -0.606999993       396.591248      -1.47935247    
   1.15788805     -0.715448976     -0.606999993       396.591248      -1.47935247    
   1.15591598     -0.714210987     -0.303485006       396.591248      -1.47935247    
   1.23120904     -0.575251997     -0.303514004       437.238251      -1.49169624    
   1.23237598     -0.576093972       0.00000000       437.238251      -1.49169624    
   1.28947699     -0.428801000       0.00000000       437.238251      -1.49169624    
   1.28844094     -0.428344995     -0.303512990       437.238251      -1.49169624    
   1.28947699     -0.428801000       0.00000000       450.284302      -1.49190152    
   1.33532202     -0.277671993       0.00000000       450.284302      -1.49190152    
   1.33076501     -0.276203990     -0.303492010       450.284302      -1.49190152    
   1.28844094     -0.428344995     -0.303512990       450.284302      -1.49190152    
   1.33076501     -0.276203990     -0.303492010       460.170227      -1.48363864    
   1.35229194     -0.119709998     -0.303514004       460.170227      -1.48363864    
   1.35321999     -0.119608998     -0.606999993       460.170227      -1.48363864    
   1.33549094     -0.277112991     -0.606999993       460.170227      -1.48363864    
   1.33076501     -0.276203990     -0.303492010       434.985107      -1.48106551    
   1.33549094     -0.277112991     -0.606999993       434.985107      -1.48106551    
   1.28952503     -0.428642988     -0.606999993       434.985107      -1.48106551    
   1.28844094     -0.428344995     -0.303512990       434.985107      -1.48106551    
   1.33076501     -0.276203990     -0.303492010       452.357452      -1.49133003    
   1.33532202     -0.277671993       0.00000000       452.357452      -1.49133003    
   1.35319102     -0.119900003       0.00000000       452.357452      -1.49133003    
   1.35229194     -0.119709998     -0.303514004       452.357452      -1.49133003    
   1.35319102     -0.119900003       0.00000000       456.970154      -1.49153388    
   1.36124396       3.81390005E-02   0.00000000       456.970154      -1.49153388    
   1.35858905       3.79349999E-02 -0.303501010       456.970154      -1.49153388    
   1.35229194     -0.119709998     -0.303514004       456.970154      -1.49153388    
   1.35858905       3.79349999E-02 -0.303501010       453.084015      -1.48238587    
   1.34464097      0.195331007     -0.303496003       453.084015      -1.48238587    
   1.34573400      0.195616007     -0.606999993       453.084015      -1.48238587    
   1.36126804       3.78950015E-02 -0.606999993       453.084015      -1.48238587    
   1.35858905       3.79349999E-02 -0.303501010       455.801666      -1.48262715    
   1.36126804       3.78950015E-02 -0.606999993       455.801666      -1.48262715    
   1.35321999     -0.119608998     -0.606999993       455.801666      -1.48262715    
   1.35229194     -0.119709998     -0.303514004       455.801666      -1.48262715    
   1.35858905       3.79349999E-02 -0.303501010       470.088593      -1.49320304    
   1.36124396       3.81390005E-02   0.00000000       470.088593      -1.49320304    
   1.34575403      0.195406005       0.00000000       470.088593      -1.49320304    
   1.34464097      0.195331007     -0.303496003       470.088593      -1.49320304    
   1.34575403      0.195406005       0.00000000       461.233032      -1.49284434    
   1.31339800      0.349945009       0.00000000       461.233032      -1.49284434    
   1.31216300      0.349725991     -0.303487003       461.233032      -1.49284434    
   1.34464097      0.195331007     -0.303496003       461.233032      -1.49284434    
   1.31216300      0.349725991     -0.303487003       426.092010      -1.48079467    
   1.26341999      0.500032008     -0.303494006       426.092010      -1.48079467    
   1.26736605      0.501691997     -0.606999993       426.092010      -1.48079467    
   1.31333196      0.350163996     -0.606999993       426.092010      -1.48079467    
   1.31216300      0.349725991     -0.303487003       444.872040      -1.48210597    
   1.31333196      0.350163996     -0.606999993       444.872040      -1.48210597    
   1.34573400      0.195616007     -0.606999993       444.872040      -1.48210597    
   1.34464097      0.195331007     -0.303496003       444.872040      -1.48210597    
   1.31216300      0.349725991     -0.303487003       445.703064      -1.49210191    
   1.31339800      0.349945009       0.00000000       445.703064      -1.49210191    
   1.26751196      0.501209974       0.00000000       445.703064      -1.49210191    
   1.26341999      0.500032008     -0.303494006       445.703064      -1.49210191    
   1.26751196      0.501209974       0.00000000       409.644348      -1.48916578    
   1.19658697      0.643051028       0.00000000       409.644348      -1.48916578    
   1.19583094      0.642783999     -0.303505003       409.644348      -1.48916578    
   1.26341999      0.500032008     -0.303494006       409.644348      -1.48916578    
   1.19583094      0.642783999     -0.303505003       391.205414      -1.48041689    
   1.11495602      0.778467000     -0.303483993       391.205414      -1.48041689    
   1.11731696      0.779847026     -0.606999993       391.205414      -1.48041689    
   1.19653296      0.643149972     -0.606999993       391.205414      -1.48041689    
   1.19583094      0.642783999     -0.303505003       405.853973      -1.47981811    
   1.19653296      0.643149972     -0.606999993       405.853973      -1.47981811    
   1.26736605      0.501691997     -0.606999993       405.853973      -1.47981811    
   1.26341999      0.500032008     -0.303494006       405.853973      -1.47981811    
   1.19583094      0.642783999     -0.303505003       382.148315      -1.48772681    
   1.19658697      0.643051028       0.00000000       382.148315      -1.48772681    
   1.11705506      0.780165970       0.00000000       382.148315      -1.48772681    
   1.11495602      0.778467000     -0.303483993       382.148315      -1.48772681    
   1.11705506      0.780165970       0.00000000       350.118774      -1.48569298    
   1.01674199      0.902397990       0.00000000       350.118774      -1.48569298    
   1.01591504      0.901737988     -0.303478003       350.118774      -1.48569298    
   1.11495602      0.778467000     -0.303483993       350.118774      -1.48569298    
   1.01591504      0.901737988     -0.303478003       311.687408      -1.47356844    
  0.904204011       1.01322901     -0.303456992       311.687408      -1.47356844    
  0.905143023       1.01448905     -0.606999993       311.687408      -1.47356844    
   1.01659799      0.902572989     -0.606999993       311.687408      -1.47356844    
   1.01591504      0.901737988     -0.303478003       347.363739      -1.47612476    
   1.01659799      0.902572989     -0.606999993       347.363739      -1.47612476    
   1.11731696      0.779847026     -0.606999993       347.363739      -1.47612476    
   1.11495602      0.778467000     -0.303483993       347.363739      -1.47612476    
   1.01591504      0.901737988     -0.303478003       312.559540      -1.48283672    
   1.01674199      0.902397990       0.00000000       312.559540      -1.48283672    
  0.905318975       1.01434398       0.00000000       312.559540      -1.48283672    
  0.904204011       1.01322901     -0.303456992       312.559540      -1.48283672    
  0.905318975       1.01434398       0.00000000       282.471069      -1.48137307    
  0.782918990       1.11479497       0.00000000       282.471069      -1.48137307    
  0.780644000       1.11195600     -0.303485006       282.471069      -1.48137307    
  0.904204011       1.01322901     -0.303456992       282.471069      -1.48137307    
  0.780644000       1.11195600     -0.303485006       227.982712      -1.46395290    
  0.645825028       1.19414902     -0.303514004       227.982712      -1.46395290    
  0.646153986       1.19492805     -0.606999993       227.982712      -1.46395290    
  0.782611012       1.11504900     -0.606999993       227.982712      -1.46395290    
  0.780644000       1.11195600     -0.303485006       271.407043      -1.46964335    
  0.782611012       1.11504900     -0.606999993       271.407043      -1.46964335    
  0.905143023       1.01448905     -0.606999993       271.407043      -1.46964335    
  0.904204011       1.01322901     -0.303456992       271.407043      -1.46964335    
  0.780644000       1.11195600     -0.303485006       238.957718      -1.47641778    
  0.782918990       1.11479497       0.00000000       238.957718      -1.47641778    
  0.646345019       1.19482601       0.00000000       238.957718      -1.47641778    
  0.645825028       1.19414902     -0.303514004       238.957718      -1.47641778    
  0.646345019       1.19482601       0.00000000       177.072189      -1.46224260    
  0.504974008       1.26637006       0.00000000       177.072189      -1.46224260    
  0.503772974       1.26314998     -0.303521991       177.072189      -1.46224260    
  0.645825028       1.19414902     -0.303514004       177.072189      -1.46224260    
  0.503772974       1.26314998     -0.303521991       132.566498      -1.43857849    
  0.353130996       1.31116498     -0.303510994       132.566498      -1.43857849    
  0.353300005       1.31237996     -0.606999993       132.566498      -1.43857849    
  0.505183995       1.26630700     -0.606999993       132.566498      -1.43857849    
  0.503772974       1.26314998     -0.303521991       180.838074      -1.45480227    
  0.505183995       1.26630700     -0.606999993       180.838074      -1.45480227    
  0.646153986       1.19492805     -0.606999993       180.838074      -1.45480227    
  0.645825028       1.19414902     -0.303514004       180.838074      -1.45480227    
  0.503772974       1.26314998     -0.303521991       125.865448      -1.44255543    
  0.504974008       1.26637006       0.00000000       125.865448      -1.44255543    
  0.353493989       1.31232095       0.00000000       125.865448      -1.44255543    
  0.353130996       1.31116498     -0.303510994       125.865448      -1.44255543    
  0.353493989       1.31232095       0.00000000       71.2566605      -1.39044344    
  0.199064001       1.34539402       0.00000000       71.2566605      -1.39044344    
  0.198755994       1.34360003     -0.303496003       71.2566605      -1.39044344    
  0.353130996       1.31116498     -0.303510994       71.2566605      -1.39044344    
  0.198755994       1.34360003     -0.303496003       16.7763309     -0.956280291    
   4.12769988E-02   1.35817802     -0.303508013       16.7763309     -0.956280291    
   4.12410013E-02   1.36093795     -0.606999993       16.7763309     -0.956280291    
  0.199025005       1.34539795     -0.606999993       16.7763309     -0.956280291    
  0.198755994       1.34360003     -0.303496003       80.3330307      -1.39869428    
  0.199025005       1.34539795     -0.606999993       80.3330307      -1.39869428    
  0.353300005       1.31237996     -0.606999993       80.3330307      -1.39869428    
  0.353130996       1.31116498     -0.303510994       80.3330307      -1.39869428    
  0.198755994       1.34360003     -0.303496003       17.1681061     -0.990125835    
  0.199064001       1.34539402       0.00000000       17.1681061     -0.990125835    
   4.17769998E-02   1.36088502       0.00000000       17.1681061     -0.990125835    
   4.12769988E-02   1.35817802     -0.303508013       17.1681061     -0.990125835    
   4.17769998E-02   1.36088502       0.00000000       40.5964622       1.42056251    
 -0.116410002       1.35353506       0.00000000       40.5964622       1.42056251    
 -0.116471998       1.35271096     -0.303496987       40.5964622       1.42056251    
   4.12769988E-02   1.35817802     -0.303508013       40.5964622       1.42056251    
 -0.116471998       1.35271096     -0.303496987       100.585045       1.55210280    
 -0.273027003       1.33229196     -0.303496003       100.585045       1.55210280    
 -0.273876995       1.33647299     -0.606999993       100.585045       1.55210280    
 -0.116722003       1.35350394     -0.606999993       100.585045       1.55210280    
 -0.116471998       1.35271096     -0.303496987       40.2691345       1.42390573    
 -0.116722003       1.35350394     -0.606999993       40.2691345       1.42390573    
   4.12410013E-02   1.36093795     -0.606999993       40.2691345       1.42390573    
   4.12769988E-02   1.35817802     -0.303508013       40.2691345       1.42390573    
 -0.116471998       1.35271096     -0.303496987       96.8304520       1.54345834    
 -0.116410002       1.35353506       0.00000000       96.8304520       1.54345834    
 -0.274069011       1.33641505       0.00000000       96.8304520       1.54345834    
 -0.273027003       1.33229196     -0.303496003       96.8304520       1.54345834    
 -0.274069011       1.33641505       0.00000000       150.492188       1.57470763    
 -0.425588995       1.29045200       0.00000000       150.492188       1.57470763    
 -0.425258011       1.28953803     -0.303507000       150.492188       1.57470763    
 -0.273027003       1.33229196     -0.303496003       150.492188       1.57470763    
 -0.425258011       1.28953803     -0.303507000       204.186462       1.59724593    
 -0.572302997       1.23206902     -0.303485990       204.186462       1.59724593    
 -0.573064029       1.23399496     -0.606999993       204.186462       1.59724593    
 -0.425651014       1.29043305     -0.606999993       204.186462       1.59724593    
 -0.425258011       1.28953803     -0.303507000       152.299026       1.58235407    
 -0.425651014       1.29043305     -0.606999993       152.299026       1.58235407    
 -0.273876995       1.33647299     -0.606999993       152.299026       1.58235407    
 -0.273027003       1.33229196     -0.303496003       152.299026       1.58235407    
 -0.425258011       1.28953803     -0.303507000       204.910583       1.58949435    
 -0.425588995       1.29045200       0.00000000       204.910583       1.58949435    
 -0.573195994       1.23392498       0.00000000       204.910583       1.58949435    
 -0.572302997       1.23206902     -0.303485990       204.910583       1.58949435    
 -0.573195994       1.23392498       0.00000000       256.116119       1.59768367    
 -0.712655008       1.15938199       0.00000000       256.116119       1.59768367    
 -0.711889029       1.15749002     -0.303496003       256.116119       1.59768367    
 -0.572302997       1.23206902     -0.303485990       256.116119       1.59768367    
 -0.711889029       1.15749002     -0.303496003       296.218964       1.61126304    
 -0.840825975       1.06629205     -0.303485990       296.218964       1.61126304    
 -0.841368973       1.06682706     -0.606999993       296.218964       1.61126304    
 -0.712980986       1.15920806     -0.606999993       296.218964       1.61126304    
 -0.711889029       1.15749002     -0.303496003       250.760681       1.60584390    
 -0.712980986       1.15920806     -0.606999993       250.760681       1.60584390    
 -0.573064029       1.23399496     -0.606999993       250.760681       1.60584390    
 -0.572302997       1.23206902     -0.303485990       250.760681       1.60584390    
 -0.711889029       1.15749002     -0.303496003       303.289520       1.60283184    
 -0.712655008       1.15938199       0.00000000       303.289520       1.60283184    
 -0.841165006       1.06699395       0.00000000       303.289520       1.60283184    
 -0.840825975       1.06629205     -0.303485990       303.289520       1.60283184    
 -0.841165006       1.06699395       0.00000000       347.475372       1.60648847    
 -0.963320017      0.966744006       0.00000000       347.475372       1.60648847    
 -0.960084975      0.962615013     -0.303470999       347.475372       1.60648847    
 -0.840825975       1.06629205     -0.303485990       347.475372       1.60648847    
 -0.960084975      0.962615013     -0.303470999       376.484802       1.61764979    
  -1.06383705      0.843237996     -0.303481996       376.484802       1.61764979    
  -1.06481802      0.843816996     -0.606999993       376.484802       1.61764979    
 -0.963873982      0.966289997     -0.606999993       376.484802       1.61764979    
 -0.960084975      0.962615013     -0.303470999       339.173340       1.61509287    
 -0.963873982      0.966289997     -0.606999993       339.173340       1.61509287    
 -0.841368973       1.06682706     -0.606999993       339.173340       1.61509287    
 -0.840825975       1.06629205     -0.303485990       339.173340       1.61509287    
 -0.960084975      0.962615013     -0.303470999       387.764404       1.60889709    
 -0.963320017      0.966744006       0.00000000       387.764404       1.60889709    
  -1.06464398      0.844029009       0.00000000       387.764404       1.60889709    
  -1.06383705      0.843237996     -0.303481996       387.764404       1.60889709    
  -1.06464398      0.844029009       0.00000000       422.675262       1.61075234    
  -1.15769398      0.715813994       0.00000000       422.675262       1.61075234    
  -1.15564799      0.714680016     -0.303483993       422.675262       1.61075234    
  -1.06383705      0.843237996     -0.303481996       422.675262       1.61075234    
  -1.15564799      0.714680016     -0.303483993       439.157593       1.62092113    
  -1.23108304      0.575536013     -0.303514004       439.157593       1.62092113    
  -1.23232996      0.576179981     -0.606999993       439.157593       1.62092113    
  -1.15756094      0.716063023     -0.606999993       439.157593       1.62092113    
  -1.15564799      0.714680016     -0.303483993       409.851624       1.61956382    
  -1.15756094      0.716063023     -0.606999993       409.851624       1.61956382    
  -1.06481802      0.843816996     -0.606999993       409.851624       1.61956382    
  -1.06383705      0.843237996     -0.303481996       409.851624       1.61956382    
  -1.15564799      0.714680016     -0.303483993       451.495605       1.61216557    
  -1.15769398      0.715813994       0.00000000       451.495605       1.61216557    
  -1.23224795      0.576331973       0.00000000       451.495605       1.61216557    
  -1.23108304      0.575536013     -0.303514004       451.495605       1.61216557    
  -1.23224795      0.576331973       0.00000000       474.639496       1.61313212    
  -1.28948605      0.428772002       0.00000000       474.639496       1.61313212    
  -1.28842103      0.428404987     -0.303512990       474.639496       1.61313212    
  -1.23108304      0.575536013     -0.303514004       474.639496       1.61313212    
  -1.28842103      0.428404987     -0.303512990       464.320282       1.62352693    
  -1.33082402      0.275959998     -0.303492010       464.320282       1.62352693    
  -1.33550000      0.277083993     -0.606999993       464.320282       1.62352693    