 VARIABLES="X" "Y" "Z" "abs(p) (Pa)" "angle(p) (rad)"
ZONE N=   2720,E =    2069, F=FEPOINT, ET=QUADRILATERAL
 -0.767116010      -1.12776399       0.00000000       4904.26855      -1.55849385    
 -0.769354999      -1.12002099     -0.303523988       4904.26855      -1.55849385    
 -0.896136999      -1.02028203     -0.303463012       4904.26855      -1.55849385    
 -0.894908011      -1.02288902       0.00000000       4904.26855      -1.55849385    
 -0.767116010      -1.12776399       0.00000000       5302.09473      -1.55844247    
 -0.630888999      -1.20308697       0.00000000       5302.09473      -1.55844247    
 -0.635528028      -1.19958198     -0.303541005       5302.09473      -1.55844247    
 -0.769354999      -1.12002099     -0.303523988       5302.09473      -1.55844247    
 -0.635528028      -1.19958198     -0.303541005       4984.12500      -1.55552983    
 -0.495362997      -1.26606500     -0.303519011       4984.12500      -1.55552983    
 -0.499298006      -1.26809204     -0.606999993       4984.12500      -1.55552983    
 -0.640147984      -1.19813800     -0.606998026       4984.12500      -1.55552983    
 -0.635528028      -1.19958198     -0.303541005       4682.16113      -1.55557013    
 -0.640147984      -1.19813800     -0.606998026       4682.16113      -1.55557013    
 -0.777105987      -1.11956596     -0.606999993       4682.16113      -1.55557013    
 -0.769354999      -1.12002099     -0.303523988       4682.16113      -1.55557013    
 -0.635528028      -1.19958198     -0.303541005       5599.91748      -1.55834687    
 -0.630888999      -1.20308697       0.00000000       5599.91748      -1.55834687    
 -0.494486004      -1.26955199       0.00000000       5599.91748      -1.55834687    
 -0.495362997      -1.26606500     -0.303519011       5599.91748      -1.55834687    
 -0.494486004      -1.26955199       0.00000000       5854.86475      -1.55832505    
 -0.346311986      -1.31449997       0.00000000       5854.86475      -1.55832505    
 -0.346753001      -1.31307304     -0.303510010       5854.86475      -1.55832505    
 -0.495362997      -1.26606500     -0.303519011       5854.86475      -1.55832505    
 -0.346753001      -1.31307304     -0.303510010       5383.54932      -1.55550146    
 -0.193608001      -1.34425998     -0.303494990       5383.54932      -1.55550146    
 -0.195028007      -1.34579206     -0.606999993       5383.54932      -1.55550146    
 -0.348751009      -1.31376004     -0.606999993       5383.54932      -1.55550146    
 -0.346753001      -1.31307304     -0.303510010       5213.40918      -1.55549943    
 -0.348751009      -1.31376004     -0.606999993       5213.40918      -1.55549943    
 -0.499298006      -1.26809204     -0.606999993       5213.40918      -1.55549943    
 -0.495362997      -1.26606500     -0.303519011       5213.40918      -1.55549943    
 -0.346753001      -1.31307304     -0.303510010       6047.31641      -1.55833554    
 -0.346311986      -1.31449997       0.00000000       6047.31641      -1.55833554    
 -0.193381995      -1.34595394       0.00000000       6047.31641      -1.55833554    
 -0.193608001      -1.34425998     -0.303494990       6047.31641      -1.55833554    
 -0.193381995      -1.34595394       0.00000000       6188.67529      -1.55838835    
  -3.75179984E-02  -1.36130500       0.00000000       6188.67529      -1.55838835    
  -3.73950005E-02  -1.35827899     -0.303512007       6188.67529      -1.55838835    
 -0.193608001      -1.34425998     -0.303494990       6188.67529      -1.55838835    
  -3.73950005E-02  -1.35827899     -0.303512007       5493.56934      -1.55545390    
  0.119547002      -1.35239303     -0.303498000       5493.56934      -1.55545390    
  0.119135000      -1.35326600     -0.606999993       5493.56934      -1.55545390    
  -3.82840000E-02  -1.36122894     -0.606998980       5493.56934      -1.55545390    
  -3.73950005E-02  -1.35827899     -0.303512007       5480.49561      -1.55547845    
  -3.82840000E-02  -1.36122894     -0.606998980       5480.49561      -1.55547845    
 -0.195028007      -1.34579206     -0.606999993       5480.49561      -1.55547845    
 -0.193608001      -1.34425998     -0.303494990       5480.49561      -1.55547845    
  -3.73950005E-02  -1.35827899     -0.303512007       6211.21387      -1.55839181    
  -3.75179984E-02  -1.36130500       0.00000000       6211.21387      -1.55839181    
  0.119788997      -1.35320199       0.00000000       6211.21387      -1.55839181    
  0.119547002      -1.35239303     -0.303498000       6211.21387      -1.55839181    
  0.119788997      -1.35320199       0.00000000       6153.21631      -1.55838096    
  0.276576012      -1.33565402       0.00000000       6153.21631      -1.55838096    
  0.275435001      -1.33191597     -0.303496003       6153.21631      -1.55838096    
  0.119547002      -1.35239303     -0.303498000       6153.21631      -1.55838096    
  0.275435001      -1.33191597     -0.303496003       5415.91846      -1.55561697    
  0.427076995      -1.28898001     -0.303507000       5415.91846      -1.55561697    
  0.427242011      -1.28995001     -0.606999993       5415.91846      -1.55561697    
  0.275831014      -1.33588004     -0.606999993       5415.91846      -1.55561697    
  0.275435001      -1.33191597     -0.303496003       5533.26660      -1.55561042    
  0.275831014      -1.33588004     -0.606999993       5533.26660      -1.55561042    
  0.119135000      -1.35326600     -0.606999993       5533.26660      -1.55561042    
  0.119547002      -1.35239303     -0.303498000       5533.26660      -1.55561042    
  0.275435001      -1.33191597     -0.303496003       6017.35107      -1.55838144    
  0.276576012      -1.33565402       0.00000000       6017.35107      -1.55838144    
  0.427509993      -1.28986895       0.00000000       6017.35107      -1.55838144    
  0.427076995      -1.28898001     -0.303507000       6017.35107      -1.55838144    
  0.427509993      -1.28986895       0.00000000       5798.61279      -1.55842650    
  0.574636996      -1.23315501       0.00000000       5798.61279      -1.55842650    
  0.573706985      -1.23136795     -0.303485990       5798.61279      -1.55842650    
  0.427076995      -1.28898001     -0.303507000       5798.61279      -1.55842650    
  0.573706985      -1.23136795     -0.303485990       4959.58154      -1.55566442    
  0.712854981      -1.15688002     -0.303496987       4959.58154      -1.55566442    
  0.713809013      -1.15876603     -0.606999993       4959.58154      -1.55566442    
  0.574283004      -1.23334301     -0.606999993       4959.58154      -1.55566442    
  0.573706985      -1.23136795     -0.303485990       5228.16455      -1.55566800    
  0.574283004      -1.23334301     -0.606999993       5228.16455      -1.55566800    
  0.427242011      -1.28995001     -0.606999993       5228.16455      -1.55566800    
  0.427076995      -1.28898001     -0.303507000       5228.16455      -1.55566800    
  0.573706985      -1.23136795     -0.303485990       5497.04150      -1.55844629    
  0.574636996      -1.23315501       0.00000000       5497.04150      -1.55844629    
  0.713741004      -1.15880203       0.00000000       5497.04150      -1.55844629    
  0.712854981      -1.15688002     -0.303496987       5497.04150      -1.55844629    
  0.713741004      -1.15880203       0.00000000       5139.43994      -1.55850530    
  0.841937006      -1.06636095       0.00000000       5139.43994      -1.55850530    
  0.841498017      -1.06573403     -0.303485990       5139.43994      -1.55850530    
  0.712854981      -1.15688002     -0.303496987       5139.43994      -1.55850530    
  0.841498017      -1.06573403     -0.303485990       4242.57031      -1.55575120    
  0.960639000     -0.962104976     -0.303470999       4242.57031      -1.55575120    
  0.964356005     -0.965893984     -0.606999993       4242.57031      -1.55575120    
  0.841796994      -1.06647599     -0.606999993       4242.57031      -1.55575120    
  0.841498017      -1.06573403     -0.303485990       4635.79199      -1.55571508    
  0.841796994      -1.06647599     -0.606999993       4635.79199      -1.55571508    
  0.713809013      -1.15876603     -0.606999993       4635.79199      -1.55571508    
  0.712854981      -1.15688002     -0.303496987       4635.79199      -1.55571508    
  0.841498017      -1.06573403     -0.303485990       4763.57520      -1.55860901    
  0.841937006      -1.06636095       0.00000000       4763.57520      -1.55860901    
  0.963932991     -0.966242015       0.00000000       4763.57520      -1.55860901    
  0.960639000     -0.962104976     -0.303470999       4763.57520      -1.55860901    
  0.963932991     -0.966242015       0.00000000       4286.71826      -1.55868781    
   1.06506598     -0.843514979       0.00000000       4286.71826      -1.55868781    
   1.06428695     -0.842682004     -0.303481996       4286.71826      -1.55868781    
  0.960639000     -0.962104976     -0.303470999       4286.71826      -1.55868781    
   1.06428695     -0.842682004     -0.303481996       3448.27271      -1.55647230    
   1.15591598     -0.714210987     -0.303485006       3448.27271      -1.55647230    
   1.15788805     -0.715448976     -0.606999993       3448.27271      -1.55647230    
   1.06537795     -0.843134999     -0.606999993       3448.27271      -1.55647230    
   1.06428695     -0.842682004     -0.303481996       3810.99097      -1.55583990    
   1.06537795     -0.843134999     -0.606999993       3810.99097      -1.55583990    
  0.964356005     -0.965893984     -0.606999993       3810.99097      -1.55583990    
  0.960639000     -0.962104976     -0.303470999       3810.99097      -1.55583990    
   1.06428695     -0.842682004     -0.303481996       3722.24219      -1.55882013    
   1.06506598     -0.843514979       0.00000000       3722.24219      -1.55882013    
   1.15792501     -0.715381980       0.00000000       3722.24219      -1.55882013    
   1.15591598     -0.714210987     -0.303485006       3722.24219      -1.55882013    
   1.15792501     -0.715381980       0.00000000       3122.59473      -1.55896103    
   1.23237598     -0.576093972       0.00000000       3122.59473      -1.55896103    
   1.23120904     -0.575251997     -0.303514004       3122.59473      -1.55896103    
   1.15591598     -0.714210987     -0.303485006       3122.59473      -1.55896103    
   1.23120904     -0.575251997     -0.303514004       2335.77686      -1.55715406    
   1.28844094     -0.428344995     -0.303512990       2335.77686      -1.55715406    
   1.28952503     -0.428642988     -0.606999993       2335.77686      -1.55715406    
   1.23252702     -0.575810015     -0.606999993       2335.77686      -1.55715406    
   1.23120904     -0.575251997     -0.303514004       2909.61548      -1.55671906    
   1.23252702     -0.575810015     -0.606999993       2909.61548      -1.55671906    
   1.15788805     -0.715448976     -0.606999993       2909.61548      -1.55671906    
   1.15591598     -0.714210987     -0.303485006       2909.61548      -1.55671906    
   1.23120904     -0.575251997     -0.303514004       2628.89087      -1.55970621    
   1.23237598     -0.576093972       0.00000000       2628.89087      -1.55970621    
   1.28947699     -0.428801000       0.00000000       2628.89087      -1.55970621    
   1.28844094     -0.428344995     -0.303512990       2628.89087      -1.55970621    
   1.28947699     -0.428801000       0.00000000       1887.09143      -1.56020212    
   1.33532202     -0.277671993       0.00000000       1887.09143      -1.56020212    
   1.33076501     -0.276203990     -0.303492010       1887.09143      -1.56020212    
   1.28844094     -0.428344995     -0.303512990       1887.09143      -1.56020212    
   1.33076501     -0.276203990     -0.303492010       1174.86316      -1.56008613    
   1.35229194     -0.119709998     -0.303514004       1174.86316      -1.56008613    
   1.35321999     -0.119608998     -0.606999993       1174.86316      -1.56008613    
   1.33549094     -0.277112991     -0.606999993       1174.86316      -1.56008613    
   1.33076501     -0.276203990     -0.303492010       1738.43811      -1.55798578    
   1.33549094     -0.277112991     -0.606999993       1738.43811      -1.55798578    
   1.28952503     -0.428642988     -0.606999993       1738.43811      -1.55798578    
   1.28844094     -0.428344995     -0.303512990       1738.43811      -1.55798578    
   1.33076501     -0.276203990     -0.303492010       1064.02185      -1.56068540    
   1.33532202     -0.277671993       0.00000000       1064.02185      -1.56068540    
   1.35319102     -0.119900003       0.00000000       1064.02185      -1.56068540    
   1.35229194     -0.119709998     -0.303514004       1064.02185      -1.56068540    
   1.35319102     -0.119900003       0.00000000       343.639679      -1.56664848    
   1.36124396       3.81390005E-02   0.00000000       343.639679      -1.56664848    
   1.35858905       3.79349999E-02 -0.303501010       343.639679      -1.56664848    
   1.35229194     -0.119709998     -0.303514004       343.639679      -1.56664848    
   1.35858905       3.79349999E-02 -0.303501010       221.093765       1.60705006    
   1.34464097      0.195331007     -0.303496003       221.093765       1.60705006    
   1.34573400      0.195616007     -0.606999993       221.093765       1.60705006    
   1.36126804       3.78950015E-02 -0.606999993       221.093765       1.60705006    
   1.35858905       3.79349999E-02 -0.303501010       394.694885      -1.56583512    
   1.36126804       3.78950015E-02 -0.606999993       394.694885      -1.56583512    
   1.35321999     -0.119608998     -0.606999993       394.694885      -1.56583512    
   1.35229194     -0.119709998     -0.303514004       394.694885      -1.56583512    
   1.35858905       3.79349999E-02 -0.303501010       313.352570       1.59532058    
   1.36124396       3.81390005E-02   0.00000000       313.352570       1.59532058    
   1.34575403      0.195406005       0.00000000       313.352570       1.59532058    
   1.34464097      0.195331007     -0.303496003       313.352570       1.59532058    
   1.34575403      0.195406005       0.00000000       1018.49786       1.58729815    
   1.31339800      0.349945009       0.00000000       1018.49786       1.58729815    
   1.31216300      0.349725991     -0.303487003       1018.49786       1.58729815    
   1.34464097      0.195331007     -0.303496003       1018.49786       1.58729815    
   1.31216300      0.349725991     -0.303487003       1515.04028       1.58943522    
   1.26341999      0.500032008     -0.303494006       1515.04028       1.58943522    
   1.26736605      0.501691997     -0.606999993       1515.04028       1.58943522    
   1.31333196      0.350163996     -0.606999993       1515.04028       1.58943522    
   1.31216300      0.349725991     -0.303487003       845.399780       1.59209907    
   1.31333196      0.350163996     -0.606999993       845.399780       1.59209907    
   1.34573400      0.195616007     -0.606999993       845.399780       1.59209907    
   1.34464097      0.195331007     -0.303496003       845.399780       1.59209907    
   1.31216300      0.349725991     -0.303487003       1711.15552       1.58587527    
   1.31339800      0.349945009       0.00000000       1711.15552       1.58587527    
   1.26751196      0.501209974       0.00000000       1711.15552       1.58587527    
   1.26341999      0.500032008     -0.303494006       1711.15552       1.58587527    
   1.26751196      0.501209974       0.00000000       2411.83228       1.58497059    
   1.19658697      0.643051028       0.00000000       2411.83228       1.58497059    
   1.19583094      0.642783999     -0.303505003       2411.83228       1.58497059    
   1.26341999      0.500032008     -0.303494006       2411.83228       1.58497059    
   1.19583094      0.642783999     -0.303505003       2691.41724       1.58807468    
   1.11495602      0.778467000     -0.303483993       2691.41724       1.58807468    
   1.11731696      0.779847026     -0.606999993       2691.41724       1.58807468    
   1.19653296      0.643149972     -0.606999993       2691.41724       1.58807468    
   1.19583094      0.642783999     -0.303505003       2094.02271       1.58868897    
   1.19653296      0.643149972     -0.606999993       2094.02271       1.58868897    
   1.26736605      0.501691997     -0.606999993       2094.02271       1.58868897    
   1.26341999      0.500032008     -0.303494006       2094.02271       1.58868897    
   1.19583094      0.642783999     -0.303505003       3045.13257       1.58469331    
   1.19658697      0.643051028       0.00000000       3045.13257       1.58469331    
   1.11705506      0.780165970       0.00000000       3045.13257       1.58469331    
   1.11495602      0.778467000     -0.303483993       3045.13257       1.58469331    
   1.11705506      0.780165970       0.00000000       3612.96582       1.58453560    
   1.01674199      0.902397990       0.00000000       3612.96582       1.58453560    
   1.01591504      0.901737988     -0.303478003       3612.96582       1.58453560    
   1.11495602      0.778467000     -0.303483993       3612.96582       1.58453560    
   1.01591504      0.901737988     -0.303478003       3711.90161       1.58753800    
  0.904204011       1.01322901     -0.303456992       3711.90161       1.58753800    
  0.905143023       1.01448905     -0.606999993       3711.90161       1.58753800    
   1.01659799      0.902572989     -0.606999993       3711.90161       1.58753800    
   1.01591504      0.901737988     -0.303478003       3240.11304       1.58767819    
   1.01659799      0.902572989     -0.606999993       3240.11304       1.58767819    
   1.11731696      0.779847026     -0.606999993       3240.11304       1.58767819    
   1.11495602      0.778467000     -0.303483993       3240.11304       1.58767819    
   1.01591504      0.901737988     -0.303478003       4139.77295       1.58441389    
   1.01674199      0.902397990       0.00000000       4139.77295       1.58441389    
  0.905318975       1.01434398       0.00000000       4139.77295       1.58441389    
  0.904204011       1.01322901     -0.303456992       4139.77295       1.58441389    
  0.905318975       1.01434398       0.00000000       4640.92676       1.58427119    
  0.782918990       1.11479497       0.00000000       4640.92676       1.58427119    
  0.780644000       1.11195600     -0.303485006       4640.92676       1.58427119    
  0.904204011       1.01322901     -0.303456992       4640.92676       1.58427119    
  0.780644000       1.11195600     -0.303485006       4476.44775       1.58742058    
  0.645825028       1.19414902     -0.303514004       4476.44775       1.58742058    
  0.646153986       1.19492805     -0.606999993       4476.44775       1.58742058    
  0.782611012       1.11504900     -0.606999993       4476.44775       1.58742058    
  0.780644000       1.11195600     -0.303485006       4124.85156       1.58748460    
  0.782611012       1.11504900     -0.606999993       4124.85156       1.58748460    
  0.905143023       1.01448905     -0.606999993       4124.85156       1.58748460    
  0.904204011       1.01322901     -0.303456992       4124.85156       1.58748460    
  0.780644000       1.11195600     -0.303485006       5031.95166       1.58425808    
  0.782918990       1.11479497       0.00000000       5031.95166       1.58425808    
  0.646345019       1.19482601       0.00000000       5031.95166       1.58425808    
  0.645825028       1.19414902     -0.303514004       5031.95166       1.58425808    
  0.646345019       1.19482601       0.00000000       5334.94775       1.58431220    
  0.504974008       1.26637006       0.00000000       5334.94775       1.58431220    
  0.503772974       1.26314998     -0.303521991       5334.94775       1.58431220    
  0.645825028       1.19414902     -0.303514004       5334.94775       1.58431220    
  0.503772974       1.26314998     -0.303521991       5012.46338       1.58731186    
  0.353130996       1.31116498     -0.303510994       5012.46338       1.58731186    
  0.353300005       1.31237996     -0.606999993       5012.46338       1.58731186    
  0.505183995       1.26630700     -0.606999993       5012.46338       1.58731186    
  0.503772974       1.26314998     -0.303521991       4779.18457       1.58736765    
  0.505183995       1.26630700     -0.606999993       4779.18457       1.58736765    
  0.646153986       1.19492805     -0.606999993       4779.18457       1.58736765    
  0.645825028       1.19414902     -0.303514004       4779.18457       1.58736765    
  0.503772974       1.26314998     -0.303521991       5586.06934       1.58428955    
  0.504974008       1.26637006       0.00000000       5586.06934       1.58428955    
  0.353493989       1.31232095       0.00000000       5586.06934       1.58428955    
  0.353130996       1.31116498     -0.303510994       5586.06934       1.58428955    
  0.353493989       1.31232095       0.00000000       5771.22314       1.58424425    
  0.199064001       1.34539402       0.00000000       5771.22314       1.58424425    
  0.198755994       1.34360003     -0.303496003       5771.22314       1.58424425    
  0.353130996       1.31116498     -0.303510994       5771.22314       1.58424425    
  0.198755994       1.34360003     -0.303496003       5229.64941       1.58734596    
   4.12769988E-02   1.35817802     -0.303508013       5229.64941       1.58734596    
   4.12410013E-02   1.36093795     -0.606999993       5229.64941       1.58734596    
  0.199025005       1.34539795     -0.606999993       5229.64941       1.58734596    
  0.198755994       1.34360003     -0.303496003       5176.91064       1.58725357    
  0.199025005       1.34539795     -0.606999993       5176.91064       1.58725357    
  0.353300005       1.31237996     -0.606999993       5176.91064       1.58725357    
  0.353130996       1.31116498     -0.303510994       5176.91064       1.58725357    
  0.198755994       1.34360003     -0.303496003       5875.07080       1.58422673    
  0.199064001       1.34539402       0.00000000       5875.07080       1.58422673    
   4.17769998E-02   1.36088502       0.00000000       5875.07080       1.58422673    
   4.12769988E-02   1.35817802     -0.303508013       5875.07080       1.58422673    
   4.17769998E-02   1.36088502       0.00000000       5928.95996       1.58415353    
 -0.116410002       1.35353506       0.00000000       5928.95996       1.58415353    
 -0.116471998       1.35271096     -0.303496987       5928.95996       1.58415353    
   4.12769988E-02   1.35817802     -0.303508013       5928.95996       1.58415353    
 -0.116471998       1.35271096     -0.303496987       5268.38623       1.58716226    
 -0.273027003       1.33229196     -0.303496003       5268.38623       1.58716226    
 -0.273876995       1.33647299     -0.606999993       5268.38623       1.58716226    
 -0.116722003       1.35350394     -0.606999993       5268.38623       1.58716226    
 -0.116471998       1.35271096     -0.303496987       5252.28271       1.58730209    
 -0.116722003       1.35350394     -0.606999993       5252.28271       1.58730209    
   4.12410013E-02   1.36093795     -0.606999993       5252.28271       1.58730209    
   4.12769988E-02   1.35817802     -0.303508013       5252.28271       1.58730209    
 -0.116471998       1.35271096     -0.303496987       5879.61816       1.58414781    
 -0.116410002       1.35353506       0.00000000       5879.61816       1.58414781    
 -0.274069011       1.33641505       0.00000000       5879.61816       1.58414781    
 -0.273027003       1.33229196     -0.303496003       5879.61816       1.58414781    
 -0.274069011       1.33641505       0.00000000       5749.24756       1.58413267    
 -0.425588995       1.29045200       0.00000000       5749.24756       1.58413267    
 -0.425258011       1.28953803     -0.303507000       5749.24756       1.58413267    
 -0.273027003       1.33229196     -0.303496003       5749.24756       1.58413267    
 -0.425258011       1.28953803     -0.303507000       4972.88867       1.58704329    
 -0.572302997       1.23206902     -0.303485990       4972.88867       1.58704329    
 -0.573064029       1.23399496     -0.606999993       4972.88867       1.58704329    
 -0.425651014       1.29043305     -0.606999993       4972.88867       1.58704329    
 -0.425258011       1.28953803     -0.303507000       5154.53027       1.58712518    
 -0.425651014       1.29043305     -0.606999993       5154.53027       1.58712518    
 -0.273876995       1.33647299     -0.606999993       5154.53027       1.58712518    
 -0.273027003       1.33229196     -0.303496003       5154.53027       1.58712518    
 -0.425258011       1.28953803     -0.303507000       5525.78320       1.58409047    
 -0.425588995       1.29045200       0.00000000       5525.78320       1.58409047    
 -0.573195994       1.23392498       0.00000000       5525.78320       1.58409047    
 -0.572302997       1.23206902     -0.303485990       5525.78320       1.58409047    
 -0.573195994       1.23392498       0.00000000       5223.96484       1.58408380    
 -0.712655008       1.15938199       0.00000000       5223.96484       1.58408380    
 -0.711889029       1.15749002     -0.303496003       5223.96484       1.58408380    
 -0.572302997       1.23206902     -0.303485990       5223.96484       1.58408380    
 -0.711889029       1.15749002     -0.303496003       4406.13721       1.58697033    
 -0.840825975       1.06629205     -0.303485990       4406.13721       1.58697033    
 -0.841368973       1.06682706     -0.606999993       4406.13721       1.58697033    
 -0.712980986       1.15920806     -0.606999993       4406.13721       1.58697033    
 -0.711889029       1.15749002     -0.303496003       4716.86572       1.58702636    
 -0.712980986       1.15920806     -0.606999993       4716.86572       1.58702636    
 -0.573064029       1.23399496     -0.606999993       4716.86572       1.58702636    
 -0.572302997       1.23206902     -0.303485990       4716.86572       1.58702636    
 -0.711889029       1.15749002     -0.303496003       4864.93311       1.58402884    
 -0.712655008       1.15938199       0.00000000       4864.93311       1.58402884    
 -0.841165006       1.06699395       0.00000000       4864.93311       1.58402884    
 -0.840825975       1.06629205     -0.303485990       4864.93311       1.58402884    
 -0.841165006       1.06699395       0.00000000       4434.24707       1.58403611    
 -0.963320017      0.966744006       0.00000000       4434.24707       1.58403611    
 -0.960084975      0.962615013     -0.303470999       4434.24707       1.58403611    
 -0.840825975       1.06629205     -0.303485990       4434.24707       1.58403611    
 -0.960084975      0.962615013     -0.303470999       3586.04102       1.58702326    
  -1.06383705      0.843237996     -0.303481996       3586.04102       1.58702326    
  -1.06481802      0.843816996     -0.606999993       3586.04102       1.58702326    
 -0.963873982      0.966289997     -0.606999993       3586.04102       1.58702326    
 -0.960084975      0.962615013     -0.303470999       4016.47607       1.58699203    
 -0.963873982      0.966289997     -0.606999993       4016.47607       1.58699203    
 -0.841368973       1.06682706     -0.606999993       4016.47607       1.58699203    
 -0.840825975       1.06629205     -0.303485990       4016.47607       1.58699203    
 -0.960084975      0.962615013     -0.303470999       3966.19824       1.58404064    
 -0.963320017      0.966744006       0.00000000       3966.19824       1.58404064    
  -1.06464398      0.844029009       0.00000000       3966.19824       1.58404064    
  -1.06383705      0.843237996     -0.303481996       3966.19824       1.58404064    
  -1.06464398      0.844029009       0.00000000       3417.39673       1.58406758    
  -1.15769398      0.715813994       0.00000000       3417.39673       1.58406758    
  -1.15564799      0.714680016     -0.303483993       3417.39673       1.58406758    
  -1.06383705      0.843237996     -0.303481996       3417.39673       1.58406758    
  -1.15564799      0.714680016     -0.303483993       2591.22559       1.58699191    
  -1.23108304      0.575536013     -0.303514004       2591.22559       1.58699191    
  -1.23232996      0.576179981     -0.606999993       2591.22559       1.58699191    
  -1.15756094      0.716063023     -0.606999993       2591.22559       1.58699191    
  -1.15564799      0.714680016     -0.303483993       3105.92334       1.58699620    
  -1.15756094      0.716063023     -0.606999993       3105.92334       1.58699620    
  -1.06481802      0.843816996     -0.606999993       3105.92334       1.58699620    
  -1.06383705      0.843237996     -0.303481996       3105.92334       1.58699620    
  -1.15564799      0.714680016     -0.303483993       2832.60889       1.58417428    
  -1.15769398      0.715813994       0.00000000       2832.60889       1.58417428    
  -1.23224795      0.576331973       0.00000000       2832.60889       1.58417428    
  -1.23108304      0.575536013     -0.303514004       2832.60889       1.58417428    
  -1.23224795      0.576331973       0.00000000       2205.05029       1.58432913    
  -1.28948605      0.428772002       0.00000000       2205.05029       1.58432913    
  -1.28842103      0.428404987     -0.303512990       2205.05029       1.58432913    
  -1.23108304      0.575536013     -0.303514004       2205.05029       1.58432913    
  -1.28842103      0.428404987     -0.303512990       1397.59033       1.58777058    
  -1.33082402      0.275959998     -0.303492010       1397.59033       1.58777058    
  -1.33550000      0.277083993     -0.606999993       1397.59033       1.58777058    