 VARIABLES="X" "Y" "Z" "abs(p) (Pa)" "angle(p) (rad)"
ZONE N=   2720,E =    2069, F=FEPOINT, ET=QUADRILATERAL
 -0.767116010      -1.12776399       0.00000000       3171.55591      -1.55243421    
 -0.769354999      -1.12002099     -0.303523988       3171.55591      -1.55243421    
 -0.896136999      -1.02028203     -0.303463012       3171.55591      -1.55243421    
 -0.894908011      -1.02288902       0.00000000       3171.55591      -1.55243421    
 -0.767116010      -1.12776399       0.00000000       3157.41870      -1.55242050    
 -0.630888999      -1.20308697       0.00000000       3157.41870      -1.55242050    
 -0.635528028      -1.19958198     -0.303541005       3157.41870      -1.55242050    
 -0.769354999      -1.12002099     -0.303523988       3157.41870      -1.55242050    
 -0.635528028      -1.19958198     -0.303541005       2188.59985      -1.55287933    
 -0.495362997      -1.26606500     -0.303519011       2188.59985      -1.55287933    
 -0.499298006      -1.26809204     -0.606999993       2188.59985      -1.55287933    
 -0.640147984      -1.19813800     -0.606998026       2188.59985      -1.55287933    
 -0.635528028      -1.19958198     -0.303541005       2194.44678      -1.55285370    
 -0.640147984      -1.19813800     -0.606998026       2194.44678      -1.55285370    
 -0.777105987      -1.11956596     -0.606999993       2194.44678      -1.55285370    
 -0.769354999      -1.12002099     -0.303523988       2194.44678      -1.55285370    
 -0.635528028      -1.19958198     -0.303541005       3114.14062      -1.55221510    
 -0.630888999      -1.20308697       0.00000000       3114.14062      -1.55221510    
 -0.494486004      -1.26955199       0.00000000       3114.14062      -1.55221510    
 -0.495362997      -1.26606500     -0.303519011       3114.14062      -1.55221510    
 -0.494486004      -1.26955199       0.00000000       3110.37817      -1.55218005    
 -0.346311986      -1.31449997       0.00000000       3110.37817      -1.55218005    
 -0.346753001      -1.31307304     -0.303510010       3110.37817      -1.55218005    
 -0.495362997      -1.26606500     -0.303519011       3110.37817      -1.55218005    
 -0.346753001      -1.31307304     -0.303510010       2181.79761      -1.55293775    
 -0.193608001      -1.34425998     -0.303494990       2181.79761      -1.55293775    
 -0.195028007      -1.34579206     -0.606999993       2181.79761      -1.55293775    
 -0.348751009      -1.31376004     -0.606999993       2181.79761      -1.55293775    
 -0.346753001      -1.31307304     -0.303510010       2184.81079      -1.55291009    
 -0.348751009      -1.31376004     -0.606999993       2184.81079      -1.55291009    
 -0.499298006      -1.26809204     -0.606999993       2184.81079      -1.55291009    
 -0.495362997      -1.26606500     -0.303519011       2184.81079      -1.55291009    
 -0.346753001      -1.31307304     -0.303510010       3119.35938      -1.55216300    
 -0.346311986      -1.31449997       0.00000000       3119.35938      -1.55216300    
 -0.193381995      -1.34595394       0.00000000       3119.35938      -1.55216300    
 -0.193608001      -1.34425998     -0.303494990       3119.35938      -1.55216300    
 -0.193381995      -1.34595394       0.00000000       3143.67139      -1.55232906    
  -3.75179984E-02  -1.36130500       0.00000000       3143.67139      -1.55232906    
  -3.73950005E-02  -1.35827899     -0.303512007       3143.67139      -1.55232906    
 -0.193608001      -1.34425998     -0.303494990       3143.67139      -1.55232906    
  -3.73950005E-02  -1.35827899     -0.303512007       2173.56689      -1.55301583    
  0.119547002      -1.35239303     -0.303498000       2173.56689      -1.55301583    
  0.119135000      -1.35326600     -0.606999993       2173.56689      -1.55301583    
  -3.82840000E-02  -1.36122894     -0.606998980       2173.56689      -1.55301583    
  -3.73950005E-02  -1.35827899     -0.303512007       2175.54175      -1.55295455    
  -3.82840000E-02  -1.36122894     -0.606998980       2175.54175      -1.55295455    
 -0.195028007      -1.34579206     -0.606999993       2175.54175      -1.55295455    
 -0.193608001      -1.34425998     -0.303494990       2175.54175      -1.55295455    
  -3.73950005E-02  -1.35827899     -0.303512007       3106.38184      -1.55233228    
  -3.75179984E-02  -1.36130500       0.00000000       3106.38184      -1.55233228    
  0.119788997      -1.35320199       0.00000000       3106.38184      -1.55233228    
  0.119547002      -1.35239303     -0.303498000       3106.38184      -1.55233228    
  0.119788997      -1.35320199       0.00000000       3066.68115      -1.55233490    
  0.276576012      -1.33565402       0.00000000       3066.68115      -1.55233490    
  0.275435001      -1.33191597     -0.303496003       3066.68115      -1.55233490    
  0.119547002      -1.35239303     -0.303498000       3066.68115      -1.55233490    
  0.275435001      -1.33191597     -0.303496003       2163.65015      -1.55312693    
  0.427076995      -1.28898001     -0.303507000       2163.65015      -1.55312693    
  0.427242011      -1.28995001     -0.606999993       2163.65015      -1.55312693    
  0.275831014      -1.33588004     -0.606999993       2163.65015      -1.55312693    
  0.275435001      -1.33191597     -0.303496003       2171.55469      -1.55311668    
  0.275831014      -1.33588004     -0.606999993       2171.55469      -1.55311668    
  0.119135000      -1.35326600     -0.606999993       2171.55469      -1.55311668    
  0.119547002      -1.35239303     -0.303498000       2171.55469      -1.55311668    
  0.275435001      -1.33191597     -0.303496003       3027.77856      -1.55237007    
  0.276576012      -1.33565402       0.00000000       3027.77856      -1.55237007    
  0.427509993      -1.28986895       0.00000000       3027.77856      -1.55237007    
  0.427076995      -1.28898001     -0.303507000       3027.77856      -1.55237007    
  0.427509993      -1.28986895       0.00000000       2993.62354      -1.55243921    
  0.574636996      -1.23315501       0.00000000       2993.62354      -1.55243921    
  0.573706985      -1.23136795     -0.303485990       2993.62354      -1.55243921    
  0.427076995      -1.28898001     -0.303507000       2993.62354      -1.55243921    
  0.573706985      -1.23136795     -0.303485990       2166.21313      -1.55318499    
  0.712854981      -1.15688002     -0.303496987       2166.21313      -1.55318499    
  0.713809013      -1.15876603     -0.606999993       2166.21313      -1.55318499    
  0.574283004      -1.23334301     -0.606999993       2166.21313      -1.55318499    
  0.573706985      -1.23136795     -0.303485990       2159.49634      -1.55313241    
  0.574283004      -1.23334301     -0.606999993       2159.49634      -1.55313241    
  0.427242011      -1.28995001     -0.606999993       2159.49634      -1.55313241    
  0.427076995      -1.28898001     -0.303507000       2159.49634      -1.55313241    
  0.573706985      -1.23136795     -0.303485990       2990.89331      -1.55251336    
  0.574636996      -1.23315501       0.00000000       2990.89331      -1.55251336    
  0.713741004      -1.15880203       0.00000000       2990.89331      -1.55251336    
  0.712854981      -1.15688002     -0.303496987       2990.89331      -1.55251336    
  0.713741004      -1.15880203       0.00000000       3000.30420      -1.55254090    
  0.841937006      -1.06636095       0.00000000       3000.30420      -1.55254090    
  0.841498017      -1.06573403     -0.303485990       3000.30420      -1.55254090    
  0.712854981      -1.15688002     -0.303496987       3000.30420      -1.55254090    
  0.841498017      -1.06573403     -0.303485990       2188.77954      -1.55324268    
  0.960639000     -0.962104976     -0.303470999       2188.77954      -1.55324268    
  0.964356005     -0.965893984     -0.606999993       2188.77954      -1.55324268    
  0.841796994      -1.06647599     -0.606999993       2188.77954      -1.55324268    
  0.841498017      -1.06573403     -0.303485990       2175.99023      -1.55321610    
  0.841796994      -1.06647599     -0.606999993       2175.99023      -1.55321610    
  0.713809013      -1.15876603     -0.606999993       2175.99023      -1.55321610    
  0.712854981      -1.15688002     -0.303496987       2175.99023      -1.55321610    
  0.841498017      -1.06573403     -0.303485990       3031.60425      -1.55239940    
  0.841937006      -1.06636095       0.00000000       3031.60425      -1.55239940    
  0.963932991     -0.966242015       0.00000000       3031.60425      -1.55239940    
  0.960639000     -0.962104976     -0.303470999       3031.60425      -1.55239940    
  0.963932991     -0.966242015       0.00000000       3062.45801      -1.55240619    
   1.06506598     -0.843514979       0.00000000       3062.45801      -1.55240619    
   1.06428695     -0.842682004     -0.303481996       3062.45801      -1.55240619    
  0.960639000     -0.962104976     -0.303470999       3062.45801      -1.55240619    
   1.06428695     -0.842682004     -0.303481996       2185.97412      -1.55300641    
   1.15591598     -0.714210987     -0.303485006       2185.97412      -1.55300641    
   1.15788805     -0.715448976     -0.606999993       2185.97412      -1.55300641    
   1.06537795     -0.843134999     -0.606999993       2185.97412      -1.55300641    
   1.06428695     -0.842682004     -0.303481996       2202.66479      -1.55326581    
   1.06537795     -0.843134999     -0.606999993       2202.66479      -1.55326581    
  0.964356005     -0.965893984     -0.606999993       2202.66479      -1.55326581    
  0.960639000     -0.962104976     -0.303470999       2202.66479      -1.55326581    
   1.06428695     -0.842682004     -0.303481996       3052.58057      -1.55244076    
   1.06506598     -0.843514979       0.00000000       3052.58057      -1.55244076    
   1.15792501     -0.715381980       0.00000000       3052.58057      -1.55244076    
   1.15591598     -0.714210987     -0.303485006       3052.58057      -1.55244076    
   1.15792501     -0.715381980       0.00000000       3094.74609      -1.55248070    
   1.23237598     -0.576093972       0.00000000       3094.74609      -1.55248070    
   1.23120904     -0.575251997     -0.303514004       3094.74609      -1.55248070    
   1.15591598     -0.714210987     -0.303485006       3094.74609      -1.55248070    
   1.23120904     -0.575251997     -0.303514004       2224.00830      -1.55304098    
   1.28844094     -0.428344995     -0.303512990       2224.00830      -1.55304098    
   1.28952503     -0.428642988     -0.606999993       2224.00830      -1.55304098    
   1.23252702     -0.575810015     -0.606999993       2224.00830      -1.55304098    
   1.23120904     -0.575251997     -0.303514004       2205.03613      -1.55302727    
   1.23252702     -0.575810015     -0.606999993       2205.03613      -1.55302727    
   1.15788805     -0.715448976     -0.606999993       2205.03613      -1.55302727    
   1.15591598     -0.714210987     -0.303485006       2205.03613      -1.55302727    
   1.23120904     -0.575251997     -0.303514004       3107.11377      -1.55231357    
   1.23237598     -0.576093972       0.00000000       3107.11377      -1.55231357    
   1.28947699     -0.428801000       0.00000000       3107.11377      -1.55231357    
   1.28844094     -0.428344995     -0.303512990       3107.11377      -1.55231357    
   1.28947699     -0.428801000       0.00000000       3182.22949      -1.55250049    
   1.33532202     -0.277671993       0.00000000       3182.22949      -1.55250049    
   1.33076501     -0.276203990     -0.303492010       3182.22949      -1.55250049    
   1.28844094     -0.428344995     -0.303512990       3182.22949      -1.55250049    
   1.33076501     -0.276203990     -0.303492010       2219.15186      -1.55278015    
   1.35229194     -0.119709998     -0.303514004       2219.15186      -1.55278015    
   1.35321999     -0.119608998     -0.606999993       2219.15186      -1.55278015    
   1.33549094     -0.277112991     -0.606999993       2219.15186      -1.55278015    
   1.33076501     -0.276203990     -0.303492010       2236.37329      -1.55302227    
   1.33549094     -0.277112991     -0.606999993       2236.37329      -1.55302227    
   1.28952503     -0.428642988     -0.606999993       2236.37329      -1.55302227    
   1.28844094     -0.428344995     -0.303512990       2236.37329      -1.55302227    
   1.33076501     -0.276203990     -0.303492010       3240.82300      -1.55273926    
   1.33532202     -0.277671993       0.00000000       3240.82300      -1.55273926    
   1.35319102     -0.119900003       0.00000000       3240.82300      -1.55273926    
   1.35229194     -0.119709998     -0.303514004       3240.82300      -1.55273926    
   1.35319102     -0.119900003       0.00000000       3261.49341      -1.55276000    
   1.36124396       3.81390005E-02   0.00000000       3261.49341      -1.55276000    
   1.35858905       3.79349999E-02 -0.303501010       3261.49341      -1.55276000    
   1.35229194     -0.119709998     -0.303514004       3261.49341      -1.55276000    
   1.35858905       3.79349999E-02 -0.303501010       2275.03857      -1.55310023    
   1.34464097      0.195331007     -0.303496003       2275.03857      -1.55310023    
   1.34573400      0.195616007     -0.606999993       2275.03857      -1.55310023    
   1.36126804       3.78950015E-02 -0.606999993       2275.03857      -1.55310023    
   1.35858905       3.79349999E-02 -0.303501010       2268.23950      -1.55309319    
   1.36126804       3.78950015E-02 -0.606999993       2268.23950      -1.55309319    
   1.35321999     -0.119608998     -0.606999993       2268.23950      -1.55309319    
   1.35229194     -0.119709998     -0.303514004       2268.23950      -1.55309319    
   1.35858905       3.79349999E-02 -0.303501010       3254.65991      -1.55255413    
   1.36124396       3.81390005E-02   0.00000000       3254.65991      -1.55255413    
   1.34575403      0.195406005       0.00000000       3254.65991      -1.55255413    
   1.34464097      0.195331007     -0.303496003       3254.65991      -1.55255413    
   1.34575403      0.195406005       0.00000000       3274.82886      -1.55252719    
   1.31339800      0.349945009       0.00000000       3274.82886      -1.55252719    
   1.31216300      0.349725991     -0.303487003       3274.82886      -1.55252719    
   1.34464097      0.195331007     -0.303496003       3274.82886      -1.55252719    
   1.31216300      0.349725991     -0.303487003       2308.36719      -1.55338347    
   1.26341999      0.500032008     -0.303494006       2308.36719      -1.55338347    
   1.26736605      0.501691997     -0.606999993       2308.36719      -1.55338347    
   1.31333196      0.350163996     -0.606999993       2308.36719      -1.55338347    
   1.31216300      0.349725991     -0.303487003       2283.91748      -1.55315125    
   1.31333196      0.350163996     -0.606999993       2283.91748      -1.55315125    
   1.34573400      0.195616007     -0.606999993       2283.91748      -1.55315125    
   1.34464097      0.195331007     -0.303496003       2283.91748      -1.55315125    
   1.31216300      0.349725991     -0.303487003       3297.26050      -1.55248153    
   1.31339800      0.349945009       0.00000000       3297.26050      -1.55248153    
   1.26751196      0.501209974       0.00000000       3297.26050      -1.55248153    
   1.26341999      0.500032008     -0.303494006       3297.26050      -1.55248153    
   1.26751196      0.501209974       0.00000000       3338.96558      -1.55263972    
   1.19658697      0.643051028       0.00000000       3338.96558      -1.55263972    
   1.19583094      0.642783999     -0.303505003       3338.96558      -1.55263972    
   1.26341999      0.500032008     -0.303494006       3338.96558      -1.55263972    
   1.19583094      0.642783999     -0.303505003       2281.19873      -1.55322075    
   1.11495602      0.778467000     -0.303483993       2281.19873      -1.55322075    
   1.11731696      0.779847026     -0.606999993       2281.19873      -1.55322075    
   1.19653296      0.643149972     -0.606999993       2281.19873      -1.55322075    
   1.19583094      0.642783999     -0.303505003       2309.79761      -1.55343294    
   1.19653296      0.643149972     -0.606999993       2309.79761      -1.55343294    
   1.26736605      0.501691997     -0.606999993       2309.79761      -1.55343294    
   1.26341999      0.500032008     -0.303494006       2309.79761      -1.55343294    
   1.19583094      0.642783999     -0.303505003       3306.57080      -1.55264473    
   1.19658697      0.643051028       0.00000000       3306.57080      -1.55264473    
   1.11705506      0.780165970       0.00000000       3306.57080      -1.55264473    
   1.11495602      0.778467000     -0.303483993       3306.57080      -1.55264473    
   1.11705506      0.780165970       0.00000000       3262.75439      -1.55268109    
   1.01674199      0.902397990       0.00000000       3262.75439      -1.55268109    
   1.01591504      0.901737988     -0.303478003       3262.75439      -1.55268109    
   1.11495602      0.778467000     -0.303483993       3262.75439      -1.55268109    
   1.01591504      0.901737988     -0.303478003       2284.29199      -1.55335462    
  0.904204011       1.01322901     -0.303456992       2284.29199      -1.55335462    
  0.905143023       1.01448905     -0.606999993       2284.29199      -1.55335462    
   1.01659799      0.902572989     -0.606999993       2284.29199      -1.55335462    
   1.01591504      0.901737988     -0.303478003       2294.17114      -1.55338001    
   1.01659799      0.902572989     -0.606999993       2294.17114      -1.55338001    
   1.11731696      0.779847026     -0.606999993       2294.17114      -1.55338001    
   1.11495602      0.778467000     -0.303483993       2294.17114      -1.55338001    
   1.01591504      0.901737988     -0.303478003       3216.40137      -1.55275381    
   1.01674199      0.902397990       0.00000000       3216.40137      -1.55275381    
  0.905318975       1.01434398       0.00000000       3216.40137      -1.55275381    
  0.904204011       1.01322901     -0.303456992       3216.40137      -1.55275381    
  0.905318975       1.01434398       0.00000000       3197.23413      -1.55263162    
  0.782918990       1.11479497       0.00000000       3197.23413      -1.55263162    
  0.780644000       1.11195600     -0.303485006       3197.23413      -1.55263162    
  0.904204011       1.01322901     -0.303456992       3197.23413      -1.55263162    
  0.780644000       1.11195600     -0.303485006       2275.51416      -1.55330324    
  0.645825028       1.19414902     -0.303514004       2275.51416      -1.55330324    
  0.646153986       1.19492805     -0.606999993       2275.51416      -1.55330324    
  0.782611012       1.11504900     -0.606999993       2275.51416      -1.55330324    
  0.780644000       1.11195600     -0.303485006       2278.11133      -1.55332935    
  0.782611012       1.11504900     -0.606999993       2278.11133      -1.55332935    
  0.905143023       1.01448905     -0.606999993       2278.11133      -1.55332935    
  0.904204011       1.01322901     -0.303456992       2278.11133      -1.55332935    
  0.780644000       1.11195600     -0.303485006       3178.16016      -1.55261624    
  0.782918990       1.11479497       0.00000000       3178.16016      -1.55261624    
  0.646345019       1.19482601       0.00000000       3178.16016      -1.55261624    
  0.645825028       1.19414902     -0.303514004       3178.16016      -1.55261624    
  0.646345019       1.19482601       0.00000000       3216.76807      -1.55281281    
  0.504974008       1.26637006       0.00000000       3216.76807      -1.55281281    
  0.503772974       1.26314998     -0.303521991       3216.76807      -1.55281281    
  0.645825028       1.19414902     -0.303514004       3216.76807      -1.55281281    
  0.503772974       1.26314998     -0.303521991       2290.64917      -1.55337083    
  0.353130996       1.31116498     -0.303510994       2290.64917      -1.55337083    
  0.353300005       1.31237996     -0.606999993       2290.64917      -1.55337083    
  0.505183995       1.26630700     -0.606999993       2290.64917      -1.55337083    
  0.503772974       1.26314998     -0.303521991       2282.01367      -1.55333054    
  0.505183995       1.26630700     -0.606999993       2282.01367      -1.55333054    
  0.646153986       1.19492805     -0.606999993       2282.01367      -1.55333054    
  0.645825028       1.19414902     -0.303514004       2282.01367      -1.55333054    
  0.503772974       1.26314998     -0.303521991       3220.85889      -1.55280185    
  0.504974008       1.26637006       0.00000000       3220.85889      -1.55280185    
  0.353493989       1.31232095       0.00000000       3220.85889      -1.55280185    
  0.353130996       1.31116498     -0.303510994       3220.85889      -1.55280185    
  0.353493989       1.31232095       0.00000000       3228.82837      -1.55277407    
  0.199064001       1.34539402       0.00000000       3228.82837      -1.55277407    
  0.198755994       1.34360003     -0.303496003       3228.82837      -1.55277407    
  0.353130996       1.31116498     -0.303510994       3228.82837      -1.55277407    
  0.198755994       1.34360003     -0.303496003       2328.94580      -1.55361497    
   4.12769988E-02   1.35817802     -0.303508013       2328.94580      -1.55361497    
   4.12410013E-02   1.36093795     -0.606999993       2328.94580      -1.55361497    
  0.199025005       1.34539795     -0.606999993       2328.94580      -1.55361497    
  0.198755994       1.34360003     -0.303496003       2296.54150      -1.55337524    
  0.199025005       1.34539795     -0.606999993       2296.54150      -1.55337524    
  0.353300005       1.31237996     -0.606999993       2296.54150      -1.55337524    
  0.353130996       1.31116498     -0.303510994       2296.54150      -1.55337524    
  0.198755994       1.34360003     -0.303496003       3255.80859      -1.55271053    
  0.199064001       1.34539402       0.00000000       3255.80859      -1.55271053    
   4.17769998E-02   1.36088502       0.00000000       3255.80859      -1.55271053    
   4.12769988E-02   1.35817802     -0.303508013       3255.80859      -1.55271053    
   4.17769998E-02   1.36088502       0.00000000       3307.23901      -1.55270958    
 -0.116410002       1.35353506       0.00000000       3307.23901      -1.55270958    
 -0.116471998       1.35271096     -0.303496987       3307.23901      -1.55270958    
   4.12769988E-02   1.35817802     -0.303508013       3307.23901      -1.55270958    
 -0.116471998       1.35271096     -0.303496987       2355.64551      -1.55369592    
 -0.273027003       1.33229196     -0.303496003       2355.64551      -1.55369592    
 -0.273876995       1.33647299     -0.606999993       2355.64551      -1.55369592    
 -0.116722003       1.35350394     -0.606999993       2355.64551      -1.55369592    
 -0.116471998       1.35271096     -0.303496987       2335.38574      -1.55359828    
 -0.116722003       1.35350394     -0.606999993       2335.38574      -1.55359828    
   4.12410013E-02   1.36093795     -0.606999993       2335.38574      -1.55359828    
   4.12769988E-02   1.35817802     -0.303508013       2335.38574      -1.55359828    
 -0.116471998       1.35271096     -0.303496987       3354.81128      -1.55264938    
 -0.116410002       1.35353506       0.00000000       3354.81128      -1.55264938    
 -0.274069011       1.33641505       0.00000000       3354.81128      -1.55264938    
 -0.273027003       1.33229196     -0.303496003       3354.81128      -1.55264938    
 -0.274069011       1.33641505       0.00000000       3348.61572      -1.55261159    
 -0.425588995       1.29045200       0.00000000       3348.61572      -1.55261159    
 -0.425258011       1.28953803     -0.303507000       3348.61572      -1.55261159    
 -0.273027003       1.33229196     -0.303496003       3348.61572      -1.55261159    
 -0.425258011       1.28953803     -0.303507000       2337.72510      -1.55357218    
 -0.572302997       1.23206902     -0.303485990       2337.72510      -1.55357218    
 -0.573064029       1.23399496     -0.606999993       2337.72510      -1.55357218    
 -0.425651014       1.29043305     -0.606999993       2337.72510      -1.55357218    
 -0.425258011       1.28953803     -0.303507000       2350.60303      -1.55364108    
 -0.425651014       1.29043305     -0.606999993       2350.60303      -1.55364108    
 -0.273876995       1.33647299     -0.606999993       2350.60303      -1.55364108    
 -0.273027003       1.33229196     -0.303496003       2350.60303      -1.55364108    
 -0.425258011       1.28953803     -0.303507000       3285.89404      -1.55256534    
 -0.425588995       1.29045200       0.00000000       3285.89404      -1.55256534    
 -0.573195994       1.23392498       0.00000000       3285.89404      -1.55256534    
 -0.572302997       1.23206902     -0.303485990       3285.89404      -1.55256534    
 -0.573195994       1.23392498       0.00000000       3233.76562      -1.55250168    
 -0.712655008       1.15938199       0.00000000       3233.76562      -1.55250168    
 -0.711889029       1.15749002     -0.303496003       3233.76562      -1.55250168    
 -0.572302997       1.23206902     -0.303485990       3233.76562      -1.55250168    
 -0.711889029       1.15749002     -0.303496003       2305.11084      -1.55344570    
 -0.840825975       1.06629205     -0.303485990       2305.11084      -1.55344570    
 -0.841368973       1.06682706     -0.606999993       2305.11084      -1.55344570    
 -0.712980986       1.15920806     -0.606999993       2305.11084      -1.55344570    
 -0.711889029       1.15749002     -0.303496003       2319.93970      -1.55349815    
 -0.712980986       1.15920806     -0.606999993       2319.93970      -1.55349815    
 -0.573064029       1.23399496     -0.606999993       2319.93970      -1.55349815    
 -0.572302997       1.23206902     -0.303485990       2319.93970      -1.55349815    
 -0.711889029       1.15749002     -0.303496003       3182.68848      -1.55251122    
 -0.712655008       1.15938199       0.00000000       3182.68848      -1.55251122    
 -0.841165006       1.06699395       0.00000000       3182.68848      -1.55251122    
 -0.840825975       1.06629205     -0.303485990       3182.68848      -1.55251122    
 -0.841165006       1.06699395       0.00000000       3164.86719      -1.55243039    
 -0.963320017      0.966744006       0.00000000       3164.86719      -1.55243039    
 -0.960084975      0.962615013     -0.303470999       3164.86719      -1.55243039    
 -0.840825975       1.06629205     -0.303485990       3164.86719      -1.55243039    
 -0.960084975      0.962615013     -0.303470999       2283.18652      -1.55330443    
  -1.06383705      0.843237996     -0.303481996       2283.18652      -1.55330443    
  -1.06481802      0.843816996     -0.606999993       2283.18652      -1.55330443    
 -0.963873982      0.966289997     -0.606999993       2283.18652      -1.55330443    
 -0.960084975      0.962615013     -0.303470999       2290.22534      -1.55337417    
 -0.963873982      0.966289997     -0.606999993       2290.22534      -1.55337417    
 -0.841368973       1.06682706     -0.606999993       2290.22534      -1.55337417    
 -0.840825975       1.06629205     -0.303485990       2290.22534      -1.55337417    
 -0.960084975      0.962615013     -0.303470999       3176.67188      -1.55236781    
 -0.963320017      0.966744006       0.00000000       3176.67188      -1.55236781    
  -1.06464398      0.844029009       0.00000000       3176.67188      -1.55236781    
  -1.06383705      0.843237996     -0.303481996       3176.67188      -1.55236781    
  -1.06464398      0.844029009       0.00000000       3192.70923      -1.55230868    
  -1.15769398      0.715813994       0.00000000       3192.70923      -1.55230868    
  -1.15564799      0.714680016     -0.303483993       3192.70923      -1.55230868    
  -1.06383705      0.843237996     -0.303481996       3192.70923      -1.55230868    
  -1.15564799      0.714680016     -0.303483993       2308.69971      -1.55332398    
  -1.23108304      0.575536013     -0.303514004       2308.69971      -1.55332398    
  -1.23232996      0.576179981     -0.606999993       2308.69971      -1.55332398    
  -1.15756094      0.716063023     -0.606999993       2308.69971      -1.55332398    
  -1.15564799      0.714680016     -0.303483993       2288.45215      -1.55326355    
  -1.15756094      0.716063023     -0.606999993       2288.45215      -1.55326355    
  -1.06481802      0.843816996     -0.606999993       2288.45215      -1.55326355    
  -1.06383705      0.843237996     -0.303481996       2288.45215      -1.55326355    
  -1.15564799      0.714680016     -0.303483993       3258.43188      -1.55226457    
  -1.15769398      0.715813994       0.00000000       3258.43188      -1.55226457    
  -1.23224795      0.576331973       0.00000000       3258.43188      -1.55226457    
  -1.23108304      0.575536013     -0.303514004       3258.43188      -1.55226457    
  -1.23224795      0.576331973       0.00000000       3287.53125      -1.55225241    
  -1.28948605      0.428772002       0.00000000       3287.53125      -1.55225241    
  -1.28842103      0.428404987     -0.303512990       3287.53125      -1.55225241    
  -1.23108304      0.575536013     -0.303514004       3287.53125      -1.55225241    
  -1.28842103      0.428404987     -0.303512990       2287.60620      -1.55302131    
  -1.33082402      0.275959998     -0.303492010       2287.60620      -1.55302131    
  -1.33550000      0.277083993     -0.606999993       2287.60620      -1.55302131    