 VARIABLES="X" "Y" "Z" "abs(p) (Pa)" "angle(p) (rad)"
ZONE N=   2720,E =    2069, F=FEPOINT, ET=QUADRILATERAL
 -0.767116010      -1.12776399       0.00000000       965.069824      -1.61432326    
 -0.769354999      -1.12002099     -0.303523988       965.069824      -1.61432326    
 -0.896136999      -1.02028203     -0.303463012       965.069824      -1.61432326    
 -0.894908011      -1.02288902       0.00000000       965.069824      -1.61432326    
 -0.767116010      -1.12776399       0.00000000       810.155212      -1.61476684    
 -0.630888999      -1.20308697       0.00000000       810.155212      -1.61476684    
 -0.635528028      -1.19958198     -0.303541005       810.155212      -1.61476684    
 -0.769354999      -1.12002099     -0.303523988       810.155212      -1.61476684    
 -0.635528028      -1.19958198     -0.303541005       508.758667      -1.63125360    
 -0.495362997      -1.26606500     -0.303519011       508.758667      -1.63125360    
 -0.499298006      -1.26809204     -0.606999993       508.758667      -1.63125360    
 -0.640147984      -1.19813800     -0.606998026       508.758667      -1.63125360    
 -0.635528028      -1.19958198     -0.303541005       629.866211      -1.63163710    
 -0.640147984      -1.19813800     -0.606998026       629.866211      -1.63163710    
 -0.777105987      -1.11956596     -0.606999993       629.866211      -1.63163710    
 -0.769354999      -1.12002099     -0.303523988       629.866211      -1.63163710    
 -0.635528028      -1.19958198     -0.303541005       654.439575      -1.61358368    
 -0.630888999      -1.20308697       0.00000000       654.439575      -1.61358368    
 -0.494486004      -1.26955199       0.00000000       654.439575      -1.61358368    
 -0.495362997      -1.26606500     -0.303519011       654.439575      -1.61358368    
 -0.494486004      -1.26955199       0.00000000       485.715057      -1.61409712    
 -0.346311986      -1.31449997       0.00000000       485.715057      -1.61409712    
 -0.346753001      -1.31307304     -0.303510010       485.715057      -1.61409712    
 -0.495362997      -1.26606500     -0.303519011       485.715057      -1.61409712    
 -0.346753001      -1.31307304     -0.303510010       242.216415      -1.63192225    
 -0.193608001      -1.34425998     -0.303494990       242.216415      -1.63192225    
 -0.195028007      -1.34579206     -0.606999993       242.216415      -1.63192225    
 -0.348751009      -1.31376004     -0.606999993       242.216415      -1.63192225    
 -0.346753001      -1.31307304     -0.303510010       376.198456      -1.63206100    
 -0.348751009      -1.31376004     -0.606999993       376.198456      -1.63206100    
 -0.499298006      -1.26809204     -0.606999993       376.198456      -1.63206100    
 -0.495362997      -1.26606500     -0.303519011       376.198456      -1.63206100    
 -0.346753001      -1.31307304     -0.303510010       312.237915      -1.61415958    
 -0.346311986      -1.31449997       0.00000000       312.237915      -1.61415958    
 -0.193381995      -1.34595394       0.00000000       312.237915      -1.61415958    
 -0.193608001      -1.34425998     -0.303494990       312.237915      -1.61415958    
 -0.193381995      -1.34595394       0.00000000       132.919220      -1.62035275    
  -3.75179984E-02  -1.36130500       0.00000000       132.919220      -1.62035275    
  -3.73950005E-02  -1.35827899     -0.303512007       132.919220      -1.62035275    
 -0.193608001      -1.34425998     -0.303494990       132.919220      -1.62035275    
  -3.73950005E-02  -1.35827899     -0.303512007       37.9395180       1.51615453    
  0.119547002      -1.35239303     -0.303498000       37.9395180       1.51615453    
  0.119135000      -1.35326600     -0.606999993       37.9395180       1.51615453    
  -3.82840000E-02  -1.36122894     -0.606998980       37.9395180       1.51615453    
  -3.73950005E-02  -1.35827899     -0.303512007       104.111893      -1.63138199    
  -3.82840000E-02  -1.36122894     -0.606998980       104.111893      -1.63138199    
 -0.195028007      -1.34579206     -0.606999993       104.111893      -1.63138199    
 -0.193608001      -1.34425998     -0.303494990       104.111893      -1.63138199    
  -3.73950005E-02  -1.35827899     -0.303512007       49.6920319       1.54901743    
  -3.75179984E-02  -1.36130500       0.00000000       49.6920319       1.54901743    
  0.119788997      -1.35320199       0.00000000       49.6920319       1.54901743    
  0.119547002      -1.35239303     -0.303498000       49.6920319       1.54901743    
  0.119788997      -1.35320199       0.00000000       228.646408       1.53117061    
  0.276576012      -1.33565402       0.00000000       228.646408       1.53117061    
  0.275435001      -1.33191597     -0.303496003       228.646408       1.53117061    
  0.119547002      -1.35239303     -0.303498000       228.646408       1.53117061    
  0.275435001      -1.33191597     -0.303496003       317.730804       1.51305449    
  0.427076995      -1.28898001     -0.303507000       317.730804       1.51305449    
  0.427242011      -1.28995001     -0.606999993       317.730804       1.51305449    
  0.275831014      -1.33588004     -0.606999993       317.730804       1.51305449    
  0.275435001      -1.33191597     -0.303496003       175.821808       1.51268303    
  0.275831014      -1.33588004     -0.606999993       175.821808       1.51268303    
  0.119135000      -1.35326600     -0.606999993       175.821808       1.51268303    
  0.119547002      -1.35239303     -0.303498000       175.821808       1.51268303    
  0.275435001      -1.33191597     -0.303496003       410.276825       1.53060901    
  0.276576012      -1.33565402       0.00000000       410.276825       1.53060901    
  0.427509993      -1.28986895       0.00000000       410.276825       1.53060901    
  0.427076995      -1.28898001     -0.303507000       410.276825       1.53060901    
  0.427509993      -1.28986895       0.00000000       582.055420       1.52991390    
  0.574636996      -1.23315501       0.00000000       582.055420       1.52991390    
  0.573706985      -1.23136795     -0.303485990       582.055420       1.52991390    
  0.427076995      -1.28898001     -0.303507000       582.055420       1.52991390    
  0.573706985      -1.23136795     -0.303485990       577.394897       1.51151371    
  0.712854981      -1.15688002     -0.303496987       577.394897       1.51151371    
  0.713809013      -1.15876603     -0.606999993       577.394897       1.51151371    
  0.574283004      -1.23334301     -0.606999993       577.394897       1.51151371    
  0.573706985      -1.23136795     -0.303485990       449.562775       1.51186061    
  0.574283004      -1.23334301     -0.606999993       449.562775       1.51186061    
  0.427242011      -1.28995001     -0.606999993       449.562775       1.51186061    
  0.427076995      -1.28898001     -0.303507000       449.562775       1.51186061    
  0.573706985      -1.23136795     -0.303485990       748.624634       1.52960956    
  0.574636996      -1.23315501       0.00000000       748.624634       1.52960956    
  0.713741004      -1.15880203       0.00000000       748.624634       1.52960956    
  0.712854981      -1.15688002     -0.303496987       748.624634       1.52960956    
  0.713741004      -1.15880203       0.00000000       904.624451       1.52943766    
  0.841937006      -1.06636095       0.00000000       904.624451       1.52943766    
  0.841498017      -1.06573403     -0.303485990       904.624451       1.52943766    
  0.712854981      -1.15688002     -0.303496987       904.624451       1.52943766    
  0.841498017      -1.06573403     -0.303485990       805.900208       1.51101220    
  0.960639000     -0.962104976     -0.303470999       805.900208       1.51101220    
  0.964356005     -0.965893984     -0.606999993       805.900208       1.51101220    
  0.841796994      -1.06647599     -0.606999993       805.900208       1.51101220    
  0.841498017      -1.06573403     -0.303485990       698.289124       1.51161993    
  0.841796994      -1.06647599     -0.606999993       698.289124       1.51161993    
  0.713809013      -1.15876603     -0.606999993       698.289124       1.51161993    
  0.712854981      -1.15688002     -0.303496987       698.289124       1.51161993    
  0.841498017      -1.06573403     -0.303485990       1045.48010       1.52871597    
  0.841937006      -1.06636095       0.00000000       1045.48010       1.52871597    
  0.963932991     -0.966242015       0.00000000       1045.48010       1.52871597    
  0.960639000     -0.962104976     -0.303470999       1045.48010       1.52871597    
  0.963932991     -0.966242015       0.00000000       1176.51831       1.52881086    
   1.06506598     -0.843514979       0.00000000       1176.51831       1.52881086    
   1.06428695     -0.842682004     -0.303481996       1176.51831       1.52881086    
  0.960639000     -0.962104976     -0.303470999       1176.51831       1.52881086    
   1.06428695     -0.842682004     -0.303481996       995.117310       1.51067221    
   1.15591598     -0.714210987     -0.303485006       995.117310       1.51067221    
   1.15788805     -0.715448976     -0.606999993       995.117310       1.51067221    
   1.06537795     -0.843134999     -0.606999993       995.117310       1.51067221    
   1.06428695     -0.842682004     -0.303481996       908.445068       1.51125419    
   1.06537795     -0.843134999     -0.606999993       908.445068       1.51125419    
  0.964356005     -0.965893984     -0.606999993       908.445068       1.51125419    
  0.960639000     -0.962104976     -0.303470999       908.445068       1.51125419    
   1.06428695     -0.842682004     -0.303481996       1286.87634       1.52863944    
   1.06506598     -0.843514979       0.00000000       1286.87634       1.52863944    
   1.15792501     -0.715381980       0.00000000       1286.87634       1.52863944    
   1.15591598     -0.714210987     -0.303485006       1286.87634       1.52863944    
   1.15792501     -0.715381980       0.00000000       1382.49792       1.52850235    
   1.23237598     -0.576093972       0.00000000       1382.49792       1.52850235    
   1.23120904     -0.575251997     -0.303514004       1382.49792       1.52850235    
   1.15591598     -0.714210987     -0.303485006       1382.49792       1.52850235    
   1.23120904     -0.575251997     -0.303514004       1129.84082       1.51068997    
   1.28844094     -0.428344995     -0.303512990       1129.84082       1.51068997    
   1.28952503     -0.428642988     -0.606999993       1129.84082       1.51068997    
   1.23252702     -0.575810015     -0.606999993       1129.84082       1.51068997    
   1.23120904     -0.575251997     -0.303514004       1069.60803       1.51064014    
   1.23252702     -0.575810015     -0.606999993       1069.60803       1.51064014    
   1.15788805     -0.715448976     -0.606999993       1069.60803       1.51064014    
   1.15591598     -0.714210987     -0.303485006       1069.60803       1.51064014    
   1.23120904     -0.575251997     -0.303514004       1459.57214       1.52815628    
   1.23237598     -0.576093972       0.00000000       1459.57214       1.52815628    
   1.28947699     -0.428801000       0.00000000       1459.57214       1.52815628    
   1.28844094     -0.428344995     -0.303512990       1459.57214       1.52815628    
   1.28947699     -0.428801000       0.00000000       1520.22522       1.52838922    
   1.33532202     -0.277671993       0.00000000       1520.22522       1.52838922    
   1.33076501     -0.276203990     -0.303492010       1520.22522       1.52838922    
   1.28844094     -0.428344995     -0.303512990       1520.22522       1.52838922    
   1.33076501     -0.276203990     -0.303492010       1202.89868       1.51004124    
   1.35229194     -0.119709998     -0.303514004       1202.89868       1.51004124    
   1.35321999     -0.119608998     -0.606999993       1202.89868       1.51004124    
   1.33549094     -0.277112991     -0.606999993       1202.89868       1.51004124    
   1.33076501     -0.276203990     -0.303492010       1173.90051       1.51057601    
   1.33549094     -0.277112991     -0.606999993       1173.90051       1.51057601    
   1.28952503     -0.428642988     -0.606999993       1173.90051       1.51057601    
   1.28844094     -0.428344995     -0.303512990       1173.90051       1.51057601    
   1.33076501     -0.276203990     -0.303492010       1559.33545       1.52876496    
   1.33532202     -0.277671993       0.00000000       1559.33545       1.52876496    
   1.35319102     -0.119900003       0.00000000       1559.33545       1.52876496    
   1.35229194     -0.119709998     -0.303514004       1559.33545       1.52876496    
   1.35319102     -0.119900003       0.00000000       1574.32349       1.52872694    
   1.36124396       3.81390005E-02   0.00000000       1574.32349       1.52872694    
   1.35858905       3.79349999E-02 -0.303501010       1574.32349       1.52872694    
   1.35229194     -0.119709998     -0.303514004       1574.32349       1.52872694    
   1.35858905       3.79349999E-02 -0.303501010       1211.47217       1.51041293    
   1.34464097      0.195331007     -0.303496003       1211.47217       1.51041293    
   1.34573400      0.195616007     -0.606999993       1211.47217       1.51041293    
   1.36126804       3.78950015E-02 -0.606999993       1211.47217       1.51041293    
   1.35858905       3.79349999E-02 -0.303501010       1215.60547       1.51044345    
   1.36126804       3.78950015E-02 -0.606999993       1215.60547       1.51044345    
   1.35321999     -0.119608998     -0.606999993       1215.60547       1.51044345    
   1.35229194     -0.119709998     -0.303514004       1215.60547       1.51044345    
   1.35858905       3.79349999E-02 -0.303501010       1568.63062       1.52822852    
   1.36124396       3.81390005E-02   0.00000000       1568.63062       1.52822852    
   1.34575403      0.195406005       0.00000000       1568.63062       1.52822852    
   1.34464097      0.195331007     -0.303496003       1568.63062       1.52822852    
   1.34575403      0.195406005       0.00000000       1540.69495       1.52819490    
   1.31339800      0.349945009       0.00000000       1540.69495       1.52819490    
   1.31216300      0.349725991     -0.303487003       1540.69495       1.52819490    
   1.34464097      0.195331007     -0.303496003       1540.69495       1.52819490    
   1.31216300      0.349725991     -0.303487003       1153.66565       1.51063919    
   1.26341999      0.500032008     -0.303494006       1153.66565       1.51063919    
   1.26736605      0.501691997     -0.606999993       1153.66565       1.51063919    
   1.31333196      0.350163996     -0.606999993       1153.66565       1.51063919    
   1.31216300      0.349725991     -0.303487003       1190.86597       1.51045239    
   1.31333196      0.350163996     -0.606999993       1190.86597       1.51045239    
   1.34573400      0.195616007     -0.606999993       1190.86597       1.51045239    
   1.34464097      0.195331007     -0.303496003       1190.86597       1.51045239    
   1.31216300      0.349725991     -0.303487003       1492.59094       1.52812159    
   1.31339800      0.349945009       0.00000000       1492.59094       1.52812159    
   1.26751196      0.501209974       0.00000000       1492.59094       1.52812159    
   1.26341999      0.500032008     -0.303494006       1492.59094       1.52812159    
   1.26751196      0.501209974       0.00000000       1426.26318       1.52867639    
   1.19658697      0.643051028       0.00000000       1426.26318       1.52867639    
   1.19583094      0.642783999     -0.303505003       1426.26318       1.52867639    
   1.26341999      0.500032008     -0.303494006       1426.26318       1.52867639    
   1.19583094      0.642783999     -0.303505003       1035.46704       1.51016521    
   1.11495602      0.778467000     -0.303483993       1035.46704       1.51016521    
   1.11731696      0.779847026     -0.606999993       1035.46704       1.51016521    
   1.19653296      0.643149972     -0.606999993       1035.46704       1.51016521    
   1.19583094      0.642783999     -0.303505003       1100.82874       1.51061821    
   1.19653296      0.643149972     -0.606999993       1100.82874       1.51061821    
   1.26736605      0.501691997     -0.606999993       1100.82874       1.51061821    
   1.26341999      0.500032008     -0.303494006       1100.82874       1.51061821    
   1.19583094      0.642783999     -0.303505003       1342.04700       1.52896237    
   1.19658697      0.643051028       0.00000000       1342.04700       1.52896237    
   1.11705506      0.780165970       0.00000000       1342.04700       1.52896237    
   1.11495602      0.778467000     -0.303483993       1342.04700       1.52896237    
   1.11705506      0.780165970       0.00000000       1236.17542       1.52902043    
   1.01674199      0.902397990       0.00000000       1236.17542       1.52902043    
   1.01591504      0.901737988     -0.303478003       1236.17542       1.52902043    
   1.11495602      0.778467000     -0.303483993       1236.17542       1.52902043    
   1.01591504      0.901737988     -0.303478003       860.304077       1.51086164    
  0.904204011       1.01322901     -0.303456992       860.304077       1.51086164    
  0.905143023       1.01448905     -0.606999993       860.304077       1.51086164    
   1.01659799      0.902572989     -0.606999993       860.304077       1.51086164    
   1.01591504      0.901737988     -0.303478003       953.315369       1.51065135    
   1.01659799      0.902572989     -0.606999993       953.315369       1.51065135    
   1.11731696      0.779847026     -0.606999993       953.315369       1.51065135    
   1.11495602      0.778467000     -0.303483993       953.315369       1.51065135    
   1.01591504      0.901737988     -0.303478003       1114.15039       1.52922273    
   1.01674199      0.902397990       0.00000000       1114.15039       1.52922273    
  0.905318975       1.01434398       0.00000000       1114.15039       1.52922273    
  0.904204011       1.01322901     -0.303456992       1114.15039       1.52922273    
  0.905318975       1.01434398       0.00000000       978.409119       1.52869117    
  0.782918990       1.11479497       0.00000000       978.409119       1.52869117    
  0.780644000       1.11195600     -0.303485006       978.409119       1.52869117    
  0.904204011       1.01322901     -0.303456992       978.409119       1.52869117    
  0.780644000       1.11195600     -0.303485006       638.262390       1.51087749    
  0.645825028       1.19414902     -0.303514004       638.262390       1.51087749    
  0.646153986       1.19492805     -0.606999993       638.262390       1.51087749    
  0.782611012       1.11504900     -0.606999993       638.262390       1.51087749    
  0.780644000       1.11195600     -0.303485006       755.425903       1.51098919    
  0.782611012       1.11504900     -0.606999993       755.425903       1.51098919    
  0.905143023       1.01448905     -0.606999993       755.425903       1.51098919    
  0.904204011       1.01322901     -0.303456992       755.425903       1.51098919    
  0.780644000       1.11195600     -0.303485006       826.989136       1.52852511    
  0.782918990       1.11479497       0.00000000       826.989136       1.52852511    
  0.646345019       1.19482601       0.00000000       826.989136       1.52852511    
  0.645825028       1.19414902     -0.303514004       826.989136       1.52852511    
  0.646345019       1.19482601       0.00000000       668.477844       1.52997947    
  0.504974008       1.26637006       0.00000000       668.477844       1.52997947    
  0.503772974       1.26314998     -0.303521991       668.477844       1.52997947    
  0.645825028       1.19414902     -0.303514004       668.477844       1.52997947    
  0.503772974       1.26314998     -0.303521991       381.680634       1.51085031    
  0.353130996       1.31116498     -0.303510994       381.680634       1.51085031    
  0.353300005       1.31237996     -0.606999993       381.680634       1.51085031    
  0.505183995       1.26630700     -0.606999993       381.680634       1.51085031    
  0.503772974       1.26314998     -0.303521991       516.421265       1.51146352    
  0.505183995       1.26630700     -0.606999993       516.421265       1.51146352    
  0.646153986       1.19492805     -0.606999993       516.421265       1.51146352    
  0.645825028       1.19414902     -0.303514004       516.421265       1.51146352    
  0.503772974       1.26314998     -0.303521991       495.467346       1.53008115    
  0.504974008       1.26637006       0.00000000       495.467346       1.53008115    
  0.353493989       1.31232095       0.00000000       495.467346       1.53008115    
  0.353130996       1.31116498     -0.303510994       495.467346       1.53008115    
  0.353493989       1.31232095       0.00000000       319.727905       1.53162336    
  0.199064001       1.34539402       0.00000000       319.727905       1.53162336    
  0.198755994       1.34360003     -0.303496003       319.727905       1.53162336    
  0.353130996       1.31116498     -0.303510994       319.727905       1.53162336    
  0.198755994       1.34360003     -0.303496003       108.204124       1.52135956    
   4.12769988E-02   1.35817802     -0.303508013       108.204124       1.52135956    
   4.12410013E-02   1.36093795     -0.606999993       108.204124       1.52135956    
  0.199025005       1.34539795     -0.606999993       108.204124       1.52135956    
  0.198755994       1.34360003     -0.303496003       246.795776       1.51191652    
  0.199025005       1.34539795     -0.606999993       246.795776       1.51191652    
  0.353300005       1.31237996     -0.606999993       246.795776       1.51191652    
  0.353130996       1.31116498     -0.303510994       246.795776       1.51191652    
  0.198755994       1.34360003     -0.303496003       139.358047       1.53661466    
  0.199064001       1.34539402       0.00000000       139.358047       1.53661466    
   4.17769998E-02   1.36088502       0.00000000       139.358047       1.53661466    
   4.12769988E-02   1.35817802     -0.303508013       139.358047       1.53661466    
   4.17769998E-02   1.36088502       0.00000000       44.1277504      -1.63852763    
 -0.116410002       1.35353506       0.00000000       44.1277504      -1.63852763    
 -0.116471998       1.35271096     -0.303496987       44.1277504      -1.63852763    
   4.12769988E-02   1.35817802     -0.303508013       44.1277504      -1.63852763    
 -0.116471998       1.35271096     -0.303496987       171.825867      -1.64150083    
 -0.273027003       1.33229196     -0.303496003       171.825867      -1.64150083    
 -0.273876995       1.33647299     -0.606999993       171.825867      -1.64150083    
 -0.116722003       1.35350394     -0.606999993       171.825867      -1.64150083    
 -0.116471998       1.35271096     -0.303496987       34.2894936      -1.66242015    
 -0.116722003       1.35350394     -0.606999993       34.2894936      -1.66242015    
   4.12410013E-02   1.36093795     -0.606999993       34.2894936      -1.66242015    
   4.12769988E-02   1.35817802     -0.303508013       34.2894936      -1.66242015    
 -0.116471998       1.35271096     -0.303496987       224.235825      -1.61950839    
 -0.116410002       1.35353506       0.00000000       224.235825      -1.61950839    
 -0.274069011       1.33641505       0.00000000       224.235825      -1.61950839    
 -0.273027003       1.33229196     -0.303496003       224.235825      -1.61950839    
 -0.274069011       1.33641505       0.00000000       406.590851      -1.61605728    
 -0.425588995       1.29045200       0.00000000       406.590851      -1.61605728    
 -0.425258011       1.28953803     -0.303507000       406.590851      -1.61605728    
 -0.273027003       1.33229196     -0.303496003       406.590851      -1.61605728    
 -0.425258011       1.28953803     -0.303507000       446.413940      -1.63468790    
 -0.572302997       1.23206902     -0.303485990       446.413940      -1.63468790    
 -0.573064029       1.23399496     -0.606999993       446.413940      -1.63468790    
 -0.425651014       1.29043305     -0.606999993       446.413940      -1.63468790    
 -0.425258011       1.28953803     -0.303507000       314.010986      -1.63554263    
 -0.425651014       1.29043305     -0.606999993       314.010986      -1.63554263    
 -0.273876995       1.33647299     -0.606999993       314.010986      -1.63554263    
 -0.273027003       1.33229196     -0.303496003       314.010986      -1.63554263    
 -0.425258011       1.28953803     -0.303507000       579.023193      -1.61545062    
 -0.425588995       1.29045200       0.00000000       579.023193      -1.61545062    
 -0.573195994       1.23392498       0.00000000       579.023193      -1.61545062    
 -0.572302997       1.23206902     -0.303485990       579.023193      -1.61545062    
 -0.573195994       1.23392498       0.00000000       746.423157      -1.61486363    
 -0.712655008       1.15938199       0.00000000       746.423157      -1.61486363    
 -0.711889029       1.15749002     -0.303496003       746.423157      -1.61486363    
 -0.572302997       1.23206902     -0.303485990       746.423157      -1.61486363    
 -0.711889029       1.15749002     -0.303496003       696.493530      -1.63304627    
 -0.840825975       1.06629205     -0.303485990       696.493530      -1.63304627    
 -0.841368973       1.06682706     -0.606999993       696.493530      -1.63304627    
 -0.712980986       1.15920806     -0.606999993       696.493530      -1.63304627    
 -0.711889029       1.15749002     -0.303496003       575.000549      -1.63366294    
 -0.712980986       1.15920806     -0.606999993       575.000549      -1.63366294    
 -0.573064029       1.23399496     -0.606999993       575.000549      -1.63366294    
 -0.572302997       1.23206902     -0.303485990       575.000549      -1.63366294    
 -0.711889029       1.15749002     -0.303496003       902.964783      -1.61443305    
 -0.712655008       1.15938199       0.00000000       902.964783      -1.61443305    
 -0.841165006       1.06699395       0.00000000       902.964783      -1.61443305    
 -0.840825975       1.06629205     -0.303485990       902.964783      -1.61443305    
 -0.841165006       1.06699395       0.00000000       1045.61499      -1.61443949    
 -0.963320017      0.966744006       0.00000000       1045.61499      -1.61443949    
 -0.960084975      0.962615013     -0.303470999       1045.61499      -1.61443949    
 -0.840825975       1.06629205     -0.303485990       1045.61499      -1.61443949    
 -0.960084975      0.962615013     -0.303470999       908.585205      -1.63254094    
  -1.06383705      0.843237996     -0.303481996       908.585205      -1.63254094    
  -1.06481802      0.843816996     -0.606999993       908.585205      -1.63254094    
 -0.963873982      0.966289997     -0.606999993       908.585205      -1.63254094    
 -0.960084975      0.962615013     -0.303470999       805.705139      -1.63309932    
 -0.963873982      0.966289997     -0.606999993       805.705139      -1.63309932    
 -0.841368973       1.06682706     -0.606999993       805.705139      -1.63309932    
 -0.840825975       1.06629205     -0.303485990       805.705139      -1.63309932    
 -0.960084975      0.962615013     -0.303470999       1177.34656      -1.61424816    
 -0.963320017      0.966744006       0.00000000       1177.34656      -1.61424816    
  -1.06464398      0.844029009       0.00000000       1177.34656      -1.61424816    
  -1.06383705      0.843237996     -0.303481996       1177.34656      -1.61424816    
  -1.06464398      0.844029009       0.00000000       1288.37488      -1.61433446    
  -1.15769398      0.715813994       0.00000000       1288.37488      -1.61433446    
  -1.15564799      0.714680016     -0.303483993       1288.37488      -1.61433446    
  -1.06383705      0.843237996     -0.303481996       1288.37488      -1.61433446    
  -1.15564799      0.714680016     -0.303483993       1069.36511      -1.63256001    
  -1.23108304      0.575536013     -0.303514004       1069.36511      -1.63256001    
  -1.23232996      0.576179981     -0.606999993       1069.36511      -1.63256001    
  -1.15756094      0.716063023     -0.606999993       1069.36511      -1.63256001    
  -1.15564799      0.714680016     -0.303483993       994.680481      -1.63256311    
  -1.15756094      0.716063023     -0.606999993       994.680481      -1.63256311    
  -1.06481802      0.843816996     -0.606999993       994.680481      -1.63256311    
  -1.06383705      0.843237996     -0.303481996       994.680481      -1.63256311    
  -1.15564799      0.714680016     -0.303483993       1385.23840      -1.61438262    
  -1.15769398      0.715813994       0.00000000       1385.23840      -1.61438262    
  -1.23224795      0.576331973       0.00000000       1385.23840      -1.61438262    
  -1.23108304      0.575536013     -0.303514004       1385.23840      -1.61438262    
  -1.23224795      0.576331973       0.00000000       1461.24646      -1.61443114    
  -1.28948605      0.428772002       0.00000000       1461.24646      -1.61443114    
  -1.28842103      0.428404987     -0.303512990       1461.24646      -1.61443114    
  -1.23108304      0.575536013     -0.303514004       1461.24646      -1.61443114    
  -1.28842103      0.428404987     -0.303512990       1171.69629      -1.63209891    
  -1.33082402      0.275959998     -0.303492010       1171.69629      -1.63209891    
  -1.33550000      0.277083993     -0.606999993       1171.69629      -1.63209891    