 VARIABLES="X" "Y" "Z" "abs(p) (Pa)" "angle(p) (rad)"
ZONE N=   2720,E =    2069, F=FEPOINT, ET=QUADRILATERAL
 -0.767116010      -1.12776399       0.00000000       694.844177      -1.57275307    
 -0.769354999      -1.12002099     -0.303523988       694.844177      -1.57275307    
 -0.896136999      -1.02028203     -0.303463012       694.844177      -1.57275307    
 -0.894908011      -1.02288902       0.00000000       694.844177      -1.57275307    
 -0.767116010      -1.12776399       0.00000000       752.013367      -1.57262063    
 -0.630888999      -1.20308697       0.00000000       752.013367      -1.57262063    
 -0.635528028      -1.19958198     -0.303541005       752.013367      -1.57262063    
 -0.769354999      -1.12002099     -0.303523988       752.013367      -1.57262063    
 -0.635528028      -1.19958198     -0.303541005       724.369751      -1.57273519    
 -0.495362997      -1.26606500     -0.303519011       724.369751      -1.57273519    
 -0.499298006      -1.26809204     -0.606999993       724.369751      -1.57273519    
 -0.640147984      -1.19813800     -0.606998026       724.369751      -1.57273519    
 -0.635528028      -1.19958198     -0.303541005       680.074341      -1.57284462    
 -0.640147984      -1.19813800     -0.606998026       680.074341      -1.57284462    
 -0.777105987      -1.11956596     -0.606999993       680.074341      -1.57284462    
 -0.769354999      -1.12002099     -0.303523988       680.074341      -1.57284462    
 -0.635528028      -1.19958198     -0.303541005       794.273254      -1.57253587    
 -0.630888999      -1.20308697       0.00000000       794.273254      -1.57253587    
 -0.494486004      -1.26955199       0.00000000       794.273254      -1.57253587    
 -0.495362997      -1.26606500     -0.303519011       794.273254      -1.57253587    
 -0.494486004      -1.26955199       0.00000000       830.424561      -1.57246912    
 -0.346311986      -1.31449997       0.00000000       830.424561      -1.57246912    
 -0.346753001      -1.31307304     -0.303510010       830.424561      -1.57246912    
 -0.495362997      -1.26606500     -0.303519011       830.424561      -1.57246912    
 -0.346753001      -1.31307304     -0.303510010       782.968262      -1.57260787    
 -0.193608001      -1.34425998     -0.303494990       782.968262      -1.57260787    
 -0.195028007      -1.34579206     -0.606999993       782.968262      -1.57260787    
 -0.348751009      -1.31376004     -0.606999993       782.968262      -1.57260787    
 -0.346753001      -1.31307304     -0.303510010       757.987366      -1.57265985    
 -0.348751009      -1.31376004     -0.606999993       757.987366      -1.57265985    
 -0.499298006      -1.26809204     -0.606999993       757.987366      -1.57265985    
 -0.495362997      -1.26606500     -0.303519011       757.987366      -1.57265985    
 -0.346753001      -1.31307304     -0.303510010       857.484375      -1.57242191    
 -0.346311986      -1.31449997       0.00000000       857.484375      -1.57242191    
 -0.193381995      -1.34595394       0.00000000       857.484375      -1.57242191    
 -0.193608001      -1.34425998     -0.303494990       857.484375      -1.57242191    
 -0.193381995      -1.34595394       0.00000000       878.184753      -1.57238674    
  -3.75179984E-02  -1.36130500       0.00000000       878.184753      -1.57238674    
  -3.73950005E-02  -1.35827899     -0.303512007       878.184753      -1.57238674    
 -0.193608001      -1.34425998     -0.303494990       878.184753      -1.57238674    
  -3.73950005E-02  -1.35827899     -0.303512007       799.426941      -1.57257462    
  0.119547002      -1.35239303     -0.303498000       799.426941      -1.57257462    
  0.119135000      -1.35326600     -0.606999993       799.426941      -1.57257462    
  -3.82840000E-02  -1.36122894     -0.606998980       799.426941      -1.57257462    
  -3.73950005E-02  -1.35827899     -0.303512007       797.300476      -1.57257843    
  -3.82840000E-02  -1.36122894     -0.606998980       797.300476      -1.57257843    
 -0.195028007      -1.34579206     -0.606999993       797.300476      -1.57257843    
 -0.193608001      -1.34425998     -0.303494990       797.300476      -1.57257843    
  -3.73950005E-02  -1.35827899     -0.303512007       882.301331      -1.57237899    
  -3.75179984E-02  -1.36130500       0.00000000       882.301331      -1.57237899    
  0.119788997      -1.35320199       0.00000000       882.301331      -1.57237899    
  0.119547002      -1.35239303     -0.303498000       882.301331      -1.57237899    
  0.119788997      -1.35320199       0.00000000       874.787903      -1.57238996    
  0.276576012      -1.33565402       0.00000000       874.787903      -1.57238996    
  0.275435001      -1.33191597     -0.303496003       874.787903      -1.57238996    
  0.119547002      -1.35239303     -0.303498000       874.787903      -1.57238996    
  0.275435001      -1.33191597     -0.303496003       789.018982      -1.57258785    
  0.427076995      -1.28898001     -0.303507000       789.018982      -1.57258785    
  0.427242011      -1.28995001     -0.606999993       789.018982      -1.57258785    
  0.275831014      -1.33588004     -0.606999993       789.018982      -1.57258785    
  0.275435001      -1.33191597     -0.303496003       805.880127      -1.57255709    
  0.275831014      -1.33588004     -0.606999993       805.880127      -1.57255709    
  0.119135000      -1.35326600     -0.606999993       805.880127      -1.57255709    
  0.119547002      -1.35239303     -0.303498000       805.880127      -1.57255709    
  0.275435001      -1.33191597     -0.303496003       856.160645      -1.57241857    
  0.276576012      -1.33565402       0.00000000       856.160645      -1.57241857    
  0.427509993      -1.28986895       0.00000000       856.160645      -1.57241857    
  0.427076995      -1.28898001     -0.303507000       856.160645      -1.57241857    
  0.427509993      -1.28986895       0.00000000       825.843384      -1.57246804    
  0.574636996      -1.23315501       0.00000000       825.843384      -1.57246804    
  0.573706985      -1.23136795     -0.303485990       825.843384      -1.57246804    
  0.427076995      -1.28898001     -0.303507000       825.843384      -1.57246804    
  0.573706985      -1.23136795     -0.303485990       722.649536      -1.57272243    
  0.712854981      -1.15688002     -0.303496987       722.649536      -1.57272243    
  0.713809013      -1.15876603     -0.606999993       722.649536      -1.57272243    
  0.574283004      -1.23334301     -0.606999993       722.649536      -1.57272243    
  0.573706985      -1.23136795     -0.303485990       761.830566      -1.57263923    
  0.574283004      -1.23334301     -0.606999993       761.830566      -1.57263923    
  0.427242011      -1.28995001     -0.606999993       761.830566      -1.57263923    
  0.427076995      -1.28898001     -0.303507000       761.830566      -1.57263923    
  0.573706985      -1.23136795     -0.303485990       783.194702      -1.57254541    
  0.574636996      -1.23315501       0.00000000       783.194702      -1.57254541    
  0.713741004      -1.15880203       0.00000000       783.194702      -1.57254541    
  0.712854981      -1.15688002     -0.303496987       783.194702      -1.57254541    
  0.713741004      -1.15880203       0.00000000       732.196960      -1.57265031    
  0.841937006      -1.06636095       0.00000000       732.196960      -1.57265031    
  0.841498017      -1.06573403     -0.303485990       732.196960      -1.57265031    
  0.712854981      -1.15688002     -0.303496987       732.196960      -1.57265031    
  0.841498017      -1.06573403     -0.303485990       617.671631      -1.57299972    
  0.960639000     -0.962104976     -0.303470999       617.671631      -1.57299972    
  0.964356005     -0.965893984     -0.606999993       617.671631      -1.57299972    
  0.841796994      -1.06647599     -0.606999993       617.671631      -1.57299972    
  0.841498017      -1.06573403     -0.303485990       675.296936      -1.57283759    
  0.841796994      -1.06647599     -0.606999993       675.296936      -1.57283759    
  0.713809013      -1.15876603     -0.606999993       675.296936      -1.57283759    
  0.712854981      -1.15688002     -0.303496987       675.296936      -1.57283759    
  0.841498017      -1.06573403     -0.303485990       677.975464      -1.57277822    
  0.841937006      -1.06636095       0.00000000       677.975464      -1.57277822    
  0.963932991     -0.966242015       0.00000000       677.975464      -1.57277822    
  0.960639000     -0.962104976     -0.303470999       677.975464      -1.57277822    
  0.963932991     -0.966242015       0.00000000       609.478821      -1.57297456    
   1.06506598     -0.843514979       0.00000000       609.478821      -1.57297456    
   1.06428695     -0.842682004     -0.303481996       609.478821      -1.57297456    
  0.960639000     -0.962104976     -0.303470999       609.478821      -1.57297456    
   1.06428695     -0.842682004     -0.303481996       501.877167      -1.57343268    
   1.15591598     -0.714210987     -0.303485006       501.877167      -1.57343268    
   1.15788805     -0.715448976     -0.606999993       501.877167      -1.57343268    
   1.06537795     -0.843134999     -0.606999993       501.877167      -1.57343268    
   1.06428695     -0.842682004     -0.303481996       554.449524      -1.57321835    
   1.06537795     -0.843134999     -0.606999993       554.449524      -1.57321835    
  0.964356005     -0.965893984     -0.606999993       554.449524      -1.57321835    
  0.960639000     -0.962104976     -0.303470999       554.449524      -1.57321835    
   1.06428695     -0.842682004     -0.303481996       529.545166      -1.57326686    
   1.06506598     -0.843514979       0.00000000       529.545166      -1.57326686    
   1.15792501     -0.715381980       0.00000000       529.545166      -1.57326686    
   1.15591598     -0.714210987     -0.303485006       529.545166      -1.57326686    
   1.15792501     -0.715381980       0.00000000       443.561920      -1.57370222    
   1.23237598     -0.576093972       0.00000000       443.561920      -1.57370222    
   1.23120904     -0.575251997     -0.303514004       443.561920      -1.57370222    
   1.15591598     -0.714210987     -0.303485006       443.561920      -1.57370222    
   1.23120904     -0.575251997     -0.303514004       338.924652      -1.57456326    
   1.28844094     -0.428344995     -0.303512990       338.924652      -1.57456326    
   1.28952503     -0.428642988     -0.606999993       338.924652      -1.57456326    
   1.23252702     -0.575810015     -0.606999993       338.924652      -1.57456326    
   1.23120904     -0.575251997     -0.303514004       422.983704      -1.57387161    
   1.23252702     -0.575810015     -0.606999993       422.983704      -1.57387161    
   1.15788805     -0.715448976     -0.606999993       422.983704      -1.57387161    
   1.15591598     -0.714210987     -0.303485006       422.983704      -1.57387161    
   1.23120904     -0.575251997     -0.303514004       373.588837      -1.57419550    
   1.23237598     -0.576093972       0.00000000       373.588837      -1.57419550    
   1.28947699     -0.428801000       0.00000000       373.588837      -1.57419550    
   1.28844094     -0.428344995     -0.303512990       373.588837      -1.57419550    
   1.28947699     -0.428801000       0.00000000       266.893127      -1.57546556    
   1.33532202     -0.277671993       0.00000000       266.893127      -1.57546556    
   1.33076501     -0.276203990     -0.303492010       266.893127      -1.57546556    
   1.28844094     -0.428344995     -0.303512990       266.893127      -1.57546556    
   1.33076501     -0.276203990     -0.303492010       169.143845      -1.57805026    
   1.35229194     -0.119709998     -0.303514004       169.143845      -1.57805026    
   1.35321999     -0.119608998     -0.606999993       169.143845      -1.57805026    
   1.33549094     -0.277112991     -0.606999993       169.143845      -1.57805026    
   1.33076501     -0.276203990     -0.303492010       251.493134      -1.57577348    
   1.33549094     -0.277112991     -0.606999993       251.493134      -1.57577348    
   1.28952503     -0.428642988     -0.606999993       251.493134      -1.57577348    
   1.28844094     -0.428344995     -0.303512990       251.493134      -1.57577348    
   1.33076501     -0.276203990     -0.303492010       148.249298      -1.57904243    
   1.33532202     -0.277671993       0.00000000       148.249298      -1.57904243    
   1.35319102     -0.119900003       0.00000000       148.249298      -1.57904243    
   1.35229194     -0.119709998     -0.303514004       148.249298      -1.57904243    
   1.35319102     -0.119900003       0.00000000       45.3485451      -1.59724021    
   1.36124396       3.81390005E-02   0.00000000       45.3485451      -1.59724021    
   1.35858905       3.79349999E-02 -0.303501010       45.3485451      -1.59724021    
   1.35229194     -0.119709998     -0.303514004       45.3485451      -1.59724021    
   1.35858905       3.79349999E-02 -0.303501010       35.8412094       1.60354006    
   1.34464097      0.195331007     -0.303496003       35.8412094       1.60354006    
   1.34573400      0.195616007     -0.606999993       35.8412094       1.60354006    
   1.36126804       3.78950015E-02 -0.606999993       35.8412094       1.60354006    
   1.35858905       3.79349999E-02 -0.303501010       54.3562622      -1.59284520    
   1.36126804       3.78950015E-02 -0.606999993       54.3562622      -1.59284520    
   1.35321999     -0.119608998     -0.606999993       54.3562622      -1.59284520    
   1.35229194     -0.119709998     -0.303514004       54.3562622      -1.59284520    
   1.35858905       3.79349999E-02 -0.303501010       48.2386055       1.59519601    
   1.36124396       3.81390005E-02   0.00000000       48.2386055       1.59519601    
   1.34575403      0.195406005       0.00000000       48.2386055       1.59519601    
   1.34464097      0.195331007     -0.303496003       48.2386055       1.59519601    
   1.34575403      0.195406005       0.00000000       148.994354       1.57854044    
   1.31339800      0.349945009       0.00000000       148.994354       1.57854044    
   1.31216300      0.349725991     -0.303487003       148.994354       1.57854044    
   1.34464097      0.195331007     -0.303496003       148.994354       1.57854044    
   1.31216300      0.349725991     -0.303487003       225.614731       1.57576883    
   1.26341999      0.500032008     -0.303494006       225.614731       1.57576883    
   1.26736605      0.501691997     -0.606999993       225.614731       1.57576883    
   1.31333196      0.350163996     -0.606999993       225.614731       1.57576883    
   1.31216300      0.349725991     -0.303487003       127.287918       1.57981515    
   1.31333196      0.350163996     -0.606999993       127.287918       1.57981515    
   1.34573400      0.195616007     -0.606999993       127.287918       1.57981515    
   1.34464097      0.195331007     -0.303496003       127.287918       1.57981515    
   1.31216300      0.349725991     -0.303487003       247.976410       1.57535994    
   1.31339800      0.349945009       0.00000000       247.976410       1.57535994    
   1.26751196      0.501209974       0.00000000       247.976410       1.57535994    
   1.26341999      0.500032008     -0.303494006       247.976410       1.57535994    
   1.26751196      0.501209974       0.00000000       348.569427       1.57398403    
   1.19658697      0.643051028       0.00000000       348.569427       1.57398403    
   1.19583094      0.642783999     -0.303505003       348.569427       1.57398403    
   1.26341999      0.500032008     -0.303494006       348.569427       1.57398403    
   1.19583094      0.642783999     -0.303505003       398.231537       1.57349563    
   1.11495602      0.778467000     -0.303483993       398.231537       1.57349563    
   1.11731696      0.779847026     -0.606999993       398.231537       1.57349563    
   1.19653296      0.643149972     -0.606999993       398.231537       1.57349563    
   1.19583094      0.642783999     -0.303505003       310.506897       1.57433188    
   1.19653296      0.643149972     -0.606999993       310.506897       1.57433188    
   1.26736605      0.501691997     -0.606999993       310.506897       1.57433188    
   1.26341999      0.500032008     -0.303494006       310.506897       1.57433188    
   1.19583094      0.642783999     -0.303505003       439.519928       1.57327819    
   1.19658697      0.643051028       0.00000000       439.519928       1.57327819    
   1.11705506      0.780165970       0.00000000       439.519928       1.57327819    
   1.11495602      0.778467000     -0.303483993       439.519928       1.57327819    
   1.11705506      0.780165970       0.00000000       521.126404       1.57285476    
   1.01674199      0.902397990       0.00000000       521.126404       1.57285476    
   1.01591504      0.901737988     -0.303478003       521.126404       1.57285476    
   1.11495602      0.778467000     -0.303483993       521.126404       1.57285476    
   1.01591504      0.901737988     -0.303478003       548.242920       1.57268524    
  0.904204011       1.01322901     -0.303456992       548.242920       1.57268524    
  0.905143023       1.01448905     -0.606999993       548.242920       1.57268524    
   1.01659799      0.902572989     -0.606999993       548.242920       1.57268524    
   1.01591504      0.901737988     -0.303478003       478.924591       1.57299793    
   1.01659799      0.902572989     -0.606999993       478.924591       1.57299793    
   1.11731696      0.779847026     -0.606999993       478.924591       1.57299793    
   1.11495602      0.778467000     -0.303483993       478.924591       1.57299793    
   1.01591504      0.901737988     -0.303478003       597.059082       1.57256544    
   1.01674199      0.902397990       0.00000000       597.059082       1.57256544    
  0.905318975       1.01434398       0.00000000       597.059082       1.57256544    
  0.904204011       1.01322901     -0.303456992       597.059082       1.57256544    
  0.905318975       1.01434398       0.00000000       669.179565       1.57235134    
  0.782918990       1.11479497       0.00000000       669.179565       1.57235134    
  0.780644000       1.11195600     -0.303485006       669.179565       1.57235134    
  0.904204011       1.01322901     -0.303456992       669.179565       1.57235134    
  0.780644000       1.11195600     -0.303485006       660.569458       1.57231760    
  0.645825028       1.19414902     -0.303514004       660.569458       1.57231760    
  0.646153986       1.19492805     -0.606999993       660.569458       1.57231760    
  0.782611012       1.11504900     -0.606999993       660.569458       1.57231760    
  0.780644000       1.11195600     -0.303485006       608.930237       1.57247019    
  0.782611012       1.11504900     -0.606999993       608.930237       1.57247019    
  0.905143023       1.01448905     -0.606999993       608.930237       1.57247019    
  0.904204011       1.01322901     -0.303456992       608.930237       1.57247019    
  0.780644000       1.11195600     -0.303485006       725.478943       1.57221413    
  0.782918990       1.11479497       0.00000000       725.478943       1.57221413    
  0.646345019       1.19482601       0.00000000       725.478943       1.57221413    
  0.645825028       1.19414902     -0.303514004       725.478943       1.57221413    
  0.646345019       1.19482601       0.00000000       768.082520       1.57212210    
  0.504974008       1.26637006       0.00000000       768.082520       1.57212210    
  0.503772974       1.26314998     -0.303521991       768.082520       1.57212210    
  0.645825028       1.19414902     -0.303514004       768.082520       1.57212210    
  0.503772974       1.26314998     -0.303521991       739.110291       1.57212853    
  0.353130996       1.31116498     -0.303510994       739.110291       1.57212853    
  0.353300005       1.31237996     -0.606999993       739.110291       1.57212853    
  0.505183995       1.26630700     -0.606999993       739.110291       1.57212853    
  0.503772974       1.26314998     -0.303521991       704.947693       1.57220435    
  0.505183995       1.26630700     -0.606999993       704.947693       1.57220435    
  0.646153986       1.19492805     -0.606999993       704.947693       1.57220435    
  0.645825028       1.19414902     -0.303514004       704.947693       1.57220435    
  0.503772974       1.26314998     -0.303521991       803.832520       1.57205439    
  0.504974008       1.26637006       0.00000000       803.832520       1.57205439    
  0.353493989       1.31232095       0.00000000       803.832520       1.57205439    
  0.353130996       1.31116498     -0.303510994       803.832520       1.57205439    
  0.353493989       1.31232095       0.00000000       830.168762       1.57200778    
  0.199064001       1.34539402       0.00000000       830.168762       1.57200778    
  0.198755994       1.34360003     -0.303496003       830.168762       1.57200778    
  0.353130996       1.31116498     -0.303510994       830.168762       1.57200778    
  0.198755994       1.34360003     -0.303496003       770.522949       1.57206345    
   4.12769988E-02   1.35817802     -0.303508013       770.522949       1.57206345    
   4.12410013E-02   1.36093795     -0.606999993       770.522949       1.57206345    
  0.199025005       1.34539795     -0.606999993       770.522949       1.57206345    
  0.198755994       1.34360003     -0.303496003       763.094849       1.57207882    
  0.199025005       1.34539795     -0.606999993       763.094849       1.57207882    
  0.353300005       1.31237996     -0.606999993       763.094849       1.57207882    
  0.353130996       1.31116498     -0.303510994       763.094849       1.57207882    
  0.198755994       1.34360003     -0.303496003       844.843140       1.57198381    
  0.199064001       1.34539402       0.00000000       844.843140       1.57198381    
   4.17769998E-02   1.36088502       0.00000000       844.843140       1.57198381    
   4.12769988E-02   1.35817802     -0.303508013       844.843140       1.57198381    
   4.17769998E-02   1.36088502       0.00000000       851.738037       1.57197452    
 -0.116410002       1.35353506       0.00000000       851.738037       1.57197452    
 -0.116471998       1.35271096     -0.303496987       851.738037       1.57197452    
   4.12769988E-02   1.35817802     -0.303508013       851.738037       1.57197452    
 -0.116471998       1.35271096     -0.303496987       776.145813       1.57205653    
 -0.273027003       1.33229196     -0.303496003       776.145813       1.57205653    
 -0.273876995       1.33647299     -0.606999993       776.145813       1.57205653    
 -0.116722003       1.35350394     -0.606999993       776.145813       1.57205653    
 -0.116471998       1.35271096     -0.303496987       773.664917       1.57205868    
 -0.116722003       1.35350394     -0.606999993       773.664917       1.57205868    
   4.12410013E-02   1.36093795     -0.606999993       773.664917       1.57205868    
   4.12769988E-02   1.35817802     -0.303508013       773.664917       1.57205868    
 -0.116471998       1.35271096     -0.303496987       843.447266       1.57198870    
 -0.116410002       1.35353506       0.00000000       843.447266       1.57198870    
 -0.274069011       1.33641505       0.00000000       843.447266       1.57198870    
 -0.273027003       1.33229196     -0.303496003       843.447266       1.57198870    
 -0.274069011       1.33641505       0.00000000       824.671448       1.57202268    
 -0.425588995       1.29045200       0.00000000       824.671448       1.57202268    
 -0.425258011       1.28953803     -0.303507000       824.671448       1.57202268    
 -0.273027003       1.33229196     -0.303496003       824.671448       1.57202268    
 -0.425258011       1.28953803     -0.303507000       733.143921       1.57215118    
 -0.572302997       1.23206902     -0.303485990       733.143921       1.57215118    
 -0.573064029       1.23399496     -0.606999993       733.143921       1.57215118    
 -0.425651014       1.29043305     -0.606999993       733.143921       1.57215118    
 -0.425258011       1.28953803     -0.303507000       759.514648       1.57209182    
 -0.425651014       1.29043305     -0.606999993       759.514648       1.57209182    
 -0.273876995       1.33647299     -0.606999993       759.514648       1.57209182    
 -0.273027003       1.33229196     -0.303496003       759.514648       1.57209182    
 -0.425258011       1.28953803     -0.303507000       793.812744       1.57208049    
 -0.425588995       1.29045200       0.00000000       793.812744       1.57208049    
 -0.573195994       1.23392498       0.00000000       793.812744       1.57208049    
 -0.572302997       1.23206902     -0.303485990       793.812744       1.57208049    
 -0.573195994       1.23392498       0.00000000       751.604065       1.57216704    
 -0.712655008       1.15938199       0.00000000       751.604065       1.57216704    
 -0.711889029       1.15749002     -0.303496003       751.604065       1.57216704    
 -0.572302997       1.23206902     -0.303485990       751.604065       1.57216704    
 -0.711889029       1.15749002     -0.303496003       650.716125       1.57236290    
 -0.840825975       1.06629205     -0.303485990       650.716125       1.57236290    
 -0.841368973       1.06682706     -0.606999993       650.716125       1.57236290    
 -0.712980986       1.15920806     -0.606999993       650.716125       1.57236290    
 -0.711889029       1.15749002     -0.303496003       695.925903       1.57224035    
 -0.712980986       1.15920806     -0.606999993       695.925903       1.57224035    
 -0.573064029       1.23399496     -0.606999993       695.925903       1.57224035    
 -0.572302997       1.23206902     -0.303485990       695.925903       1.57224035    
 -0.711889029       1.15749002     -0.303496003       701.445740       1.57228327    
 -0.712655008       1.15938199       0.00000000       701.445740       1.57228327    
 -0.841165006       1.06699395       0.00000000       701.445740       1.57228327    
 -0.840825975       1.06629205     -0.303485990       701.445740       1.57228327    
 -0.841165006       1.06699395       0.00000000       640.010559       1.57244945    
 -0.963320017      0.966744006       0.00000000       640.010559       1.57244945    
 -0.960084975      0.962615013     -0.303470999       640.010559       1.57244945    
 -0.840825975       1.06629205     -0.303485990       640.010559       1.57244945    
 -0.960084975      0.962615013     -0.303470999       530.818726       1.57278275    
  -1.06383705      0.843237996     -0.303481996       530.818726       1.57278275    
  -1.06481802      0.843816996     -0.606999993       530.818726       1.57278275    
 -0.963873982      0.966289997     -0.606999993       530.818726       1.57278275    
 -0.960084975      0.962615013     -0.303470999       593.802734       1.57254100    
 -0.963873982      0.966289997     -0.606999993       593.802734       1.57254100    
 -0.841368973       1.06682706     -0.606999993       593.802734       1.57254100    
 -0.840825975       1.06629205     -0.303485990       593.802734       1.57254100    
 -0.960084975      0.962615013     -0.303470999       572.915161       1.57266986    
 -0.963320017      0.966744006       0.00000000       572.915161       1.57266986    
  -1.06464398      0.844029009       0.00000000       572.915161       1.57266986    
  -1.06383705      0.843237996     -0.303481996       572.915161       1.57266986    
  -1.06464398      0.844029009       0.00000000       494.644257       1.57300520    
  -1.15769398      0.715813994       0.00000000       494.644257       1.57300520    
  -1.15564799      0.714680016     -0.303483993       494.644257       1.57300520    
  -1.06383705      0.843237996     -0.303481996       494.644257       1.57300520    
  -1.15564799      0.714680016     -0.303483993       385.253662       1.57364607    
  -1.23108304      0.575536013     -0.303514004       385.253662       1.57364607    
  -1.23232996      0.576179981     -0.606999993       385.253662       1.57364607    
  -1.15756094      0.716063023     -0.606999993       385.253662       1.57364607    
  -1.15564799      0.714680016     -0.303483993       460.573975       1.57313156    
  -1.15756094      0.716063023     -0.606999993       460.573975       1.57313156    
  -1.06481802      0.843816996     -0.606999993       460.573975       1.57313156    
  -1.06383705      0.843237996     -0.303481996       460.573975       1.57313156    
  -1.15564799      0.714680016     -0.303483993       410.401184       1.57350552    
  -1.15769398      0.715813994       0.00000000       410.401184       1.57350552    
  -1.23224795      0.576331973       0.00000000       410.401184       1.57350552    
  -1.23108304      0.575536013     -0.303514004       410.401184       1.57350552    
  -1.23224795      0.576331973       0.00000000       320.360046       1.57433331    
  -1.28948605      0.428772002       0.00000000       320.360046       1.57433331    
  -1.28842103      0.428404987     -0.303512990       320.360046       1.57433331    
  -1.23108304      0.575536013     -0.303514004       320.360046       1.57433331    
  -1.28842103      0.428404987     -0.303512990       210.458511       1.57624733    
  -1.33082402      0.275959998     -0.303492010       210.458511       1.57624733    
  -1.33550000      0.277083993     -0.606999993       210.458511       1.57624733    