 VARIABLES="X" "Y" "Z" "abs(p) (Pa)" "angle(p) (rad)"
ZONE N=   2720,E =    2069, F=FEPOINT, ET=QUADRILATERAL
 -0.767116010      -1.12776399       0.00000000       6793.99609       1.65155983    
 -0.769354999      -1.12002099     -0.303523988       6793.99609       1.65155983    
 -0.896136999      -1.02028203     -0.303463012       6793.99609       1.65155983    
 -0.894908011      -1.02288902       0.00000000       6793.99609       1.65155983    
 -0.767116010      -1.12776399       0.00000000       7377.89746       1.65139246    
 -0.630888999      -1.20308697       0.00000000       7377.89746       1.65139246    
 -0.635528028      -1.19958198     -0.303541005       7377.89746       1.65139246    
 -0.769354999      -1.12002099     -0.303523988       7377.89746       1.65139246    
 -0.635528028      -1.19958198     -0.303541005       6559.94092      -1.56699753    
 -0.495362997      -1.26606500     -0.303519011       6559.94092      -1.56699753    
 -0.499298006      -1.26809204     -0.606999993       6559.94092      -1.56699753    
 -0.640147984      -1.19813800     -0.606998026       6559.94092      -1.56699753    
 -0.635528028      -1.19958198     -0.303541005       6181.18506      -1.56691349    
 -0.640147984      -1.19813800     -0.606998026       6181.18506      -1.56691349    
 -0.777105987      -1.11956596     -0.606999993       6181.18506      -1.56691349    
 -0.769354999      -1.12002099     -0.303523988       6181.18506      -1.56691349    
 -0.635528028      -1.19958198     -0.303541005       7717.78174       1.65189993    
 -0.630888999      -1.20308697       0.00000000       7717.78174       1.65189993    
 -0.494486004      -1.26955199       0.00000000       7717.78174       1.65189993    
 -0.495362997      -1.26606500     -0.303519011       7717.78174       1.65189993    
 -0.494486004      -1.26955199       0.00000000       8112.47803       1.65171003    
 -0.346311986      -1.31449997       0.00000000       8112.47803       1.65171003    
 -0.346753001      -1.31307304     -0.303510010       8112.47803       1.65171003    
 -0.495362997      -1.26606500     -0.303519011       8112.47803       1.65171003    
 -0.346753001      -1.31307304     -0.303510010       7111.01025      -1.56674957    
 -0.193608001      -1.34425998     -0.303494990       7111.01025      -1.56674957    
 -0.195028007      -1.34579206     -0.606999993       7111.01025      -1.56674957    
 -0.348751009      -1.31376004     -0.606999993       7111.01025      -1.56674957    
 -0.346753001      -1.31307304     -0.303510010       6861.19824      -1.56698728    
 -0.348751009      -1.31376004     -0.606999993       6861.19824      -1.56698728    
 -0.499298006      -1.26809204     -0.606999993       6861.19824      -1.56698728    
 -0.495362997      -1.26606500     -0.303519011       6861.19824      -1.56698728    
 -0.346753001      -1.31307304     -0.303510010       8176.83740       1.65263939    
 -0.346311986      -1.31449997       0.00000000       8176.83740       1.65263939    
 -0.193381995      -1.34595394       0.00000000       8176.83740       1.65263939    
 -0.193608001      -1.34425998     -0.303494990       8176.83740       1.65263939    
 -0.193381995      -1.34595394       0.00000000       8372.66016       1.65237880    
  -3.75179984E-02  -1.36130500       0.00000000       8372.66016       1.65237880    
  -3.73950005E-02  -1.35827899     -0.303512007       8372.66016       1.65237880    
 -0.193608001      -1.34425998     -0.303494990       8372.66016       1.65237880    
  -3.73950005E-02  -1.35827899     -0.303512007       7345.39697      -1.56618333    
  0.119547002      -1.35239303     -0.303498000       7345.39697      -1.56618333    
  0.119135000      -1.35326600     -0.606999993       7345.39697      -1.56618333    
  -3.82840000E-02  -1.36122894     -0.606998980       7345.39697      -1.56618333    
  -3.73950005E-02  -1.35827899     -0.303512007       7266.53467      -1.56655145    
  -3.82840000E-02  -1.36122894     -0.606998980       7266.53467      -1.56655145    
 -0.195028007      -1.34579206     -0.606999993       7266.53467      -1.56655145    
 -0.193608001      -1.34425998     -0.303494990       7266.53467      -1.56655145    
  -3.73950005E-02  -1.35827899     -0.303512007       8188.10596       1.65300667    
  -3.75179984E-02  -1.36130500       0.00000000       8188.10596       1.65300667    
  0.119788997      -1.35320199       0.00000000       8188.10596       1.65300667    
  0.119547002      -1.35239303     -0.303498000       8188.10596       1.65300667    
  0.119788997      -1.35320199       0.00000000       8110.25684       1.65264904    
  0.276576012      -1.33565402       0.00000000       8110.25684       1.65264904    
  0.275435001      -1.33191597     -0.303496003       8110.25684       1.65264904    
  0.119547002      -1.35239303     -0.303498000       8110.25684       1.65264904    
  0.275435001      -1.33191597     -0.303496003       7218.88037      -1.56540740    
  0.427076995      -1.28898001     -0.303507000       7218.88037      -1.56540740    
  0.427242011      -1.28995001     -0.606999993       7218.88037      -1.56540740    
  0.275831014      -1.33588004     -0.606999993       7218.88037      -1.56540740    
  0.275435001      -1.33191597     -0.303496003       7341.30029      -1.56576645    
  0.275831014      -1.33588004     -0.606999993       7341.30029      -1.56576645    
  0.119135000      -1.35326600     -0.606999993       7341.30029      -1.56576645    
  0.119547002      -1.35239303     -0.303498000       7341.30029      -1.56576645    
  0.275435001      -1.33191597     -0.303496003       7790.42334       1.65290892    
  0.276576012      -1.33565402       0.00000000       7790.42334       1.65290892    
  0.427509993      -1.28986895       0.00000000       7790.42334       1.65290892    
  0.427076995      -1.28898001     -0.303507000       7790.42334       1.65290892    
  0.427509993      -1.28986895       0.00000000       6987.22119       1.65527236    
  0.574636996      -1.23315501       0.00000000       6987.22119       1.65527236    
  0.573706985      -1.23136795     -0.303485990       6987.22119       1.65527236    
  0.427076995      -1.28898001     -0.303507000       6987.22119       1.65527236    
  0.573706985      -1.23136795     -0.303485990       6684.32715      -1.56465733    
  0.712854981      -1.15688002     -0.303496987       6684.32715      -1.56465733    
  0.713809013      -1.15876603     -0.606999993       6684.32715      -1.56465733    
  0.574283004      -1.23334301     -0.606999993       6684.32715      -1.56465733    
  0.573706985      -1.23136795     -0.303485990       7009.95801      -1.56493676    
  0.574283004      -1.23334301     -0.606999993       7009.95801      -1.56493676    
  0.427242011      -1.28995001     -0.606999993       7009.95801      -1.56493676    
  0.427076995      -1.28898001     -0.303507000       7009.95801      -1.56493676    
  0.573706985      -1.23136795     -0.303485990       6395.24316       1.65648556    
  0.574636996      -1.23315501       0.00000000       6395.24316       1.65648556    
  0.713741004      -1.15880203       0.00000000       6395.24316       1.65648556    
  0.712854981      -1.15688002     -0.303496987       6395.24316       1.65648556    
  0.713741004      -1.15880203       0.00000000       5790.12451       1.65761030    
  0.841937006      -1.06636095       0.00000000       5790.12451       1.65761030    
  0.841498017      -1.06573403     -0.303485990       5790.12451       1.65761030    
  0.712854981      -1.15688002     -0.303496987       5790.12451       1.65761030    
  0.841498017      -1.06573403     -0.303485990       5718.10498      -1.56435406    
  0.960639000     -0.962104976     -0.303470999       5718.10498      -1.56435406    
  0.964356005     -0.965893984     -0.606999993       5718.10498      -1.56435406    
  0.841796994      -1.06647599     -0.606999993       5718.10498      -1.56435406    
  0.841498017      -1.06573403     -0.303485990       6263.53271      -1.56436932    
  0.841796994      -1.06647599     -0.606999993       6263.53271      -1.56436932    
  0.713809013      -1.15876603     -0.606999993       6263.53271      -1.56436932    
  0.712854981      -1.15688002     -0.303496987       6263.53271      -1.56436932    
  0.841498017      -1.06573403     -0.303485990       5578.84326       1.65554333    
  0.841937006      -1.06636095       0.00000000       5578.84326       1.65554333    
  0.963932991     -0.966242015       0.00000000       5578.84326       1.65554333    
  0.960639000     -0.962104976     -0.303470999       5578.84326       1.65554333    
  0.963932991     -0.966242015       0.00000000       5120.21436       1.65463185    
   1.06506598     -0.843514979       0.00000000       5120.21436       1.65463185    
   1.06428695     -0.842682004     -0.303481996       5120.21436       1.65463185    
  0.960639000     -0.962104976     -0.303470999       5120.21436       1.65463185    
   1.06428695     -0.842682004     -0.303481996       4395.68164      -1.56431663    
   1.15591598     -0.714210987     -0.303485006       4395.68164      -1.56431663    
   1.15788805     -0.715448976     -0.606999993       4395.68164      -1.56431663    
   1.06537795     -0.843134999     -0.606999993       4395.68164      -1.56431663    
   1.06428695     -0.842682004     -0.303481996       5098.14453      -1.56437361    
   1.06537795     -0.843134999     -0.606999993       5098.14453      -1.56437361    
  0.964356005     -0.965893984     -0.606999993       5098.14453      -1.56437361    
  0.960639000     -0.962104976     -0.303470999       5098.14453      -1.56437361    
   1.06428695     -0.842682004     -0.303481996       4304.96582       1.65549207    
   1.06506598     -0.843514979       0.00000000       4304.96582       1.65549207    
   1.15792501     -0.715381980       0.00000000       4304.96582       1.65549207    
   1.15591598     -0.714210987     -0.303485006       4304.96582       1.65549207    
   1.15792501     -0.715381980       0.00000000       3669.13623       1.65459502    
   1.23237598     -0.576093972       0.00000000       3669.13623       1.65459502    
   1.23120904     -0.575251997     -0.303514004       3669.13623       1.65459502    
   1.15591598     -0.714210987     -0.303485006       3669.13623       1.65459502    
   1.23120904     -0.575251997     -0.303514004       2845.43457      -1.56428063    
   1.28844094     -0.428344995     -0.303512990       2845.43457      -1.56428063    
   1.28952503     -0.428642988     -0.606999993       2845.43457      -1.56428063    
   1.23252702     -0.575810015     -0.606999993       2845.43457      -1.56428063    
   1.23120904     -0.575251997     -0.303514004       3632.20044      -1.56445658    
   1.23252702     -0.575810015     -0.606999993       3632.20044      -1.56445658    
   1.15788805     -0.715448976     -0.606999993       3632.20044      -1.56445658    
   1.15591598     -0.714210987     -0.303485006       3632.20044      -1.56445658    
   1.23120904     -0.575251997     -0.303514004       2822.64746       1.65536404    
   1.23237598     -0.576093972       0.00000000       2822.64746       1.65536404    
   1.28947699     -0.428801000       0.00000000       2822.64746       1.65536404    
   1.28844094     -0.428344995     -0.303512990       2822.64746       1.65536404    
   1.28947699     -0.428801000       0.00000000       1998.02466       1.65540075    
   1.33532202     -0.277671993       0.00000000       1998.02466       1.65540075    
   1.33076501     -0.276203990     -0.303492010       1998.02466       1.65540075    
   1.28844094     -0.428344995     -0.303512990       1998.02466       1.65540075    
   1.33076501     -0.276203990     -0.303492010       1151.47009      -1.56366682    
   1.35229194     -0.119709998     -0.303514004       1151.47009      -1.56366682    
   1.35321999     -0.119608998     -0.606999993       1151.47009      -1.56366682    
   1.33549094     -0.277112991     -0.606999993       1151.47009      -1.56366682    
   1.33076501     -0.276203990     -0.303492010       2026.77966      -1.56372547    
   1.33549094     -0.277112991     -0.606999993       2026.77966      -1.56372547    
   1.28952503     -0.428642988     -0.606999993       2026.77966      -1.56372547    
   1.28844094     -0.428344995     -0.303512990       2026.77966      -1.56372547    
   1.33076501     -0.276203990     -0.303492010       1111.08911       1.65683210    
   1.33532202     -0.277671993       0.00000000       1111.08911       1.65683210    
   1.35319102     -0.119900003       0.00000000       1111.08911       1.65683210    
   1.35229194     -0.119709998     -0.303514004       1111.08911       1.65683210    
   1.35319102     -0.119900003       0.00000000       110.440331       1.70302129    
   1.36124396       3.81390005E-02   0.00000000       110.440331       1.70302129    
   1.35858905       3.79349999E-02 -0.303501010       110.440331       1.70302129    
   1.35229194     -0.119709998     -0.303514004       110.440331       1.70302129    
   1.35858905       3.79349999E-02 -0.303501010       569.402954       1.57213116    
   1.34464097      0.195331007     -0.303496003       569.402954       1.57213116    
   1.34573400      0.195616007     -0.606999993       569.402954       1.57213116    
   1.36126804       3.78950015E-02 -0.606999993       569.402954       1.57213116    
   1.35858905       3.79349999E-02 -0.303501010       296.152496      -1.55734682    
   1.36126804       3.78950015E-02 -0.606999993       296.152496      -1.55734682    
   1.35321999     -0.119608998     -0.606999993       296.152496      -1.55734682    
   1.35229194     -0.119709998     -0.303514004       296.152496      -1.55734682    
   1.35858905       3.79349999E-02 -0.303501010       811.454712      -1.49393511    
   1.36124396       3.81390005E-02   0.00000000       811.454712      -1.49393511    
   1.34575403      0.195406005       0.00000000       811.454712      -1.49393511    
   1.34464097      0.195331007     -0.303496003       811.454712      -1.49393511    
   1.34575403      0.195406005       0.00000000       1763.53113      -1.49106729    
   1.31339800      0.349945009       0.00000000       1763.53113      -1.49106729    
   1.31216300      0.349725991     -0.303487003       1763.53113      -1.49106729    
   1.34464097      0.195331007     -0.303496003       1763.53113      -1.49106729    
   1.31216300      0.349725991     -0.303487003       2286.69482       1.57567132    
   1.26341999      0.500032008     -0.303494006       2286.69482       1.57567132    
   1.26736605      0.501691997     -0.606999993       2286.69482       1.57567132    
   1.31333196      0.350163996     -0.606999993       2286.69482       1.57567132    
   1.31216300      0.349725991     -0.303487003       1424.78394       1.57456076    
   1.31333196      0.350163996     -0.606999993       1424.78394       1.57456076    
   1.34573400      0.195616007     -0.606999993       1424.78394       1.57456076    
   1.34464097      0.195331007     -0.303496003       1424.78394       1.57456076    
   1.31216300      0.349725991     -0.303487003       2778.12158      -1.49129236    
   1.31339800      0.349945009       0.00000000       2778.12158      -1.49129236    
   1.26751196      0.501209974       0.00000000       2778.12158      -1.49129236    
   1.26341999      0.500032008     -0.303494006       2778.12158      -1.49129236    
   1.26751196      0.501209974       0.00000000       3618.07227      -1.49027348    
   1.19658697      0.643051028       0.00000000       3618.07227      -1.49027348    
   1.19583094      0.642783999     -0.303505003       3618.07227      -1.49027348    
   1.26341999      0.500032008     -0.303494006       3618.07227      -1.49027348    
   1.19583094      0.642783999     -0.303505003       3891.22705       1.57628524    
   1.11495602      0.778467000     -0.303483993       3891.22705       1.57628524    
   1.11731696      0.779847026     -0.606999993       3891.22705       1.57628524    
   1.19653296      0.643149972     -0.606999993       3891.22705       1.57628524    
   1.19583094      0.642783999     -0.303505003       3109.48389       1.57618546    
   1.19653296      0.643149972     -0.606999993       3109.48389       1.57618546    
   1.26736605      0.501691997     -0.606999993       3109.48389       1.57618546    
   1.26341999      0.500032008     -0.303494006       3109.48389       1.57618546    
   1.19583094      0.642783999     -0.303505003       4389.22607      -1.48949265    
   1.19658697      0.643051028       0.00000000       4389.22607      -1.48949265    
   1.11705506      0.780165970       0.00000000       4389.22607      -1.48949265    
   1.11495602      0.778467000     -0.303483993       4389.22607      -1.48949265    
   1.11705506      0.780165970       0.00000000       5027.47021      -1.48870945    
   1.01674199      0.902397990       0.00000000       5027.47021      -1.48870945    
   1.01591504      0.901737988     -0.303478003       5027.47021      -1.48870945    
   1.11495602      0.778467000     -0.303483993       5027.47021      -1.48870945    
   1.01591504      0.901737988     -0.303478003       5294.14014       1.57676697    
  0.904204011       1.01322901     -0.303456992       5294.14014       1.57676697    
  0.905143023       1.01448905     -0.606999993       5294.14014       1.57676697    
   1.01659799      0.902572989     -0.606999993       5294.14014       1.57676697    
   1.01591504      0.901737988     -0.303478003       4610.41797       1.57645392    
   1.01659799      0.902572989     -0.606999993       4610.41797       1.57645392    
   1.11731696      0.779847026     -0.606999993       4610.41797       1.57645392    
   1.11495602      0.778467000     -0.303483993       4610.41797       1.57645392    
   1.01591504      0.901737988     -0.303478003       5490.78223      -1.48734450    
   1.01674199      0.902397990       0.00000000       5490.78223      -1.48734450    
  0.905318975       1.01434398       0.00000000       5490.78223      -1.48734450    
  0.904204011       1.01322901     -0.303456992       5490.78223      -1.48734450    
  0.905318975       1.01434398       0.00000000       6210.49414      -1.48798597    
  0.782918990       1.11479497       0.00000000       6210.49414      -1.48798597    
  0.780644000       1.11195600     -0.303485006       6210.49414      -1.48798597    
  0.904204011       1.01322901     -0.303456992       6210.49414      -1.48798597    
  0.780644000       1.11195600     -0.303485006       6396.20850       1.57687998    
  0.645825028       1.19414902     -0.303514004       6396.20850       1.57687998    
  0.646153986       1.19492805     -0.606999993       6396.20850       1.57687998    
  0.782611012       1.11504900     -0.606999993       6396.20850       1.57687998    
  0.780644000       1.11195600     -0.303485006       5889.91113       1.57684195    
  0.782611012       1.11504900     -0.606999993       5889.91113       1.57684195    
  0.905143023       1.01448905     -0.606999993       5889.91113       1.57684195    
  0.904204011       1.01322901     -0.303456992       5889.91113       1.57684195    
  0.780644000       1.11195600     -0.303485006       6665.83838      -1.48766589    
  0.782918990       1.11479497       0.00000000       6665.83838      -1.48766589    
  0.646345019       1.19482601       0.00000000       6665.83838      -1.48766589    
  0.645825028       1.19414902     -0.303514004       6665.83838      -1.48766589    
  0.646345019       1.19482601       0.00000000       7261.93994      -1.48846328    
  0.504974008       1.26637006       0.00000000       7261.93994      -1.48846328    
  0.503772974       1.26314998     -0.303521991       7261.93994      -1.48846328    
  0.645825028       1.19414902     -0.303514004       7261.93994      -1.48846328    
  0.503772974       1.26314998     -0.303521991       7069.89600       1.57644355    
  0.353130996       1.31116498     -0.303510994       7069.89600       1.57644355    
  0.353300005       1.31237996     -0.606999993       7069.89600       1.57644355    
  0.505183995       1.26630700     -0.606999993       7069.89600       1.57644355    
  0.503772974       1.26314998     -0.303521991       6777.62451       1.57664132    
  0.505183995       1.26630700     -0.606999993       6777.62451       1.57664132    
  0.646153986       1.19492805     -0.606999993       6777.62451       1.57664132    
  0.645825028       1.19414902     -0.303514004       6777.62451       1.57664132    
  0.503772974       1.26314998     -0.303521991       7701.83740      -1.48896003    
  0.504974008       1.26637006       0.00000000       7701.83740      -1.48896003    
  0.353493989       1.31232095       0.00000000       7701.83740      -1.48896003    
  0.353130996       1.31116498     -0.303510994       7701.83740      -1.48896003    
  0.353493989       1.31232095       0.00000000       7866.30469      -1.48851299    
  0.199064001       1.34539402       0.00000000       7866.30469      -1.48851299    
  0.198755994       1.34360003     -0.303496003       7866.30469      -1.48851299    
  0.353130996       1.31116498     -0.303510994       7866.30469      -1.48851299    
  0.198755994       1.34360003     -0.303496003       7346.02148       1.57596731    
   4.12769988E-02   1.35817802     -0.303508013       7346.02148       1.57596731    
   4.12410013E-02   1.36093795     -0.606999993       7346.02148       1.57596731    
  0.199025005       1.34539795     -0.606999993       7346.02148       1.57596731    
  0.198755994       1.34360003     -0.303496003       7267.84521       1.57625163    
  0.199025005       1.34539795     -0.606999993       7267.84521       1.57625163    
  0.353300005       1.31237996     -0.606999993       7267.84521       1.57625163    
  0.353130996       1.31116498     -0.303510994       7267.84521       1.57625163    
  0.198755994       1.34360003     -0.303496003       8266.66211      -1.48956180    
  0.199064001       1.34539402       0.00000000       8266.66211      -1.48956180    
   4.17769998E-02   1.36088502       0.00000000       8266.66211      -1.48956180    
   4.12769988E-02   1.35817802     -0.303508013       8266.66211      -1.48956180    
   4.17769998E-02   1.36088502       0.00000000       8341.35254      -1.48942351    
 -0.116410002       1.35353506       0.00000000       8341.35254      -1.48942351    
 -0.116471998       1.35271096     -0.303496987       8341.35254      -1.48942351    
   4.12769988E-02   1.35817802     -0.303508013       8341.35254      -1.48942351    
 -0.116471998       1.35271096     -0.303496987       7282.02246       1.57581556    
 -0.273027003       1.33229196     -0.303496003       7282.02246       1.57581556    
 -0.273876995       1.33647299     -0.606999993       7282.02246       1.57581556    
 -0.116722003       1.35350394     -0.606999993       7282.02246       1.57581556    
 -0.116471998       1.35271096     -0.303496987       7358.81641       1.57583511    
 -0.116722003       1.35350394     -0.606999993       7358.81641       1.57583511    
   4.12410013E-02   1.36093795     -0.606999993       7358.81641       1.57583511    
   4.12769988E-02   1.35817802     -0.303508013       7358.81641       1.57583511    
 -0.116471998       1.35271096     -0.303496987       8562.97852      -1.49034393    
 -0.116410002       1.35353506       0.00000000       8562.97852      -1.49034393    
 -0.274069011       1.33641505       0.00000000       8562.97852      -1.49034393    
 -0.273027003       1.33229196     -0.303496003       8562.97852      -1.49034393    
 -0.274069011       1.33641505       0.00000000       8342.51172      -1.49016941    
 -0.425588995       1.29045200       0.00000000       8342.51172      -1.49016941    
 -0.425258011       1.28953803     -0.303507000       8342.51172      -1.49016941    
 -0.273027003       1.33229196     -0.303496003       8342.51172      -1.49016941    
 -0.425258011       1.28953803     -0.303507000       6943.14941       1.57646799    
 -0.572302997       1.23206902     -0.303485990       6943.14941       1.57646799    
 -0.573064029       1.23399496     -0.606999993       6943.14941       1.57646799    
 -0.425651014       1.29043305     -0.606999993       6943.14941       1.57646799    
 -0.425258011       1.28953803     -0.303507000       7134.28223       1.57593048    
 -0.425651014       1.29043305     -0.606999993       7134.28223       1.57593048    
 -0.273876995       1.33647299     -0.606999993       7134.28223       1.57593048    
 -0.273027003       1.33229196     -0.303496003       7134.28223       1.57593048    
 -0.425258011       1.28953803     -0.303507000       7480.57812      -1.48779798    
 -0.425588995       1.29045200       0.00000000       7480.57812      -1.48779798    
 -0.573195994       1.23392498       0.00000000       7480.57812      -1.48779798    
 -0.572302997       1.23206902     -0.303485990       7480.57812      -1.48779798    
 -0.573195994       1.23392498       0.00000000       6791.28516      -1.48640847    
 -0.712655008       1.15938199       0.00000000       6791.28516      -1.48640847    
 -0.711889029       1.15749002     -0.303496003       6791.28516      -1.48640847    
 -0.572302997       1.23206902     -0.303485990       6791.28516      -1.48640847    
 -0.711889029       1.15749002     -0.303496003       6273.21094       1.57759786    
 -0.840825975       1.06629205     -0.303485990       6273.21094       1.57759786    
 -0.841368973       1.06682706     -0.606999993       6273.21094       1.57759786    
 -0.712980986       1.15920806     -0.606999993       6273.21094       1.57759786    
 -0.711889029       1.15749002     -0.303496003       6645.87158       1.57694685    
 -0.712980986       1.15920806     -0.606999993       6645.87158       1.57694685    
 -0.573064029       1.23399496     -0.606999993       6645.87158       1.57694685    
 -0.572302997       1.23206902     -0.303485990       6645.87158       1.57694685    
 -0.711889029       1.15749002     -0.303496003       5966.14062      -1.48451972    
 -0.712655008       1.15938199       0.00000000       5966.14062      -1.48451972    
 -0.841165006       1.06699395       0.00000000       5966.14062      -1.48451972    
 -0.840825975       1.06629205     -0.303485990       5966.14062      -1.48451972    
 -0.841165006       1.06699395       0.00000000       5509.74268      -1.48533142    
 -0.963320017      0.966744006       0.00000000       5509.74268      -1.48533142    
 -0.960084975      0.962615013     -0.303470999       5509.74268      -1.48533142    
 -0.840825975       1.06629205     -0.303485990       5509.74268      -1.48533142    
 -0.960084975      0.962615013     -0.303470999       5172.70312       1.57823336    
  -1.06383705      0.843237996     -0.303481996       5172.70312       1.57823336    
  -1.06481802      0.843816996     -0.606999993       5172.70312       1.57823336    
 -0.963873982      0.966289997     -0.606999993       5172.70312       1.57823336    
 -0.960084975      0.962615013     -0.303470999       5787.74414       1.57808709    
 -0.963873982      0.966289997     -0.606999993       5787.74414       1.57808709    
 -0.841368973       1.06682706     -0.606999993       5787.74414       1.57808709    
 -0.840825975       1.06629205     -0.303485990       5787.74414       1.57808709    
 -0.960084975      0.962615013     -0.303470999       4984.21582      -1.48596513    
 -0.963320017      0.966744006       0.00000000       4984.21582      -1.48596513    
  -1.06464398      0.844029009       0.00000000       4984.21582      -1.48596513    
  -1.06383705      0.843237996     -0.303481996       4984.21582      -1.48596513    
  -1.06464398      0.844029009       0.00000000       4248.55859      -1.48571110    
  -1.15769398      0.715813994       0.00000000       4248.55859      -1.48571110    
  -1.15564799      0.714680016     -0.303483993       4248.55859      -1.48571110    
  -1.06383705      0.843237996     -0.303481996       4248.55859      -1.48571110    
  -1.15564799      0.714680016     -0.303483993       3662.84985       1.57807708    
  -1.23108304      0.575536013     -0.303514004       3662.84985       1.57807708    
  -1.23232996      0.576179981     -0.606999993       3662.84985       1.57807708    
  -1.15756094      0.716063023     -0.606999993       3662.84985       1.57807708    
  -1.15564799      0.714680016     -0.303483993       4454.80615       1.57827795    
  -1.15756094      0.716063023     -0.606999993       4454.80615       1.57827795    
  -1.06481802      0.843816996     -0.606999993       4454.80615       1.57827795    
  -1.06383705      0.843237996     -0.303481996       4454.80615       1.57827795    
  -1.15564799      0.714680016     -0.303483993       3662.23315      -1.48717487    
  -1.15769398      0.715813994       0.00000000       3662.23315      -1.48717487    
  -1.23224795      0.576331973       0.00000000       3662.23315      -1.48717487    
  -1.23108304      0.575536013     -0.303514004       3662.23315      -1.48717487    
  -1.23224795      0.576331973       0.00000000       2829.60986      -1.48699439    
  -1.28948605      0.428772002       0.00000000       2829.60986      -1.48699439    
  -1.28842103      0.428404987     -0.303512990       2829.60986      -1.48699439    
  -1.23108304      0.575536013     -0.303514004       2829.60986      -1.48699439    
  -1.28842103      0.428404987     -0.303512990       2047.54553       1.57945466    
  -1.33082402      0.275959998     -0.303492010       2047.54553       1.57945466    
  -1.33550000      0.277083993     -0.606999993       2047.54553       1.57945466    