 VARIABLES="X" "Y" "Z" "abs(p) (Pa)" "angle(p) (rad)"
ZONE N=   2720,E =    2069, F=FEPOINT, ET=QUADRILATERAL
 -0.767116010      -1.12776399       0.00000000       3218.10864      -1.59107685    
 -0.769354999      -1.12002099     -0.303523988       3218.10864      -1.59107685    
 -0.896136999      -1.02028203     -0.303463012       3218.10864      -1.59107685    
 -0.894908011      -1.02288902       0.00000000       3218.10864      -1.59107685    
 -0.767116010      -1.12776399       0.00000000       3484.93213      -1.59107614    
 -0.630888999      -1.20308697       0.00000000       3484.93213      -1.59107614    
 -0.635528028      -1.19958198     -0.303541005       3484.93213      -1.59107614    
 -0.769354999      -1.12002099     -0.303523988       3484.93213      -1.59107614    
 -0.635528028      -1.19958198     -0.303541005       2670.79932      -1.58947015    
 -0.495362997      -1.26606500     -0.303519011       2670.79932      -1.58947015    
 -0.499298006      -1.26809204     -0.606999993       2670.79932      -1.58947015    
 -0.640147984      -1.19813800     -0.606998026       2670.79932      -1.58947015    
 -0.635528028      -1.19958198     -0.303541005       2514.29956      -1.58942020    
 -0.640147984      -1.19813800     -0.606998026       2514.29956      -1.58942020    
 -0.777105987      -1.11956596     -0.606999993       2514.29956      -1.58942020    
 -0.769354999      -1.12002099     -0.303523988       2514.29956      -1.58942020    
 -0.635528028      -1.19958198     -0.303541005       3696.32837      -1.59104979    
 -0.630888999      -1.20308697       0.00000000       3696.32837      -1.59104979    
 -0.494486004      -1.26955199       0.00000000       3696.32837      -1.59104979    
 -0.495362997      -1.26606500     -0.303519011       3696.32837      -1.59104979    
 -0.494486004      -1.26955199       0.00000000       3865.21167      -1.59107900    
 -0.346311986      -1.31449997       0.00000000       3865.21167      -1.59107900    
 -0.346753001      -1.31307304     -0.303510010       3865.21167      -1.59107900    
 -0.495362997      -1.26606500     -0.303519011       3865.21167      -1.59107900    
 -0.346753001      -1.31307304     -0.303510010       2884.15210      -1.58938944    
 -0.193608001      -1.34425998     -0.303494990       2884.15210      -1.58938944    
 -0.195028007      -1.34579206     -0.606999993       2884.15210      -1.58938944    
 -0.348751009      -1.31376004     -0.606999993       2884.15210      -1.58938944    
 -0.346753001      -1.31307304     -0.303510010       2797.22021      -1.58944023    
 -0.348751009      -1.31376004     -0.606999993       2797.22021      -1.58944023    
 -0.499298006      -1.26809204     -0.606999993       2797.22021      -1.58944023    
 -0.495362997      -1.26606500     -0.303519011       2797.22021      -1.58944023    
 -0.346753001      -1.31307304     -0.303510010       3993.73950      -1.59094644    
 -0.346311986      -1.31449997       0.00000000       3993.73950      -1.59094644    
 -0.193381995      -1.34595394       0.00000000       3993.73950      -1.59094644    
 -0.193608001      -1.34425998     -0.303494990       3993.73950      -1.59094644    
 -0.193381995      -1.34595394       0.00000000       4064.60571      -1.59094059    
  -3.75179984E-02  -1.36130500       0.00000000       4064.60571      -1.59094059    
  -3.73950005E-02  -1.35827899     -0.303512007       4064.60571      -1.59094059    
 -0.193608001      -1.34425998     -0.303494990       4064.60571      -1.59094059    
  -3.73950005E-02  -1.35827899     -0.303512007       2938.00781      -1.58933294    
  0.119547002      -1.35239303     -0.303498000       2938.00781      -1.58933294    
  0.119135000      -1.35326600     -0.606999993       2938.00781      -1.58933294    
  -3.82840000E-02  -1.36122894     -0.606998980       2938.00781      -1.58933294    
  -3.73950005E-02  -1.35827899     -0.303512007       2931.58179      -1.58938253    
  -3.82840000E-02  -1.36122894     -0.606998980       2931.58179      -1.58938253    
 -0.195028007      -1.34579206     -0.606999993       2931.58179      -1.58938253    
 -0.193608001      -1.34425998     -0.303494990       2931.58179      -1.58938253    
  -3.73950005E-02  -1.35827899     -0.303512007       4059.96533      -1.59087145    
  -3.75179984E-02  -1.36130500       0.00000000       4059.96533      -1.59087145    
  0.119788997      -1.35320199       0.00000000       4059.96533      -1.59087145    
  0.119547002      -1.35239303     -0.303498000       4059.96533      -1.59087145    
  0.119788997      -1.35320199       0.00000000       3998.96387      -1.59095538    
  0.276576012      -1.33565402       0.00000000       3998.96387      -1.59095538    
  0.275435001      -1.33191597     -0.303496003       3998.96387      -1.59095538    
  0.119547002      -1.35239303     -0.303498000       3998.96387      -1.59095538    
  0.275435001      -1.33191597     -0.303496003       2828.46460      -1.58942163    
  0.427076995      -1.28898001     -0.303507000       2828.46460      -1.58942163    
  0.427242011      -1.28995001     -0.606999993       2828.46460      -1.58942163    
  0.275831014      -1.33588004     -0.606999993       2828.46460      -1.58942163    
  0.275435001      -1.33191597     -0.303496003       2904.12354      -1.58940935    
  0.275831014      -1.33588004     -0.606999993       2904.12354      -1.58940935    
  0.119135000      -1.35326600     -0.606999993       2904.12354      -1.58940935    
  0.119547002      -1.35239303     -0.303498000       2904.12354      -1.58940935    
  0.275435001      -1.33191597     -0.303496003       3881.76880      -1.59100449    
  0.276576012      -1.33565402       0.00000000       3881.76880      -1.59100449    
  0.427509993      -1.28986895       0.00000000       3881.76880      -1.59100449    
  0.427076995      -1.28898001     -0.303507000       3881.76880      -1.59100449    
  0.427509993      -1.28986895       0.00000000       3720.98877      -1.59074235    
  0.574636996      -1.23315501       0.00000000       3720.98877      -1.59074235    
  0.573706985      -1.23136795     -0.303485990       3720.98877      -1.59074235    
  0.427076995      -1.28898001     -0.303507000       3720.98877      -1.59074235    
  0.573706985      -1.23136795     -0.303485990       2572.82031      -1.58934534    
  0.712854981      -1.15688002     -0.303496987       2572.82031      -1.58934534    
  0.713809013      -1.15876603     -0.606999993       2572.82031      -1.58934534    
  0.574283004      -1.23334301     -0.606999993       2572.82031      -1.58934534    
  0.573706985      -1.23136795     -0.303485990       2718.92896      -1.58934748    
  0.574283004      -1.23334301     -0.606999993       2718.92896      -1.58934748    
  0.427242011      -1.28995001     -0.606999993       2718.92896      -1.58934748    
  0.427076995      -1.28898001     -0.303507000       2718.92896      -1.58934748    
  0.573706985      -1.23136795     -0.303485990       3523.55713      -1.59058833    
  0.574636996      -1.23315501       0.00000000       3523.55713      -1.59058833    
  0.713741004      -1.15880203       0.00000000       3523.55713      -1.59058833    
  0.712854981      -1.15688002     -0.303496987       3523.55713      -1.59058833    
  0.713741004      -1.15880203       0.00000000       3278.31909      -1.59046996    
  0.841937006      -1.06636095       0.00000000       3278.31909      -1.59046996    
  0.841498017      -1.06573403     -0.303485990       3278.31909      -1.59046996    
  0.712854981      -1.15688002     -0.303496987       3278.31909      -1.59046996    
  0.841498017      -1.06573403     -0.303485990       2183.35522      -1.58933818    
  0.960639000     -0.962104976     -0.303470999       2183.35522      -1.58933818    
  0.964356005     -0.965893984     -0.606999993       2183.35522      -1.58933818    
  0.841796994      -1.06647599     -0.606999993       2183.35522      -1.58933818    
  0.841498017      -1.06573403     -0.303485990       2393.23633      -1.58932590    
  0.841796994      -1.06647599     -0.606999993       2393.23633      -1.58932590    
  0.713809013      -1.15876603     -0.606999993       2393.23633      -1.58932590    
  0.712854981      -1.15688002     -0.303496987       2393.23633      -1.58932590    
  0.841498017      -1.06573403     -0.303485990       2998.89551      -1.59072506    
  0.841937006      -1.06636095       0.00000000       2998.89551      -1.59072506    
  0.963932991     -0.966242015       0.00000000       2998.89551      -1.59072506    
  0.960639000     -0.962104976     -0.303470999       2998.89551      -1.59072506    
  0.963932991     -0.966242015       0.00000000       2668.48218      -1.59091496    
   1.06506598     -0.843514979       0.00000000       2668.48218      -1.59091496    
   1.06428695     -0.842682004     -0.303481996       2668.48218      -1.59091496    
  0.960639000     -0.962104976     -0.303470999       2668.48218      -1.59091496    
   1.06428695     -0.842682004     -0.303481996       1677.11829      -1.58941555    
   1.15591598     -0.714210987     -0.303485006       1677.11829      -1.58941555    
   1.15788805     -0.715448976     -0.606999993       1677.11829      -1.58941555    
   1.06537795     -0.843134999     -0.606999993       1677.11829      -1.58941555    
   1.06428695     -0.842682004     -0.303481996       1937.58728      -1.58946729    
   1.06537795     -0.843134999     -0.606999993       1937.58728      -1.58946729    
  0.964356005     -0.965893984     -0.606999993       1937.58728      -1.58946729    
  0.960639000     -0.962104976     -0.303470999       1937.58728      -1.58946729    
   1.06428695     -0.842682004     -0.303481996       2295.11353      -1.59075689    
   1.06506598     -0.843514979       0.00000000       2295.11353      -1.59075689    
   1.15792501     -0.715381980       0.00000000       2295.11353      -1.59075689    
   1.15591598     -0.714210987     -0.303485006       2295.11353      -1.59075689    
   1.15792501     -0.715381980       0.00000000       1897.28345      -1.59096014    
   1.23237598     -0.576093972       0.00000000       1897.28345      -1.59096014    
   1.23120904     -0.575251997     -0.303514004       1897.28345      -1.59096014    
   1.15591598     -0.714210987     -0.303485006       1897.28345      -1.59096014    
   1.23120904     -0.575251997     -0.303514004       1078.96509      -1.58955967    
   1.28844094     -0.428344995     -0.303512990       1078.96509      -1.58955967    
   1.28952503     -0.428642988     -0.606999993       1078.96509      -1.58955967    
   1.23252702     -0.575810015     -0.606999993       1078.96509      -1.58955967    
   1.23120904     -0.575251997     -0.303514004       1387.01416      -1.58951974    
   1.23252702     -0.575810015     -0.606999993       1387.01416      -1.58951974    
   1.15788805     -0.715448976     -0.606999993       1387.01416      -1.58951974    
   1.15591598     -0.714210987     -0.303485006       1387.01416      -1.58951974    
   1.23120904     -0.575251997     -0.303514004       1476.49109      -1.59110987    
   1.23237598     -0.576093972       0.00000000       1476.49109      -1.59110987    
   1.28947699     -0.428801000       0.00000000       1476.49109      -1.59110987    
   1.28844094     -0.428344995     -0.303512990       1476.49109      -1.59110987    
   1.28947699     -0.428801000       0.00000000       1042.24915      -1.59079826    
   1.33532202     -0.277671993       0.00000000       1042.24915      -1.59079826    
   1.33076501     -0.276203990     -0.303492010       1042.24915      -1.59079826    
   1.28844094     -0.428344995     -0.303512990       1042.24915      -1.59079826    
   1.33076501     -0.276203990     -0.303492010       420.811005      -1.58994865    
   1.35229194     -0.119709998     -0.303514004       420.811005      -1.58994865    
   1.35321999     -0.119608998     -0.606999993       420.811005      -1.58994865    
   1.33549094     -0.277112991     -0.606999993       420.811005      -1.58994865    
   1.33076501     -0.276203990     -0.303492010       760.473572      -1.58945131    
   1.33549094     -0.277112991     -0.606999993       760.473572      -1.58945131    
   1.28952503     -0.428642988     -0.606999993       760.473572      -1.58945131    
   1.28844094     -0.428344995     -0.303512990       760.473572      -1.58945131    
   1.33076501     -0.276203990     -0.303492010       582.448181      -1.59078121    
   1.33532202     -0.277671993       0.00000000       582.448181      -1.59078121    
   1.35319102     -0.119900003       0.00000000       582.448181      -1.59078121    
   1.35229194     -0.119709998     -0.303514004       582.448181      -1.59078121    
   1.35319102     -0.119900003       0.00000000       117.589989      -1.58716357    
   1.36124396       3.81390005E-02   0.00000000       117.589989      -1.58716357    
   1.35858905       3.79349999E-02 -0.303501010       117.589989      -1.58716357    
   1.35229194     -0.119709998     -0.303514004       117.589989      -1.58716357    
   1.35858905       3.79349999E-02 -0.303501010       255.914139       1.55210674    
   1.34464097      0.195331007     -0.303496003       255.914139       1.55210674    
   1.34573400      0.195616007     -0.606999993       255.914139       1.55210674    
   1.36126804       3.78950015E-02 -0.606999993       255.914139       1.55210674    
   1.35858905       3.79349999E-02 -0.303501010       87.3264160      -1.58780932    
   1.36126804       3.78950015E-02 -0.606999993       87.3264160      -1.58780932    
   1.35321999     -0.119608998     -0.606999993       87.3264160      -1.58780932    
   1.35229194     -0.119709998     -0.303514004       87.3264160      -1.58780932    
   1.35858905       3.79349999E-02 -0.303501010       353.354187       1.54944026    
   1.36124396       3.81390005E-02   0.00000000       353.354187       1.54944026    
   1.34575403      0.195406005       0.00000000       353.354187       1.54944026    
   1.34464097      0.195331007     -0.303496003       353.354187       1.54944026    
   1.34575403      0.195406005       0.00000000       815.676880       1.54996943    
   1.31339800      0.349945009       0.00000000       815.676880       1.54996943    
   1.31216300      0.349725991     -0.303487003       815.676880       1.54996943    
   1.34464097      0.195331007     -0.303496003       815.676880       1.54996943    
   1.31216300      0.349725991     -0.303487003       916.388306       1.55169976    
   1.26341999      0.500032008     -0.303494006       916.388306       1.55169976    
   1.26736605      0.501691997     -0.606999993       916.388306       1.55169976    
   1.31333196      0.350163996     -0.606999993       916.388306       1.55169976    
   1.31216300      0.349725991     -0.303487003       592.065002       1.55210125    
   1.31333196      0.350163996     -0.606999993       592.065002       1.55210125    
   1.34573400      0.195616007     -0.606999993       592.065002       1.55210125    
   1.34464097      0.195331007     -0.303496003       592.065002       1.55210125    
   1.31216300      0.349725991     -0.303487003       1265.30579       1.54991150    
   1.31339800      0.349945009       0.00000000       1265.30579       1.54991150    
   1.26751196      0.501209974       0.00000000       1265.30579       1.54991150    
   1.26341999      0.500032008     -0.303494006       1265.30579       1.54991150    
   1.26751196      0.501209974       0.00000000       1705.31482       1.55033863    
   1.19658697      0.643051028       0.00000000       1705.31482       1.55033863    
   1.19583094      0.642783999     -0.303505003       1705.31482       1.55033863    
   1.26341999      0.500032008     -0.303494006       1705.31482       1.55033863    
   1.19583094      0.642783999     -0.303505003       1531.69006       1.55193424    
   1.11495602      0.778467000     -0.303483993       1531.69006       1.55193424    
   1.11731696      0.779847026     -0.606999993       1531.69006       1.55193424    
   1.19653296      0.643149972     -0.606999993       1531.69006       1.55193424    
   1.19583094      0.642783999     -0.303505003       1236.33081       1.55199361    
   1.19653296      0.643149972     -0.606999993       1236.33081       1.55199361    
   1.26736605      0.501691997     -0.606999993       1236.33081       1.55199361    
   1.26341999      0.500032008     -0.303494006       1236.33081       1.55199361    
   1.19583094      0.642783999     -0.303505003       2113.77539       1.55043161    
   1.19658697      0.643051028       0.00000000       2113.77539       1.55043161    
   1.11705506      0.780165970       0.00000000       2113.77539       1.55043161    
   1.11495602      0.778467000     -0.303483993       2113.77539       1.55043161    
   1.11705506      0.780165970       0.00000000       2492.35864       1.55060101    
   1.01674199      0.902397990       0.00000000       2492.35864       1.55060101    
   1.01591504      0.901737988     -0.303478003       2492.35864       1.55060101    
   1.11495602      0.778467000     -0.303483993       2492.35864       1.55060101    
   1.01591504      0.901737988     -0.303478003       2064.51514       1.55212116    
  0.904204011       1.01322901     -0.303456992       2064.51514       1.55212116    
  0.905143023       1.01448905     -0.606999993       2064.51514       1.55212116    
   1.01659799      0.902572989     -0.606999993       2064.51514       1.55212116    
   1.01591504      0.901737988     -0.303478003       1812.64661       1.55207026    
   1.01659799      0.902572989     -0.606999993       1812.64661       1.55207026    
   1.11731696      0.779847026     -0.606999993       1812.64661       1.55207026    
   1.11495602      0.778467000     -0.303483993       1812.64661       1.55207026    
   1.01591504      0.901737988     -0.303478003       2830.16528       1.55071521    
   1.01674199      0.902397990       0.00000000       2830.16528       1.55071521    
  0.905318975       1.01434398       0.00000000       2830.16528       1.55071521    
  0.904204011       1.01322901     -0.303456992       2830.16528       1.55071521    
  0.905318975       1.01434398       0.00000000       3147.84326       1.55065322    
  0.782918990       1.11479497       0.00000000       3147.84326       1.55065322    
  0.780644000       1.11195600     -0.303485006       3147.84326       1.55065322    
  0.904204011       1.01322901     -0.303456992       3147.84326       1.55065322    
  0.780644000       1.11195600     -0.303485006       2486.66284       1.55217564    
  0.645825028       1.19414902     -0.303514004       2486.66284       1.55217564    
  0.646153986       1.19492805     -0.606999993       2486.66284       1.55217564    
  0.782611012       1.11504900     -0.606999993       2486.66284       1.55217564    
  0.780644000       1.11195600     -0.303485006       2288.78882       1.55210984    
  0.782611012       1.11504900     -0.606999993       2288.78882       1.55210984    
  0.905143023       1.01448905     -0.606999993       2288.78882       1.55210984    
  0.904204011       1.01322901     -0.303456992       2288.78882       1.55210984    
  0.780644000       1.11195600     -0.303485006       3416.00537       1.55067873    
  0.782918990       1.11479497       0.00000000       3416.00537       1.55067873    
  0.646345019       1.19482601       0.00000000       3416.00537       1.55067873    
  0.645825028       1.19414902     -0.303514004       3416.00537       1.55067873    
  0.646345019       1.19482601       0.00000000       3643.07764       1.55055571    
  0.504974008       1.26637006       0.00000000       3643.07764       1.55055571    
  0.503772974       1.26314998     -0.303521991       3643.07764       1.55055571    
  0.645825028       1.19414902     -0.303514004       3643.07764       1.55055571    
  0.503772974       1.26314998     -0.303521991       2776.56323       1.55211484    
  0.353130996       1.31116498     -0.303510994       2776.56323       1.55211484    
  0.353300005       1.31237996     -0.606999993       2776.56323       1.55211484    
  0.505183995       1.26630700     -0.606999993       2776.56323       1.55211484    
  0.503772974       1.26314998     -0.303521991       2647.23706       1.55210996    
  0.505183995       1.26630700     -0.606999993       2647.23706       1.55210996    
  0.646153986       1.19492805     -0.606999993       2647.23706       1.55210996    
  0.645825028       1.19414902     -0.303514004       2647.23706       1.55210996    
  0.503772974       1.26314998     -0.303521991       3816.10693       1.55050230    
  0.504974008       1.26637006       0.00000000       3816.10693       1.55050230    
  0.353493989       1.31232095       0.00000000       3816.10693       1.55050230    
  0.353130996       1.31116498     -0.303510994       3816.10693       1.55050230    
  0.353493989       1.31232095       0.00000000       3938.49805       1.55055606    
  0.199064001       1.34539402       0.00000000       3938.49805       1.55055606    
  0.198755994       1.34360003     -0.303496003       3938.49805       1.55055606    
  0.353130996       1.31116498     -0.303510994       3938.49805       1.55055606    
  0.198755994       1.34360003     -0.303496003       2918.60474       1.55207455    
   4.12769988E-02   1.35817802     -0.303508013       2918.60474       1.55207455    
   4.12410013E-02   1.36093795     -0.606999993       2918.60474       1.55207455    
  0.199025005       1.34539795     -0.606999993       2918.60474       1.55207455    
  0.198755994       1.34360003     -0.303496003       2866.75244       1.55211747    
  0.199025005       1.34539795     -0.606999993       2866.75244       1.55211747    
  0.353300005       1.31237996     -0.606999993       2866.75244       1.55211747    
  0.353130996       1.31116498     -0.303510994       2866.75244       1.55211747    
  0.198755994       1.34360003     -0.303496003       4018.15527       1.55048120    
  0.199064001       1.34539402       0.00000000       4018.15527       1.55048120    
   4.17769998E-02   1.36088502       0.00000000       4018.15527       1.55048120    
   4.12769988E-02   1.35817802     -0.303508013       4018.15527       1.55048120    
   4.17769998E-02   1.36088502       0.00000000       4053.57764       1.55051208    
 -0.116410002       1.35353506       0.00000000       4053.57764       1.55051208    
 -0.116471998       1.35271096     -0.303496987       4053.57764       1.55051208    
   4.12769988E-02   1.35817802     -0.303508013       4053.57764       1.55051208    
 -0.116471998       1.35271096     -0.303496987       2907.10571       1.55198431    
 -0.273027003       1.33229196     -0.303496003       2907.10571       1.55198431    
 -0.273876995       1.33647299     -0.606999993       2907.10571       1.55198431    
 -0.116722003       1.35350394     -0.606999993       2907.10571       1.55198431    
 -0.116471998       1.35271096     -0.303496987       2933.40771       1.55209327    
 -0.116722003       1.35350394     -0.606999993       2933.40771       1.55209327    
   4.12410013E-02   1.36093795     -0.606999993       2933.40771       1.55209327    
   4.12769988E-02   1.35817802     -0.303508013       2933.40771       1.55209327    
 -0.116471998       1.35271096     -0.303496987       4036.57544       1.55038965    
 -0.116410002       1.35353506       0.00000000       4036.57544       1.55038965    
 -0.274069011       1.33641505       0.00000000       4036.57544       1.55038965    
 -0.273027003       1.33229196     -0.303496003       4036.57544       1.55038965    
 -0.274069011       1.33641505       0.00000000       3941.59497       1.55036294    
 -0.425588995       1.29045200       0.00000000       3941.59497       1.55036294    
 -0.425258011       1.28953803     -0.303507000       3941.59497       1.55036294    
 -0.273027003       1.33229196     -0.303496003       3941.59497       1.55036294    
 -0.425258011       1.28953803     -0.303507000       2733.51392       1.55210829    
 -0.572302997       1.23206902     -0.303485990       2733.51392       1.55210829    
 -0.573064029       1.23399496     -0.606999993       2733.51392       1.55210829    
 -0.425651014       1.29043305     -0.606999993       2733.51392       1.55210829    
 -0.425258011       1.28953803     -0.303507000       2838.08643       1.55198050    
 -0.425651014       1.29043305     -0.606999993       2838.08643       1.55198050    
 -0.273876995       1.33647299     -0.606999993       2838.08643       1.55198050    
 -0.273027003       1.33229196     -0.303496003       2838.08643       1.55198050    
 -0.425258011       1.28953803     -0.303507000       3781.23584       1.55068099    
 -0.425588995       1.29045200       0.00000000       3781.23584       1.55068099    
 -0.573195994       1.23392498       0.00000000       3781.23584       1.55068099    
 -0.572302997       1.23206902     -0.303485990       3781.23584       1.55068099    
 -0.573195994       1.23392498       0.00000000       3576.35547       1.55089521    
 -0.712655008       1.15938199       0.00000000       3576.35547       1.55089521    
 -0.711889029       1.15749002     -0.303496003       3576.35547       1.55089521    
 -0.572302997       1.23206902     -0.303485990       3576.35547       1.55089521    
 -0.711889029       1.15749002     -0.303496003       2405.33276       1.55222344    
 -0.840825975       1.06629205     -0.303485990       2405.33276       1.55222344    
 -0.841368973       1.06682706     -0.606999993       2405.33276       1.55222344    
 -0.712980986       1.15920806     -0.606999993       2405.33276       1.55222344    
 -0.711889029       1.15749002     -0.303496003       2587.05688       1.55214429    
 -0.712980986       1.15920806     -0.606999993       2587.05688       1.55214429    
 -0.573064029       1.23399496     -0.606999993       2587.05688       1.55214429    
 -0.572302997       1.23206902     -0.303485990       2587.05688       1.55214429    
 -0.711889029       1.15749002     -0.303496003       3311.96777       1.55113876    
 -0.712655008       1.15938199       0.00000000       3311.96777       1.55113876    
 -0.841165006       1.06699395       0.00000000       3311.96777       1.55113876    
 -0.840825975       1.06629205     -0.303485990       3311.96777       1.55113876    
 -0.841165006       1.06699395       0.00000000       3015.77441       1.55111504    
 -0.963320017      0.966744006       0.00000000       3015.77441       1.55111504    
 -0.960084975      0.962615013     -0.303470999       3015.77441       1.55111504    
 -0.840825975       1.06629205     -0.303485990       3015.77441       1.55111504    
 -0.960084975      0.962615013     -0.303470999       1947.04614       1.55219042    
  -1.06383705      0.843237996     -0.303481996       1947.04614       1.55219042    
  -1.06481802      0.843816996     -0.606999993       1947.04614       1.55219042    
 -0.963873982      0.966289997     -0.606999993       1947.04614       1.55219042    
 -0.960084975      0.962615013     -0.303470999       2194.96021       1.55230200    
 -0.963873982      0.966289997     -0.606999993       2194.96021       1.55230200    
 -0.841368973       1.06682706     -0.606999993       2194.96021       1.55230200    
 -0.840825975       1.06629205     -0.303485990       2194.96021       1.55230200    
 -0.960084975      0.962615013     -0.303470999       2680.28979       1.55097270    
 -0.963320017      0.966744006       0.00000000       2680.28979       1.55097270    
  -1.06464398      0.844029009       0.00000000       2680.28979       1.55097270    
  -1.06383705      0.843237996     -0.303481996       2680.28979       1.55097270    
  -1.06464398      0.844029009       0.00000000       2313.53345       1.55107343    
  -1.15769398      0.715813994       0.00000000       2313.53345       1.55107343    
  -1.15564799      0.714680016     -0.303483993       2313.53345       1.55107343    
  -1.06383705      0.843237996     -0.303481996       2313.53345       1.55107343    
  -1.15564799      0.714680016     -0.303483993       1393.73523       1.55217969    
  -1.23108304      0.575536013     -0.303514004       1393.73523       1.55217969    
  -1.23232996      0.576179981     -0.606999993       1393.73523       1.55217969    
  -1.15756094      0.716063023     -0.606999993       1393.73523       1.55217969    
  -1.15564799      0.714680016     -0.303483993       1684.35510       1.55226088    
  -1.15756094      0.716063023     -0.606999993       1684.35510       1.55226088    
  -1.06481802      0.843816996     -0.606999993       1684.35510       1.55226088    
  -1.06383705      0.843237996     -0.303481996       1684.35510       1.55226088    
  -1.15564799      0.714680016     -0.303483993       1922.68176       1.55085659    
  -1.15769398      0.715813994       0.00000000       1922.68176       1.55085659    
  -1.23224795      0.576331973       0.00000000       1922.68176       1.55085659    
  -1.23108304      0.575536013     -0.303514004       1922.68176       1.55085659    
  -1.23224795      0.576331973       0.00000000       1497.88611       1.55075169    
  -1.28948605      0.428772002       0.00000000       1497.88611       1.55075169    
  -1.28842103      0.428404987     -0.303512990       1497.88611       1.55075169    
  -1.23108304      0.575536013     -0.303514004       1497.88611       1.55075169    
  -1.28842103      0.428404987     -0.303512990       762.410156       1.55205405    
  -1.33082402      0.275959998     -0.303492010       762.410156       1.55205405    
  -1.33550000      0.277083993     -0.606999993       762.410156       1.55205405    