 VARIABLES="X" "Y" "Z" "abs(p) (Pa)" "angle(p) (rad)"
ZONE N=   2720,E =    2069, F=FEPOINT, ET=QUADRILATERAL
 -0.767116010      -1.12776399       0.00000000       239.288712       1.55510128    
 -0.769354999      -1.12002099     -0.303523988       239.288712       1.55510128    
 -0.896136999      -1.02028203     -0.303463012       239.288712       1.55510128    
 -0.894908011      -1.02288902       0.00000000       239.288712       1.55510128    
 -0.767116010      -1.12776399       0.00000000       203.632767       1.54758835    
 -0.630888999      -1.20308697       0.00000000       203.632767       1.54758835    
 -0.635528028      -1.19958198     -0.303541005       203.632767       1.54758835    
 -0.769354999      -1.12002099     -0.303523988       203.632767       1.54758835    
 -0.635528028      -1.19958198     -0.303541005       151.295334       1.53589129    
 -0.495362997      -1.26606500     -0.303519011       151.295334       1.53589129    
 -0.499298006      -1.26809204     -0.606999993       151.295334       1.53589129    
 -0.640147984      -1.19813800     -0.606998026       151.295334       1.53589129    
 -0.635528028      -1.19958198     -0.303541005       187.932846       1.54899621    
 -0.640147984      -1.19813800     -0.606998026       187.932846       1.54899621    
 -0.777105987      -1.11956596     -0.606999993       187.932846       1.54899621    
 -0.769354999      -1.12002099     -0.303523988       187.932846       1.54899621    
 -0.635528028      -1.19958198     -0.303541005       156.088821       1.53312278    
 -0.630888999      -1.20308697       0.00000000       156.088821       1.53312278    
 -0.494486004      -1.26955199       0.00000000       156.088821       1.53312278    
 -0.495362997      -1.26606500     -0.303519011       156.088821       1.53312278    
 -0.494486004      -1.26955199       0.00000000       117.584015       1.51177227    
 -0.346311986      -1.31449997       0.00000000       117.584015       1.51177227    
 -0.346753001      -1.31307304     -0.303510010       117.584015       1.51177227    
 -0.495362997      -1.26606500     -0.303519011       117.584015       1.51177227    
 -0.346753001      -1.31307304     -0.303510010       74.2221680       1.46589267    
 -0.193608001      -1.34425998     -0.303494990       74.2221680       1.46589267    
 -0.195028007      -1.34579206     -0.606999993       74.2221680       1.46589267    
 -0.348751009      -1.31376004     -0.606999993       74.2221680       1.46589267    
 -0.346753001      -1.31307304     -0.303510010       113.896416       1.51382542    
 -0.348751009      -1.31376004     -0.606999993       113.896416       1.51382542    
 -0.499298006      -1.26809204     -0.606999993       113.896416       1.51382542    
 -0.495362997      -1.26606500     -0.303519011       113.896416       1.51382542    
 -0.346753001      -1.31307304     -0.303510010       76.5907288       1.46522295    
 -0.346311986      -1.31449997       0.00000000       76.5907288       1.46522295    
 -0.193381995      -1.34595394       0.00000000       76.5907288       1.46522295    
 -0.193608001      -1.34425998     -0.303494990       76.5907288       1.46522295    
 -0.193381995      -1.34595394       0.00000000       44.1647682       1.36275709    
  -3.75179984E-02  -1.36130500       0.00000000       44.1647682       1.36275709    
  -3.73950005E-02  -1.35827899     -0.303512007       44.1647682       1.36275709    
 -0.193608001      -1.34425998     -0.303494990       44.1647682       1.36275709    
  -3.73950005E-02  -1.35827899     -0.303512007       13.9974909     -0.732653439    
  0.119547002      -1.35239303     -0.303498000       13.9974909     -0.732653439    
  0.119135000      -1.35326600     -0.606999993       13.9974909     -0.732653439    
  -3.82840000E-02  -1.36122894     -0.606998980       13.9974909     -0.732653439    
  -3.73950005E-02  -1.35827899     -0.303512007       32.9233665       1.29085970    
  -3.82840000E-02  -1.36122894     -0.606998980       32.9233665       1.29085970    
 -0.195028007      -1.34579206     -0.606999993       32.9233665       1.29085970    
 -0.193608001      -1.34425998     -0.303494990       32.9233665       1.29085970    
  -3.73950005E-02  -1.35827899     -0.303512007       10.3101044       7.65068084E-02
  -3.75179984E-02  -1.36130500       0.00000000       10.3101044       7.65068084E-02
  0.119788997      -1.35320199       0.00000000       10.3101044       7.65068084E-02
  0.119547002      -1.35239303     -0.303498000       10.3101044       7.65068084E-02
  0.119788997      -1.35320199       0.00000000       45.5603333      -1.31600964    
  0.276576012      -1.33565402       0.00000000       45.5603333      -1.31600964    
  0.275435001      -1.33191597     -0.303496003       45.5603333      -1.31600964    
  0.119547002      -1.35239303     -0.303498000       45.5603333      -1.31600964    
  0.275435001      -1.33191597     -0.303496003       85.0821686      -1.41819668    
  0.427076995      -1.28898001     -0.303507000       85.0821686      -1.41819668    
  0.427242011      -1.28995001     -0.606999993       85.0821686      -1.41819668    
  0.275831014      -1.33588004     -0.606999993       85.0821686      -1.41819668    
  0.275435001      -1.33191597     -0.303496003       46.0496063      -1.31457794    
  0.275831014      -1.33588004     -0.606999993       46.0496063      -1.31457794    
  0.119135000      -1.35326600     -0.606999993       46.0496063      -1.31457794    
  0.119547002      -1.35239303     -0.303498000       46.0496063      -1.31457794    
  0.275435001      -1.33191597     -0.303496003       86.1652832      -1.42400670    
  0.276576012      -1.33565402       0.00000000       86.1652832      -1.42400670    
  0.427509993      -1.28986895       0.00000000       86.1652832      -1.42400670    
  0.427076995      -1.28898001     -0.303507000       86.1652832      -1.42400670    
  0.427509993      -1.28986895       0.00000000       125.796280      -1.46165156    
  0.574636996      -1.23315501       0.00000000       125.796280      -1.46165156    
  0.573706985      -1.23136795     -0.303485990       125.796280      -1.46165156    
  0.427076995      -1.28898001     -0.303507000       125.796280      -1.46165156    
  0.573706985      -1.23136795     -0.303485990       162.256470      -1.47575474    
  0.712854981      -1.15688002     -0.303496987       162.256470      -1.47575474    
  0.713809013      -1.15876603     -0.606999993       162.256470      -1.47575474    
  0.574283004      -1.23334301     -0.606999993       162.256470      -1.47575474    
  0.573706985      -1.23136795     -0.303485990       124.561836      -1.45657492    
  0.574283004      -1.23334301     -0.606999993       124.561836      -1.45657492    
  0.427242011      -1.28995001     -0.606999993       124.561836      -1.45657492    
  0.427076995      -1.28898001     -0.303507000       124.561836      -1.45657492    
  0.573706985      -1.23136795     -0.303485990       165.059174      -1.48123109    
  0.574636996      -1.23315501       0.00000000       165.059174      -1.48123109    
  0.713741004      -1.15880203       0.00000000       165.059174      -1.48123109    
  0.712854981      -1.15688002     -0.303496987       165.059174      -1.48123109    
  0.713741004      -1.15880203       0.00000000       201.488693      -1.49254465    
  0.841937006      -1.06636095       0.00000000       201.488693      -1.49254465    
  0.841498017      -1.06573403     -0.303485990       201.488693      -1.49254465    
  0.712854981      -1.15688002     -0.303496987       201.488693      -1.49254465    
  0.841498017      -1.06573403     -0.303485990       228.439255      -1.49389195    
  0.960639000     -0.962104976     -0.303470999       228.439255      -1.49389195    
  0.964356005     -0.965893984     -0.606999993       228.439255      -1.49389195    
  0.841796994      -1.06647599     -0.606999993       228.439255      -1.49389195    
  0.841498017      -1.06573403     -0.303485990       195.768311      -1.48644602    
  0.841796994      -1.06647599     -0.606999993       195.768311      -1.48644602    
  0.713809013      -1.15876603     -0.606999993       195.768311      -1.48644602    
  0.712854981      -1.15688002     -0.303496987       195.768311      -1.48644602    
  0.841498017      -1.06573403     -0.303485990       238.651245      -1.50064719    
  0.841937006      -1.06636095       0.00000000       238.651245      -1.50064719    
  0.963932991     -0.966242015       0.00000000       238.651245      -1.50064719    
  0.960639000     -0.962104976     -0.303470999       238.651245      -1.50064719    
  0.963932991     -0.966242015       0.00000000       268.289368      -1.50539565    
   1.06506598     -0.843514979       0.00000000       268.289368      -1.50539565    
   1.06428695     -0.842682004     -0.303481996       268.289368      -1.50539565    
  0.960639000     -0.962104976     -0.303470999       268.289368      -1.50539565    
   1.06428695     -0.842682004     -0.303481996       289.410095      -1.50389349    
   1.15591598     -0.714210987     -0.303485006       289.410095      -1.50389349    
   1.15788805     -0.715448976     -0.606999993       289.410095      -1.50389349    
   1.06537795     -0.843134999     -0.606999993       289.410095      -1.50389349    
   1.06428695     -0.842682004     -0.303481996       256.940155      -1.49888825    
   1.06537795     -0.843134999     -0.606999993       256.940155      -1.49888825    
  0.964356005     -0.965893984     -0.606999993       256.940155      -1.49888825    
  0.960639000     -0.962104976     -0.303470999       256.940155      -1.49888825    
   1.06428695     -0.842682004     -0.303481996       295.227722      -1.50889957    
   1.06506598     -0.843514979       0.00000000       295.227722      -1.50889957    
   1.15792501     -0.715381980       0.00000000       295.227722      -1.50889957    
   1.15591598     -0.714210987     -0.303485006       295.227722      -1.50889957    
   1.15792501     -0.715381980       0.00000000       317.418976      -1.51128006    
   1.23237598     -0.576093972       0.00000000       317.418976      -1.51128006    
   1.23120904     -0.575251997     -0.303514004       317.418976      -1.51128006    
   1.15591598     -0.714210987     -0.303485006       317.418976      -1.51128006    
   1.23120904     -0.575251997     -0.303514004       328.018097      -1.50802445    
   1.28844094     -0.428344995     -0.303512990       328.018097      -1.50802445    
   1.28952503     -0.428642988     -0.606999993       328.018097      -1.50802445    
   1.23252702     -0.575810015     -0.606999993       328.018097      -1.50802445    
   1.23120904     -0.575251997     -0.303514004       310.744843      -1.50627303    
   1.23252702     -0.575810015     -0.606999993       310.744843      -1.50627303    
   1.15788805     -0.715448976     -0.606999993       310.744843      -1.50627303    
   1.15591598     -0.714210987     -0.303485006       310.744843      -1.50627303    
   1.23120904     -0.575251997     -0.303514004       341.379181      -1.51383293    
   1.23237598     -0.576093972       0.00000000       341.379181      -1.51383293    
   1.28947699     -0.428801000       0.00000000       341.379181      -1.51383293    
   1.28844094     -0.428344995     -0.303512990       341.379181      -1.51383293    
   1.28947699     -0.428801000       0.00000000       351.411133      -1.51453900    
   1.33532202     -0.277671993       0.00000000       351.411133      -1.51453900    
   1.33076501     -0.276203990     -0.303492010       351.411133      -1.51453900    
   1.28844094     -0.428344995     -0.303512990       351.411133      -1.51453900    
   1.33076501     -0.276203990     -0.303492010       359.990540      -1.51141155    
   1.35229194     -0.119709998     -0.303514004       359.990540      -1.51141155    
   1.35321999     -0.119608998     -0.606999993       359.990540      -1.51141155    
   1.33549094     -0.277112991     -0.606999993       359.990540      -1.51141155    
   1.33076501     -0.276203990     -0.303492010       340.467926      -1.50910199    
   1.33549094     -0.277112991     -0.606999993       340.467926      -1.50910199    
   1.28952503     -0.428642988     -0.606999993       340.467926      -1.50910199    
   1.28844094     -0.428344995     -0.303512990       340.467926      -1.50910199    
   1.33076501     -0.276203990     -0.303492010       352.970703      -1.51438975    
   1.33532202     -0.277671993       0.00000000       352.970703      -1.51438975    
   1.35319102     -0.119900003       0.00000000       352.970703      -1.51438975    
   1.35229194     -0.119709998     -0.303514004       352.970703      -1.51438975    
   1.35319102     -0.119900003       0.00000000       356.506958      -1.51469696    
   1.36124396       3.81390005E-02   0.00000000       356.506958      -1.51469696    
   1.35858905       3.79349999E-02 -0.303501010       356.506958      -1.51469696    
   1.35229194     -0.119709998     -0.303514004       356.506958      -1.51469696    
   1.35858905       3.79349999E-02 -0.303501010       354.439880      -1.51057220    
   1.34464097      0.195331007     -0.303496003       354.439880      -1.51057220    
   1.34573400      0.195616007     -0.606999993       354.439880      -1.51057220    
   1.36126804       3.78950015E-02 -0.606999993       354.439880      -1.51057220    
   1.35858905       3.79349999E-02 -0.303501010       356.568054      -1.51078570    
   1.36126804       3.78950015E-02 -0.606999993       356.568054      -1.51078570    
   1.35321999     -0.119608998     -0.606999993       356.568054      -1.51078570    
   1.35229194     -0.119709998     -0.303514004       356.568054      -1.51078570    
   1.35858905       3.79349999E-02 -0.303501010       366.676941      -1.51601720    
   1.36124396       3.81390005E-02   0.00000000       366.676941      -1.51601720    
   1.34575403      0.195406005       0.00000000       366.676941      -1.51601720    
   1.34464097      0.195331007     -0.303496003       366.676941      -1.51601720    
   1.34575403      0.195406005       0.00000000       359.800293      -1.51549065    
   1.31339800      0.349945009       0.00000000       359.800293      -1.51549065    
   1.31216300      0.349725991     -0.303487003       359.800293      -1.51549065    
   1.34464097      0.195331007     -0.303496003       359.800293      -1.51549065    
   1.31216300      0.349725991     -0.303487003       333.473419      -1.50860739    
   1.26341999      0.500032008     -0.303494006       333.473419      -1.50860739    
   1.26736605      0.501691997     -0.606999993       333.473419      -1.50860739    
   1.31333196      0.350163996     -0.606999993       333.473419      -1.50860739    
   1.31216300      0.349725991     -0.303487003       348.051941      -1.51009023    
   1.31333196      0.350163996     -0.606999993       348.051941      -1.51009023    
   1.34573400      0.195616007     -0.606999993       348.051941      -1.51009023    
   1.34464097      0.195331007     -0.303496003       348.051941      -1.51009023    
   1.31216300      0.349725991     -0.303487003       347.756958      -1.51447237    
   1.31339800      0.349945009       0.00000000       347.756958      -1.51447237    
   1.26751196      0.501209974       0.00000000       347.756958      -1.51447237    
   1.26341999      0.500032008     -0.303494006       347.756958      -1.51447237    
   1.26751196      0.501209974       0.00000000       319.808258      -1.51135695    
   1.19658697      0.643051028       0.00000000       319.808258      -1.51135695    
   1.19583094      0.642783999     -0.303505003       319.808258      -1.51135695    
   1.26341999      0.500032008     -0.303494006       319.808258      -1.51135695    
   1.19583094      0.642783999     -0.303505003       306.404236      -1.50656950    
   1.11495602      0.778467000     -0.303483993       306.404236      -1.50656950    
   1.11731696      0.779847026     -0.606999993       306.404236      -1.50656950    
   1.19653296      0.643149972     -0.606999993       306.404236      -1.50656950    
   1.19583094      0.642783999     -0.303505003       317.764709      -1.50712013    
   1.19653296      0.643149972     -0.606999993       317.764709      -1.50712013    
   1.26736605      0.501691997     -0.606999993       317.764709      -1.50712013    
   1.26341999      0.500032008     -0.303494006       317.764709      -1.50712013    
   1.19583094      0.642783999     -0.303505003       298.575714      -1.50912380    
   1.19658697      0.643051028       0.00000000       298.575714      -1.50912380    
   1.11705506      0.780165970       0.00000000       298.575714      -1.50912380    
   1.11495602      0.778467000     -0.303483993       298.575714      -1.50912380    
   1.11705506      0.780165970       0.00000000       273.831696      -1.50604320    
   1.01674199      0.902397990       0.00000000       273.831696      -1.50604320    
   1.01591504      0.901737988     -0.303478003       273.831696      -1.50604320    
   1.11495602      0.778467000     -0.303483993       273.831696      -1.50604320    
   1.01591504      0.901737988     -0.303478003       244.726257      -1.49764895    
  0.904204011       1.01322901     -0.303456992       244.726257      -1.49764895    
  0.905143023       1.01448905     -0.606999993       244.726257      -1.49764895    
   1.01659799      0.902572989     -0.606999993       244.726257      -1.49764895    
   1.01591504      0.901737988     -0.303478003       272.390625      -1.50175023    
   1.01659799      0.902572989     -0.606999993       272.390625      -1.50175023    
   1.11731696      0.779847026     -0.606999993       272.390625      -1.50175023    
   1.11495602      0.778467000     -0.303483993       272.390625      -1.50175023    
   1.01591504      0.901737988     -0.303478003       244.806992      -1.50166118    
   1.01674199      0.902397990       0.00000000       244.806992      -1.50166118    
  0.905318975       1.01434398       0.00000000       244.806992      -1.50166118    
  0.904204011       1.01322901     -0.303456992       244.806992      -1.50166118    
  0.905318975       1.01434398       0.00000000       221.563995      -1.49794149    
  0.782918990       1.11479497       0.00000000       221.563995      -1.49794149    
  0.780644000       1.11195600     -0.303485006       221.563995      -1.49794149    
  0.904204011       1.01322901     -0.303456992       221.563995      -1.49794149    
  0.780644000       1.11195600     -0.303485006       179.842239      -1.48284662    
  0.645825028       1.19414902     -0.303514004       179.842239      -1.48284662    
  0.646153986       1.19492805     -0.606999993       179.842239      -1.48284662    
  0.782611012       1.11504900     -0.606999993       179.842239      -1.48284662    
  0.780644000       1.11195600     -0.303485006       213.498199      -1.49163222    
  0.782611012       1.11504900     -0.606999993       213.498199      -1.49163222    
  0.905143023       1.01448905     -0.606999993       213.498199      -1.49163222    
  0.904204011       1.01322901     -0.303456992       213.498199      -1.49163222    
  0.780644000       1.11195600     -0.303485006       187.936813      -1.48993266    
  0.782918990       1.11479497       0.00000000       187.936813      -1.48993266    
  0.646345019       1.19482601       0.00000000       187.936813      -1.48993266    
  0.645825028       1.19414902     -0.303514004       187.936813      -1.48993266    
  0.646345019       1.19482601       0.00000000       140.090622      -1.47057438    
  0.504974008       1.26637006       0.00000000       140.090622      -1.47057438    
  0.503772974       1.26314998     -0.303521991       140.090622      -1.47057438    
  0.645825028       1.19414902     -0.303514004       140.090622      -1.47057438    
  0.503772974       1.26314998     -0.303521991       105.943222      -1.44396806    
  0.353130996       1.31116498     -0.303510994       105.943222      -1.44396806    
  0.353300005       1.31237996     -0.606999993       105.943222      -1.44396806    
  0.505183995       1.26630700     -0.606999993       105.943222      -1.44396806    
  0.503772974       1.26314998     -0.303521991       143.313660      -1.46867371    
  0.505183995       1.26630700     -0.606999993       143.313660      -1.46867371    
  0.646153986       1.19492805     -0.606999993       143.313660      -1.46867371    
  0.645825028       1.19414902     -0.303514004       143.313660      -1.46867371    
  0.503772974       1.26314998     -0.303521991       100.562599      -1.44178820    
  0.504974008       1.26637006       0.00000000       100.562599      -1.44178820    
  0.353493989       1.31232095       0.00000000       100.562599      -1.44178820    
  0.353130996       1.31116498     -0.303510994       100.562599      -1.44178820    
  0.353493989       1.31232095       0.00000000       58.5260201      -1.36814249    
  0.199064001       1.34539402       0.00000000       58.5260201      -1.36814249    
  0.198755994       1.34360003     -0.303496003       58.5260201      -1.36814249    
  0.353130996       1.31116498     -0.303510994       58.5260201      -1.36814249    
  0.198755994       1.34360003     -0.303496003       17.3071823     -0.906635344    
   4.12769988E-02   1.35817802     -0.303508013       17.3071823     -0.906635344    
   4.12410013E-02   1.36093795     -0.606999993       17.3071823     -0.906635344    
  0.199025005       1.34539795     -0.606999993       17.3071823     -0.906635344    
  0.198755994       1.34360003     -0.303496003       65.5946274      -1.38531256    
  0.199025005       1.34539795     -0.606999993       65.5946274      -1.38531256    
  0.353300005       1.31237996     -0.606999993       65.5946274      -1.38531256    
  0.353130996       1.31116498     -0.303510994       65.5946274      -1.38531256    
  0.198755994       1.34360003     -0.303496003       17.6768208     -0.927289665    
  0.199064001       1.34539402       0.00000000       17.6768208     -0.927289665    
   4.17769998E-02   1.36088502       0.00000000       17.6768208     -0.927289665    
   4.12769988E-02   1.35817802     -0.303508013       17.6768208     -0.927289665    
   4.17769998E-02   1.36088502       0.00000000       29.6169815       1.24632585    
 -0.116410002       1.35353506       0.00000000       29.6169815       1.24632585    
 -0.116471998       1.35271096     -0.303496987       29.6169815       1.24632585    
   4.12769988E-02   1.35817802     -0.303508013       29.6169815       1.24632585    
 -0.116471998       1.35271096     -0.303496987       75.6019821       1.46556699    
 -0.273027003       1.33229196     -0.303496003       75.6019821       1.46556699    
 -0.273876995       1.33647299     -0.606999993       75.6019821       1.46556699    
 -0.116722003       1.35350394     -0.606999993       75.6019821       1.46556699    
 -0.116471998       1.35271096     -0.303496987       29.5075512       1.24856269    
 -0.116722003       1.35350394     -0.606999993       29.5075512       1.24856269    
   4.12410013E-02   1.36093795     -0.606999993       29.5075512       1.24856269    
   4.12769988E-02   1.35817802     -0.303508013       29.5075512       1.24856269    
 -0.116471998       1.35271096     -0.303496987       72.4284515       1.45667541    
 -0.116410002       1.35353506       0.00000000       72.4284515       1.45667541    
 -0.274069011       1.33641505       0.00000000       72.4284515       1.45667541    
 -0.273027003       1.33229196     -0.303496003       72.4284515       1.45667541    
 -0.274069011       1.33641505       0.00000000       113.773476       1.50817442    
 -0.425588995       1.29045200       0.00000000       113.773476       1.50817442    
 -0.425258011       1.28953803     -0.303507000       113.773476       1.50817442    
 -0.273027003       1.33229196     -0.303496003       113.773476       1.50817442    
 -0.425258011       1.28953803     -0.303507000       155.748566       1.53615272    
 -0.572302997       1.23206902     -0.303485990       155.748566       1.53615272    
 -0.573064029       1.23399496     -0.606999993       155.748566       1.53615272    
 -0.425651014       1.29043305     -0.606999993       155.748566       1.53615272    
 -0.425258011       1.28953803     -0.303507000       115.571854       1.51307464    
 -0.425651014       1.29043305     -0.606999993       115.571854       1.51307464    
 -0.273876995       1.33647299     -0.606999993       115.571854       1.51307464    
 -0.273027003       1.33229196     -0.303496003       115.571854       1.51307464    
 -0.425258011       1.28953803     -0.303507000       155.806885       1.53235161    
 -0.425588995       1.29045200       0.00000000       155.806885       1.53235161    
 -0.573195994       1.23392498       0.00000000       155.806885       1.53235161    
 -0.572302997       1.23206902     -0.303485990       155.806885       1.53235161    
 -0.573195994       1.23392498       0.00000000       195.380035       1.54559493    
 -0.712655008       1.15938199       0.00000000       195.380035       1.54559493    
 -0.711889029       1.15749002     -0.303496003       195.380035       1.54559493    
 -0.572302997       1.23206902     -0.303485990       195.380035       1.54559493    
 -0.711889029       1.15749002     -0.303496003       227.064896       1.55717003    
 -0.840825975       1.06629205     -0.303485990       227.064896       1.55717003    
 -0.841368973       1.06682706     -0.606999993       227.064896       1.55717003    
 -0.712980986       1.15920806     -0.606999993       227.064896       1.55717003    
 -0.711889029       1.15749002     -0.303496003       191.836349       1.54884422    
 -0.712980986       1.15920806     -0.606999993       191.836349       1.54884422    
 -0.573064029       1.23399496     -0.606999993       191.836349       1.54884422    
 -0.572302997       1.23206902     -0.303485990       191.836349       1.54884422    
 -0.711889029       1.15749002     -0.303496003       231.858185       1.55381417    
 -0.712655008       1.15938199       0.00000000       231.858185       1.55381417    
 -0.841165006       1.06699395       0.00000000       231.858185       1.55381417    
 -0.840825975       1.06629205     -0.303485990       231.858185       1.55381417    
 -0.841165006       1.06699395       0.00000000       266.016205       1.55950558    
 -0.963320017      0.966744006       0.00000000       266.016205       1.55950558    
 -0.960084975      0.962615013     -0.303470999       266.016205       1.55950558    
 -0.840825975       1.06629205     -0.303485990       266.016205       1.55950558    
 -0.960084975      0.962615013     -0.303470999       289.277344       1.56691694    
  -1.06383705      0.843237996     -0.303481996       289.277344       1.56691694    
  -1.06481802      0.843816996     -0.606999993       289.277344       1.56691694    
 -0.963873982      0.966289997     -0.606999993       289.277344       1.56691694    
 -0.960084975      0.962615013     -0.303470999       260.360504       1.56298339    
 -0.963873982      0.966289997     -0.606999993       260.360504       1.56298339    
 -0.841368973       1.06682706     -0.606999993       260.360504       1.56298339    
 -0.840825975       1.06629205     -0.303485990       260.360504       1.56298339    
 -0.960084975      0.962615013     -0.303470999       297.152893       1.56345606    
 -0.963320017      0.966744006       0.00000000       297.152893       1.56345606    
  -1.06464398      0.844029009       0.00000000       297.152893       1.56345606    
  -1.06383705      0.843237996     -0.303481996       297.152893       1.56345606    
  -1.06464398      0.844029009       0.00000000       324.132507       1.56632710    
  -1.15769398      0.715813994       0.00000000       324.132507       1.56632710    
  -1.15564799      0.714680016     -0.303483993       324.132507       1.56632710    
  -1.06383705      0.843237996     -0.303481996       324.132507       1.56632710    
  -1.15564799      0.714680016     -0.303483993       337.826874       1.57196879    
  -1.23108304      0.575536013     -0.303514004       337.826874       1.57196879    
  -1.23232996      0.576179981     -0.606999993       337.826874       1.57196879    
  -1.15756094      0.716063023     -0.606999993       337.826874       1.57196879    
  -1.15564799      0.714680016     -0.303483993       315.127747       1.56982481    
  -1.15756094      0.716063023     -0.606999993       315.127747       1.56982481    
  -1.06481802      0.843816996     -0.606999993       315.127747       1.56982481    
  -1.06383705      0.843237996     -0.303481996       315.127747       1.56982481    
  -1.15564799      0.714680016     -0.303483993       346.333313       1.56839132    
  -1.15769398      0.715813994       0.00000000       346.333313       1.56839132    
  -1.23224795      0.576331973       0.00000000       346.333313       1.56839132    
  -1.23108304      0.575536013     -0.303514004       346.333313       1.56839132    
  -1.23224795      0.576331973       0.00000000       364.171478       1.56984437    
  -1.28948605      0.428772002       0.00000000       364.171478       1.56984437    
  -1.28842103      0.428404987     -0.303512990       364.171478       1.56984437    
  -1.23108304      0.575536013     -0.303514004       364.171478       1.56984437    
  -1.28842103      0.428404987     -0.303512990       357.284668       1.57428122    
  -1.33082402      0.275959998     -0.303492010       357.284668       1.57428122    
  -1.33550000      0.277083993     -0.606999993       357.284668       1.57428122    