 VARIABLES="X" "Y" "Z" "abs(p) (Pa)" "angle(p) (rad)"
ZONE N=   2720,E =    2069, F=FEPOINT, ET=QUADRILATERAL
 -0.767116010      -1.12776399       0.00000000       4259.02441       1.52091932    
 -0.769354999      -1.12002099     -0.303523988       4259.02441       1.52091932    
 -0.896136999      -1.02028203     -0.303463012       4259.02441       1.52091932    
 -0.894908011      -1.02288902       0.00000000       4259.02441       1.52091932    
 -0.767116010      -1.12776399       0.00000000       3790.18848       1.61713278    
 -0.630888999      -1.20308697       0.00000000       3790.18848       1.61713278    
 -0.635528028      -1.19958198     -0.303541005       3790.18848       1.61713278    
 -0.769354999      -1.12002099     -0.303523988       3790.18848       1.61713278    
 -0.635528028      -1.19958198     -0.303541005       3175.09229       1.90938044    
 -0.495362997      -1.26606500     -0.303519011       3175.09229       1.90938044    
 -0.499298006      -1.26809204     -0.606999993       3175.09229       1.90938044    
 -0.640147984      -1.19813800     -0.606998026       3175.09229       1.90938044    
 -0.635528028      -1.19958198     -0.303541005       3569.14014       1.78869438    
 -0.640147984      -1.19813800     -0.606998026       3569.14014       1.78869438    
 -0.777105987      -1.11956596     -0.606999993       3569.14014       1.78869438    
 -0.769354999      -1.12002099     -0.303523988       3569.14014       1.78869438    
 -0.635528028      -1.19958198     -0.303541005       3297.42310       1.72428477    
 -0.630888999      -1.20308697       0.00000000       3297.42310       1.72428477    
 -0.494486004      -1.26955199       0.00000000       3297.42310       1.72428477    
 -0.495362997      -1.26606500     -0.303519011       3297.42310       1.72428477    
 -0.494486004      -1.26955199       0.00000000       2779.02856       1.85485613    
 -0.346311986      -1.31449997       0.00000000       2779.02856       1.85485613    
 -0.346753001      -1.31307304     -0.303510010       2779.02856       1.85485613    
 -0.495362997      -1.26606500     -0.303519011       2779.02856       1.85485613    
 -0.346753001      -1.31307304     -0.303510010       2342.87183       2.23196268    
 -0.193608001      -1.34425998     -0.303494990       2342.87183       2.23196268    
 -0.195028007      -1.34579206     -0.606999993       2342.87183       2.23196268    
 -0.348751009      -1.31376004     -0.606999993       2342.87183       2.23196268    
 -0.346753001      -1.31307304     -0.303510010       2761.86743       2.05464888    
 -0.348751009      -1.31376004     -0.606999993       2761.86743       2.05464888    
 -0.499298006      -1.26809204     -0.606999993       2761.86743       2.05464888    
 -0.495362997      -1.26606500     -0.303519011       2761.86743       2.05464888    
 -0.346753001      -1.31307304     -0.303510010       2243.44458       2.01754570    
 -0.346311986      -1.31449997       0.00000000       2243.44458       2.01754570    
 -0.193381995      -1.34595394       0.00000000       2243.44458       2.01754570    
 -0.193608001      -1.34425998     -0.303494990       2243.44458       2.01754570    
 -0.193381995      -1.34595394       0.00000000       1719.71582       2.24182987    
  -3.75179984E-02  -1.36130500       0.00000000       1719.71582       2.24182987    
  -3.73950005E-02  -1.35827899     -0.303512007       1719.71582       2.24182987    
 -0.193608001      -1.34425998     -0.303494990       1719.71582       2.24182987    
  -3.73950005E-02  -1.35827899     -0.303512007       1609.89661       2.77036285    
  0.119547002      -1.35239303     -0.303498000       1609.89661       2.77036285    
  0.119135000      -1.35326600     -0.606999993       1609.89661       2.77036285    
  -3.82840000E-02  -1.36122894     -0.606998980       1609.89661       2.77036285    
  -3.73950005E-02  -1.35827899     -0.303512007       1948.77173       2.46284246    
  -3.82840000E-02  -1.36122894     -0.606998980       1948.77173       2.46284246    
 -0.195028007      -1.34579206     -0.606999993       1948.77173       2.46284246    
 -0.193608001      -1.34425998     -0.303494990       1948.77173       2.46284246    
  -3.73950005E-02  -1.35827899     -0.303512007       1239.24988       2.59585214    
  -3.75179984E-02  -1.36130500       0.00000000       1239.24988       2.59585214    
  0.119788997      -1.35320199       0.00000000       1239.24988       2.59585214    
  0.119547002      -1.35239303     -0.303498000       1239.24988       2.59585214    
  0.119788997      -1.35320199       0.00000000       945.291077      -3.09113884    
  0.276576012      -1.33565402       0.00000000       945.291077      -3.09113884    
  0.275435001      -1.33191597     -0.303496003       945.291077      -3.09113884    
  0.119547002      -1.35239303     -0.303498000       945.291077      -3.09113884    
  0.275435001      -1.33191597     -0.303496003       1369.83740      -2.64963412    
  0.427076995      -1.28898001     -0.303507000       1369.83740      -2.64963412    
  0.427242011      -1.28995001     -0.606999993       1369.83740      -2.64963412    
  0.275831014      -1.33588004     -0.606999993       1369.83740      -2.64963412    
  0.275435001      -1.33191597     -0.303496003       1399.28528      -3.11311221    
  0.275831014      -1.33588004     -0.606999993       1399.28528      -3.11311221    
  0.119135000      -1.35326600     -0.606999993       1399.28528      -3.11311221    
  0.119547002      -1.35239303     -0.303498000       1399.28528      -3.11311221    
  0.275435001      -1.33191597     -0.303496003       1022.78070      -2.36330390    
  0.276576012      -1.33565402       0.00000000       1022.78070      -2.36330390    
  0.427509993      -1.28986895       0.00000000       1022.78070      -2.36330390    
  0.427076995      -1.28898001     -0.303507000       1022.78070      -2.36330390    
  0.427509993      -1.28986895       0.00000000       1387.10974      -1.87929666    
  0.574636996      -1.23315501       0.00000000       1387.10974      -1.87929666    
  0.573706985      -1.23136795     -0.303485990       1387.10974      -1.87929666    
  0.427076995      -1.28898001     -0.303507000       1387.10974      -1.87929666    
  0.573706985      -1.23136795     -0.303485990       1808.59204      -1.91493213    
  0.712854981      -1.15688002     -0.303496987       1808.59204      -1.91493213    
  0.713809013      -1.15876603     -0.606999993       1808.59204      -1.91493213    
  0.574283004      -1.23334301     -0.606999993       1808.59204      -1.91493213    
  0.573706985      -1.23136795     -0.303485990       1521.45728      -2.23243809    
  0.574283004      -1.23334301     -0.606999993       1521.45728      -2.23243809    
  0.427242011      -1.28995001     -0.606999993       1521.45728      -2.23243809    
  0.427076995      -1.28898001     -0.303507000       1521.45728      -2.23243809    
  0.573706985      -1.23136795     -0.303485990       1869.39685      -1.59331012    
  0.574636996      -1.23315501       0.00000000       1869.39685      -1.59331012    
  0.713741004      -1.15880203       0.00000000       1869.39685      -1.59331012    
  0.712854981      -1.15688002     -0.303496987       1869.39685      -1.59331012    
  0.713741004      -1.15880203       0.00000000       2368.16748      -1.40925848    
  0.841937006      -1.06636095       0.00000000       2368.16748      -1.40925848    
  0.841498017      -1.06573403     -0.303485990       2368.16748      -1.40925848    
  0.712854981      -1.15688002     -0.303496987       2368.16748      -1.40925848    
  0.841498017      -1.06573403     -0.303485990       2502.59937      -1.51563025    
  0.960639000     -0.962104976     -0.303470999       2502.59937      -1.51563025    
  0.964356005     -0.965893984     -0.606999993       2502.59937      -1.51563025    
  0.841796994      -1.06647599     -0.606999993       2502.59937      -1.51563025    
  0.841498017      -1.06573403     -0.303485990       2146.86890      -1.68416631    
  0.841796994      -1.06647599     -0.606999993       2146.86890      -1.68416631    
  0.713809013      -1.15876603     -0.606999993       2146.86890      -1.68416631    
  0.712854981      -1.15688002     -0.303496987       2146.86890      -1.68416631    
  0.841498017      -1.06573403     -0.303485990       2850.56396      -1.27628624    
  0.841937006      -1.06636095       0.00000000       2850.56396      -1.27628624    
  0.963932991     -0.966242015       0.00000000       2850.56396      -1.27628624    
  0.960639000     -0.962104976     -0.303470999       2850.56396      -1.27628624    
  0.963932991     -0.966242015       0.00000000       3297.96094      -1.17532969    
   1.06506598     -0.843514979       0.00000000       3297.96094      -1.17532969    
   1.06428695     -0.842682004     -0.303481996       3297.96094      -1.17532969    
  0.960639000     -0.962104976     -0.303470999       3297.96094      -1.17532969    
   1.06428695     -0.842682004     -0.303481996       3148.36572      -1.28425336    
   1.15591598     -0.714210987     -0.303485006       3148.36572      -1.28425336    
   1.15788805     -0.715448976     -0.606999993       3148.36572      -1.28425336    
   1.06537795     -0.843134999     -0.606999993       3148.36572      -1.28425336    
   1.06428695     -0.842682004     -0.303481996       2843.78320      -1.38595545    
   1.06537795     -0.843134999     -0.606999993       2843.78320      -1.38595545    
  0.964356005     -0.965893984     -0.606999993       2843.78320      -1.38595545    
  0.960639000     -0.962104976     -0.303470999       2843.78320      -1.38595545    
   1.06428695     -0.842682004     -0.303481996       3680.90674      -1.09568799    
   1.06506598     -0.843514979       0.00000000       3680.90674      -1.09568799    
   1.15792501     -0.715381980       0.00000000       3680.90674      -1.09568799    
   1.15591598     -0.714210987     -0.303485006       3680.90674      -1.09568799    
   1.15792501     -0.715381980       0.00000000       4023.36499      -1.03378022    
   1.23237598     -0.576093972       0.00000000       4023.36499      -1.03378022    
   1.23120904     -0.575251997     -0.303514004       4023.36499      -1.03378022    
   1.15591598     -0.714210987     -0.303485006       4023.36499      -1.03378022    
   1.23120904     -0.575251997     -0.303514004       3633.40259      -1.14845598    
   1.28844094     -0.428344995     -0.303512990       3633.40259      -1.14845598    
   1.28952503     -0.428642988     -0.606999993       3633.40259      -1.14845598    
   1.23252702     -0.575810015     -0.606999993       3633.40259      -1.14845598    
   1.23120904     -0.575251997     -0.303514004       3418.26880      -1.20714557    
   1.23252702     -0.575810015     -0.606999993       3418.26880      -1.20714557    
   1.15788805     -0.715448976     -0.606999993       3418.26880      -1.20714557    
   1.15591598     -0.714210987     -0.303485006       3418.26880      -1.20714557    
   1.23120904     -0.575251997     -0.303514004       4298.29980     -0.986728370    
   1.23237598     -0.576093972       0.00000000       4298.29980     -0.986728370    
   1.28947699     -0.428801000       0.00000000       4298.29980     -0.986728370    
   1.28844094     -0.428344995     -0.303512990       4298.29980     -0.986728370    
   1.28947699     -0.428801000       0.00000000       4508.42383     -0.950927377    
   1.33532202     -0.277671993       0.00000000       4508.42383     -0.950927377    
   1.33076501     -0.276203990     -0.303492010       4508.42383     -0.950927377    
   1.28844094     -0.428344995     -0.303512990       4508.42383     -0.950927377    
   1.33076501     -0.276203990     -0.303492010       3909.38135      -1.08181560    
   1.35229194     -0.119709998     -0.303514004       3909.38135      -1.08181560    
   1.35321999     -0.119608998     -0.606999993       3909.38135      -1.08181560    
   1.33549094     -0.277112991     -0.606999993       3909.38135      -1.08181560    
   1.33076501     -0.276203990     -0.303492010       3801.89844      -1.10763156    
   1.33549094     -0.277112991     -0.606999993       3801.89844      -1.10763156    
   1.28952503     -0.428642988     -0.606999993       3801.89844      -1.10763156    
   1.28844094     -0.428344995     -0.303512990       3801.89844      -1.10763156    
   1.33076501     -0.276203990     -0.303492010       4640.06201     -0.928122818    
   1.33532202     -0.277671993       0.00000000       4640.06201     -0.928122818    
   1.35319102     -0.119900003       0.00000000       4640.06201     -0.928122818    
   1.35229194     -0.119709998     -0.303514004       4640.06201     -0.928122818    
   1.35319102     -0.119900003       0.00000000       4694.47461     -0.919502020    
   1.36124396       3.81390005E-02   0.00000000       4694.47461     -0.919502020    
   1.35858905       3.79349999E-02 -0.303501010       4694.47461     -0.919502020    
   1.35229194     -0.119709998     -0.303514004       4694.47461     -0.919502020    
   1.35858905       3.79349999E-02 -0.303501010       3940.14136      -1.07325232    
   1.34464097      0.195331007     -0.303496003       3940.14136      -1.07325232    
   1.34573400      0.195616007     -0.606999993       3940.14136      -1.07325232    
   1.36126804       3.78950015E-02 -0.606999993       3940.14136      -1.07325232    
   1.35858905       3.79349999E-02 -0.303501010       3951.17139      -1.06964195    
   1.36126804       3.78950015E-02 -0.606999993       3951.17139      -1.06964195    
   1.35321999     -0.119608998     -0.606999993       3951.17139      -1.06964195    
   1.35229194     -0.119709998     -0.303514004       3951.17139      -1.06964195    
   1.35858905       3.79349999E-02 -0.303501010       4683.04932     -0.922905862    
   1.36124396       3.81390005E-02   0.00000000       4683.04932     -0.922905862    
   1.34575403      0.195406005       0.00000000       4683.04932     -0.922905862    
   1.34464097      0.195331007     -0.303496003       4683.04932     -0.922905862    
   1.34575403      0.195406005       0.00000000       4588.43262     -0.939138055    
   1.31339800      0.349945009       0.00000000       4588.43262     -0.939138055    
   1.31216300      0.349725991     -0.303487003       4588.43262     -0.939138055    
   1.34464097      0.195331007     -0.303496003       4588.43262     -0.939138055    
   1.31216300      0.349725991     -0.303487003       3729.44629      -1.12627113    
   1.26341999      0.500032008     -0.303494006       3729.44629      -1.12627113    
   1.26736605      0.501691997     -0.606999993       3729.44629      -1.12627113    
   1.31333196      0.350163996     -0.606999993       3729.44629      -1.12627113    
   1.31216300      0.349725991     -0.303487003       3862.21362      -1.09120321    
   1.31333196      0.350163996     -0.606999993       3862.21362      -1.09120321    
   1.34573400      0.195616007     -0.606999993       3862.21362      -1.09120321    
   1.34464097      0.195331007     -0.303496003       3862.21362      -1.09120321    
   1.31216300      0.349725991     -0.303487003       4428.28906     -0.967467725    
   1.31339800      0.349945009       0.00000000       4428.28906     -0.967467725    
   1.26751196      0.501209974       0.00000000       4428.28906     -0.967467725    
   1.26341999      0.500032008     -0.303494006       4428.28906     -0.967467725    
   1.26751196      0.501209974       0.00000000       4192.15088      -1.00780571    
   1.19658697      0.643051028       0.00000000       4192.15088      -1.00780571    
   1.19583094      0.642783999     -0.303505003       4192.15088      -1.00780571    
   1.26341999      0.500032008     -0.303494006       4192.15088      -1.00780571    
   1.19583094      0.642783999     -0.303505003       3307.00195      -1.24062204    
   1.11495602      0.778467000     -0.303483993       3307.00195      -1.24062204    
   1.11731696      0.779847026     -0.606999993       3307.00195      -1.24062204    
   1.19653296      0.643149972     -0.606999993       3307.00195      -1.24062204    
   1.19583094      0.642783999     -0.303505003       3538.54468      -1.17528379    
   1.19653296      0.643149972     -0.606999993       3538.54468      -1.17528379    
   1.26736605      0.501691997     -0.606999993       3538.54468      -1.17528379    
   1.26341999      0.500032008     -0.303494006       3538.54468      -1.17528379    
   1.19583094      0.642783999     -0.303505003       3889.36450      -1.06209564    
   1.19658697      0.643051028       0.00000000       3889.36450      -1.06209564    
   1.11705506      0.780165970       0.00000000       3889.36450      -1.06209564    
   1.11495602      0.778467000     -0.303483993       3889.36450      -1.06209564    
   1.11705506      0.780165970       0.00000000       3518.30054      -1.13217735    
   1.01674199      0.902397990       0.00000000       3518.30054      -1.13217735    
   1.01591504      0.901737988     -0.303478003       3518.30054      -1.13217735    
   1.11495602      0.778467000     -0.303483993       3518.30054      -1.13217735    
   1.01591504      0.901737988     -0.303478003       2688.50928      -1.43956649    
  0.904204011       1.01322901     -0.303456992       2688.50928      -1.43956649    
  0.905143023       1.01448905     -0.606999993       2688.50928      -1.43956649    
   1.01659799      0.902572989     -0.606999993       2688.50928      -1.43956649    
   1.01591504      0.901737988     -0.303478003       3017.66406      -1.32763338    
   1.01659799      0.902572989     -0.606999993       3017.66406      -1.32763338    
   1.11731696      0.779847026     -0.606999993       3017.66406      -1.32763338    
   1.11495602      0.778467000     -0.303483993       3017.66406      -1.32763338    
   1.01591504      0.901737988     -0.303478003       3091.51392      -1.22179890    
   1.01674199      0.902397990       0.00000000       3091.51392      -1.22179890    
  0.905318975       1.01434398       0.00000000       3091.51392      -1.22179890    
  0.904204011       1.01322901     -0.303456992       3091.51392      -1.22179890    
  0.905318975       1.01434398       0.00000000       2643.20361      -1.33398664    
  0.782918990       1.11479497       0.00000000       2643.20361      -1.33398664    
  0.780644000       1.11195600     -0.303485006       2643.20361      -1.33398664    
  0.904204011       1.01322901     -0.303456992       2643.20361      -1.33398664    
  0.780644000       1.11195600     -0.303485006       1986.78906      -1.78189301    
  0.645825028       1.19414902     -0.303514004       1986.78906      -1.78189301    
  0.646153986       1.19492805     -0.606999993       1986.78906      -1.78189301    
  0.782611012       1.11504900     -0.606999993       1986.78906      -1.78189301    
  0.780644000       1.11195600     -0.303485006       2343.62476      -1.58703661    
  0.782611012       1.11504900     -0.606999993       2343.62476      -1.58703661    
  0.905143023       1.01448905     -0.606999993       2343.62476      -1.58703661    
  0.904204011       1.01322901     -0.303456992       2343.62476      -1.58703661    
  0.780644000       1.11195600     -0.303485006       2145.72290      -1.48554718    
  0.782918990       1.11479497       0.00000000       2145.72290      -1.48554718    
  0.646345019       1.19482601       0.00000000       2145.72290      -1.48554718    
  0.645825028       1.19414902     -0.303514004       2145.72290      -1.48554718    
  0.646345019       1.19482601       0.00000000       1643.83325      -1.70948875    
  0.504974008       1.26637006       0.00000000       1643.83325      -1.70948875    
  0.503772974       1.26314998     -0.303521991       1643.83325      -1.70948875    
  0.645825028       1.19414902     -0.303514004       1643.83325      -1.70948875    
  0.503772974       1.26314998     -0.303521991       1425.52197      -2.41722226    
  0.353130996       1.31116498     -0.303510994       1425.52197      -2.41722226    
  0.353300005       1.31237996     -0.606999993       1425.52197      -2.41722226    
  0.505183995       1.26630700     -0.606999993       1425.52197      -2.41722226    
  0.503772974       1.26314998     -0.303521991       1665.83679      -2.04894924    
  0.505183995       1.26630700     -0.606999993       1665.83679      -2.04894924    
  0.646153986       1.19492805     -0.606999993       1665.83679      -2.04894924    
  0.645825028       1.19414902     -0.303514004       1665.83679      -2.04894924    
  0.503772974       1.26314998     -0.303521991       1187.99182      -2.07520485    
  0.504974008       1.26637006       0.00000000       1187.99182      -2.07520485    
  0.353493989       1.31232095       0.00000000       1187.99182      -2.07520485    
  0.353130996       1.31116498     -0.303510994       1187.99182      -2.07520485    
  0.353493989       1.31232095       0.00000000       928.395508      -2.69804931    
  0.199064001       1.34539402       0.00000000       928.395508      -2.69804931    
  0.198755994       1.34360003     -0.303496003       928.395508      -2.69804931    
  0.353130996       1.31116498     -0.303510994       928.395508      -2.69804931    
  0.198755994       1.34360003     -0.303496003       1481.25403       2.96026230    
   4.12769988E-02   1.35817802     -0.303508013       1481.25403       2.96026230    
   4.12410013E-02   1.36093795     -0.606999993       1481.25403       2.96026230    
  0.199025005       1.34539795     -0.606999993       1481.25403       2.96026230    
  0.198755994       1.34360003     -0.303496003       1345.24915      -2.87105799    
  0.199025005       1.34539795     -0.606999993       1345.24915      -2.87105799    
  0.353300005       1.31237996     -0.606999993       1345.24915      -2.87105799    
  0.353130996       1.31116498     -0.303510994       1345.24915      -2.87105799    
  0.198755994       1.34360003     -0.303496003       1047.21167       2.86644697    
  0.199064001       1.34539402       0.00000000       1047.21167       2.86644697    
   4.17769998E-02   1.36088502       0.00000000       1047.21167       2.86644697    
   4.12769988E-02   1.35817802     -0.303508013       1047.21167       2.86644697    
   4.17769998E-02   1.36088502       0.00000000       1459.59778       2.39404559    
 -0.116410002       1.35353506       0.00000000       1459.59778       2.39404559    
 -0.116471998       1.35271096     -0.303496987       1459.59778       2.39404559    
   4.12769988E-02   1.35817802     -0.303508013       1459.59778       2.39404559    
 -0.116471998       1.35271096     -0.303496987       2150.89941       2.33833647    
 -0.273027003       1.33229196     -0.303496003       2150.89941       2.33833647    
 -0.273876995       1.33647299     -0.606999993       2150.89941       2.33833647    
 -0.116722003       1.35350394     -0.606999993       2150.89941       2.33833647    
 -0.116471998       1.35271096     -0.303496987       1767.66016       2.60128427    
 -0.116722003       1.35350394     -0.606999993       1767.66016       2.60128427    
   4.12410013E-02   1.36093795     -0.606999993       1767.66016       2.60128427    
   4.12769988E-02   1.35817802     -0.303508013       1767.66016       2.60128427    
 -0.116471998       1.35271096     -0.303496987       1981.43481       2.11716270    
 -0.116410002       1.35353506       0.00000000       1981.43481       2.11716270    
 -0.274069011       1.33641505       0.00000000       1981.43481       2.11716270    
 -0.273027003       1.33229196     -0.303496003       1981.43481       2.11716270    
 -0.274069011       1.33641505       0.00000000       2533.74878       1.92550755    
 -0.425588995       1.29045200       0.00000000       2533.74878       1.92550755    
 -0.425258011       1.28953803     -0.303507000       2533.74878       1.92550755    
 -0.273027003       1.33229196     -0.303496003       2533.74878       1.92550755    
 -0.425258011       1.28953803     -0.303507000       2981.83618       1.97349501    
 -0.572302997       1.23206902     -0.303485990       2981.83618       1.97349501    
 -0.573064029       1.23399496     -0.606999993       2981.83618       1.97349501    
 -0.425651014       1.29043305     -0.606999993       2981.83618       1.97349501    
 -0.425258011       1.28953803     -0.303507000       2567.10864       2.13514996    
 -0.425651014       1.29043305     -0.606999993       2567.10864       2.13514996    
 -0.273876995       1.33647299     -0.606999993       2567.10864       2.13514996    
 -0.273027003       1.33229196     -0.303496003       2567.10864       2.13514996    
 -0.425258011       1.28953803     -0.303507000       3061.71533       1.77966523    
 -0.425588995       1.29045200       0.00000000       3061.71533       1.77966523    
 -0.573195994       1.23392498       0.00000000       3061.71533       1.77966523    
 -0.572302997       1.23206902     -0.303485990       3061.71533       1.77966523    
 -0.573195994       1.23392498       0.00000000       3573.98169       1.65878665    
 -0.712655008       1.15938199       0.00000000       3573.98169       1.65878665    
 -0.711889029       1.15749002     -0.303496003       3573.98169       1.65878665    
 -0.572302997       1.23206902     -0.303485990       3573.98169       1.65878665    
 -0.711889029       1.15749002     -0.303496003       3776.24292       1.72899449    
 -0.840825975       1.06629205     -0.303485990       3776.24292       1.72899449    
 -0.841368973       1.06682706     -0.606999993       3776.24292       1.72899449    
 -0.712980986       1.15920806     -0.606999993       3776.24292       1.72899449    
 -0.711889029       1.15749002     -0.303496003       3392.34814       1.84134340    
 -0.712980986       1.15920806     -0.606999993       3392.34814       1.84134340    
 -0.573064029       1.23399496     -0.606999993       3392.34814       1.84134340    
 -0.572302997       1.23206902     -0.303485990       3392.34814       1.84134340    
 -0.711889029       1.15749002     -0.303496003       4043.50317       1.55648041    
 -0.712655008       1.15938199       0.00000000       4043.50317       1.55648041    
 -0.841165006       1.06699395       0.00000000       4043.50317       1.55648041    
 -0.840825975       1.06629205     -0.303485990       4043.50317       1.55648041    
 -0.841165006       1.06699395       0.00000000       4476.49854       1.46918809    
 -0.963320017      0.966744006       0.00000000       4476.49854       1.46918809    
 -0.960084975      0.962615013     -0.303470999       4476.49854       1.46918809    
 -0.840825975       1.06629205     -0.303485990       4476.49854       1.46918809    
 -0.960084975      0.962615013     -0.303470999       4454.24902       1.55400431    
  -1.06383705      0.843237996     -0.303481996       4454.24902       1.55400431    
  -1.06481802      0.843816996     -0.606999993       4454.24902       1.55400431    
 -0.963873982      0.966289997     -0.606999993       4454.24902       1.55400431    
 -0.960084975      0.962615013     -0.303470999       4134.97607       1.63493192    
 -0.963873982      0.966289997     -0.606999993       4134.97607       1.63493192    
 -0.841368973       1.06682706     -0.606999993       4134.97607       1.63493192    
 -0.840825975       1.06629205     -0.303485990       4134.97607       1.63493192    
 -0.960084975      0.962615013     -0.303470999       4871.91895       1.39450073    
 -0.963320017      0.966744006       0.00000000       4871.91895       1.39450073    
  -1.06464398      0.844029009       0.00000000       4871.91895       1.39450073    
  -1.06383705      0.843237996     -0.303481996       4871.91895       1.39450073    
  -1.06464398      0.844029009       0.00000000       5204.46777       1.33216274    
  -1.15769398      0.715813994       0.00000000       5204.46777       1.33216274    
  -1.15564799      0.714680016     -0.303483993       5204.46777       1.33216274    
  -1.06383705      0.843237996     -0.303481996       5204.46777       1.33216274    
  -1.15564799      0.714680016     -0.303483993       4960.29688       1.43023992    
  -1.23108304      0.575536013     -0.303514004       4960.29688       1.43023992    
  -1.23232996      0.576179981     -0.606999993       4960.29688       1.43023992    
  -1.15756094      0.716063023     -0.606999993       4960.29688       1.43023992    
  -1.15564799      0.714680016     -0.303483993       4724.15137       1.48574686    
  -1.15756094      0.716063023     -0.606999993       4724.15137       1.48574686    
  -1.06481802      0.843816996     -0.606999993       4724.15137       1.48574686    
  -1.06383705      0.843237996     -0.303481996       4724.15137       1.48574686    
  -1.15564799      0.714680016     -0.303483993       5504.70654       1.28096712    
  -1.15769398      0.715813994       0.00000000       5504.70654       1.28096712    
  -1.23224795      0.576331973       0.00000000       5504.70654       1.28096712    
  -1.23108304      0.575536013     -0.303514004       5504.70654       1.28096712    
  -1.23224795      0.576331973       0.00000000       5731.15723       1.24100709    
  -1.28948605      0.428772002       0.00000000       5731.15723       1.24100709    
  -1.28842103      0.428404987     -0.303512990       5731.15723       1.24100709    
  -1.23108304      0.575536013     -0.303514004       5731.15723       1.24100709    
  -1.28842103      0.428404987     -0.303512990       5281.58301       1.35569179    
  -1.33082402      0.275959998     -0.303492010       5281.58301       1.35569179    
  -1.33550000      0.277083993     -0.606999993       5281.58301       1.35569179    