 VARIABLES="X" "Y" "Z" "abs(p) (Pa)" "angle(p) (rad)"
ZONE N=   2720,E =    2069, F=FEPOINT, ET=QUADRILATERAL
 -0.767116010      -1.12776399       0.00000000       1492.92114       1.57997561    
 -0.769354999      -1.12002099     -0.303523988       1492.92114       1.57997561    
 -0.896136999      -1.02028203     -0.303463012       1492.92114       1.57997561    
 -0.894908011      -1.02288902       0.00000000       1492.92114       1.57997561    
 -0.767116010      -1.12776399       0.00000000       1612.25977       1.57997620    
 -0.630888999      -1.20308697       0.00000000       1612.25977       1.57997620    
 -0.635528028      -1.19958198     -0.303541005       1612.25977       1.57997620    
 -0.769354999      -1.12002099     -0.303523988       1612.25977       1.57997620    
 -0.635528028      -1.19958198     -0.303541005       1454.29150       1.58117378    
 -0.495362997      -1.26606500     -0.303519011       1454.29150       1.58117378    
 -0.499298006      -1.26809204     -0.606999993       1454.29150       1.58117378    
 -0.640147984      -1.19813800     -0.606998026       1454.29150       1.58117378    
 -0.635528028      -1.19958198     -0.303541005       1367.03088       1.58117402    
 -0.640147984      -1.19813800     -0.606998026       1367.03088       1.58117402    
 -0.777105987      -1.11956596     -0.606999993       1367.03088       1.58117402    
 -0.769354999      -1.12002099     -0.303523988       1367.03088       1.58117402    
 -0.635528028      -1.19958198     -0.303541005       1703.96838       1.57999539    
 -0.630888999      -1.20308697       0.00000000       1703.96838       1.57999539    
 -0.494486004      -1.26955199       0.00000000       1703.96838       1.57999539    
 -0.495362997      -1.26606500     -0.303519011       1703.96838       1.57999539    
 -0.494486004      -1.26955199       0.00000000       1782.34155       1.57998347    
 -0.346311986      -1.31449997       0.00000000       1782.34155       1.57998347    
 -0.346753001      -1.31307304     -0.303510010       1782.34155       1.57998347    
 -0.495362997      -1.26606500     -0.303519011       1782.34155       1.57998347    
 -0.346753001      -1.31307304     -0.303510010       1568.97766       1.58115458    
 -0.193608001      -1.34425998     -0.303494990       1568.97766       1.58115458    
 -0.195028007      -1.34579206     -0.606999993       1568.97766       1.58115458    
 -0.348751009      -1.31376004     -0.606999993       1568.97766       1.58115458    
 -0.346753001      -1.31307304     -0.303510010       1520.58557       1.58117414    
 -0.348751009      -1.31376004     -0.606999993       1520.58557       1.58117414    
 -0.499298006      -1.26809204     -0.606999993       1520.58557       1.58117414    
 -0.495362997      -1.26606500     -0.303519011       1520.58557       1.58117414    
 -0.346753001      -1.31307304     -0.303510010       1841.46777       1.57993925    
 -0.346311986      -1.31449997       0.00000000       1841.46777       1.57993925    
 -0.193381995      -1.34595394       0.00000000       1841.46777       1.57993925    
 -0.193608001      -1.34425998     -0.303494990       1841.46777       1.57993925    
 -0.193381995      -1.34595394       0.00000000       1881.57568       1.57989204    
  -3.75179984E-02  -1.36130500       0.00000000       1881.57568       1.57989204    
  -3.73950005E-02  -1.35827899     -0.303512007       1881.57568       1.57989204    
 -0.193608001      -1.34425998     -0.303494990       1881.57568       1.57989204    
  -3.73950005E-02  -1.35827899     -0.303512007       1597.60840       1.58116841    
  0.119547002      -1.35239303     -0.303498000       1597.60840       1.58116841    
  0.119135000      -1.35326600     -0.606999993       1597.60840       1.58116841    
  -3.82840000E-02  -1.36122894     -0.606998980       1597.60840       1.58116841    
  -3.73950005E-02  -1.35827899     -0.303512007       1596.40881       1.58115327    
  -3.82840000E-02  -1.36122894     -0.606998980       1596.40881       1.58115327    
 -0.195028007      -1.34579206     -0.606999993       1596.40881       1.58115327    
 -0.193608001      -1.34425998     -0.303494990       1596.40881       1.58115327    
  -3.73950005E-02  -1.35827899     -0.303512007       1883.19580       1.57986832    
  -3.75179984E-02  -1.36130500       0.00000000       1883.19580       1.57986832    
  0.119788997      -1.35320199       0.00000000       1883.19580       1.57986832    
  0.119547002      -1.35239303     -0.303498000       1883.19580       1.57986832    
  0.119788997      -1.35320199       0.00000000       1861.70020       1.57987213    
  0.276576012      -1.33565402       0.00000000       1861.70020       1.57987213    
  0.275435001      -1.33191597     -0.303496003       1861.70020       1.57987213    
  0.119547002      -1.35239303     -0.303498000       1861.70020       1.57987213    
  0.275435001      -1.33191597     -0.303496003       1574.90210       1.58101594    
  0.427076995      -1.28898001     -0.303507000       1574.90210       1.58101594    
  0.427242011      -1.28995001     -0.606999993       1574.90210       1.58101594    
  0.275831014      -1.33588004     -0.606999993       1574.90210       1.58101594    
  0.275435001      -1.33191597     -0.303496003       1610.65833       1.58102238    
  0.275831014      -1.33588004     -0.606999993       1610.65833       1.58102238    
  0.119135000      -1.35326600     -0.606999993       1610.65833       1.58102238    
  0.119547002      -1.35239303     -0.303498000       1610.65833       1.58102238    
  0.275435001      -1.33191597     -0.303496003       1816.16394       1.57986999    
  0.276576012      -1.33565402       0.00000000       1816.16394       1.57986999    
  0.427509993      -1.28986895       0.00000000       1816.16394       1.57986999    
  0.427076995      -1.28898001     -0.303507000       1816.16394       1.57986999    
  0.427509993      -1.28986895       0.00000000       1743.41431       1.57981420    
  0.574636996      -1.23315501       0.00000000       1743.41431       1.57981420    
  0.573706985      -1.23136795     -0.303485990       1743.41431       1.57981420    
  0.427076995      -1.28898001     -0.303507000       1743.41431       1.57981420    
  0.573706985      -1.23136795     -0.303485990       1439.23926       1.58099008    
  0.712854981      -1.15688002     -0.303496987       1439.23926       1.58099008    
  0.713809013      -1.15876603     -0.606999993       1439.23926       1.58099008    
  0.574283004      -1.23334301     -0.606999993       1439.23926       1.58099008    
  0.573706985      -1.23136795     -0.303485990       1518.20801       1.58098555    
  0.574283004      -1.23334301     -0.606999993       1518.20801       1.58098555    
  0.427242011      -1.28995001     -0.606999993       1518.20801       1.58098555    
  0.427076995      -1.28898001     -0.303507000       1518.20801       1.58098555    
  0.573706985      -1.23136795     -0.303485990       1648.06445       1.57980204    
  0.574636996      -1.23315501       0.00000000       1648.06445       1.57980204    
  0.713741004      -1.15880203       0.00000000       1648.06445       1.57980204    
  0.712854981      -1.15688002     -0.303496987       1648.06445       1.57980204    
  0.713741004      -1.15880203       0.00000000       1538.70239       1.57975411    
  0.841937006      -1.06636095       0.00000000       1538.70239       1.57975411    
  0.841498017      -1.06573403     -0.303485990       1538.70239       1.57975411    
  0.712854981      -1.15688002     -0.303496987       1538.70239       1.57975411    
  0.841498017      -1.06573403     -0.303485990       1231.31763       1.58094645    
  0.960639000     -0.962104976     -0.303470999       1231.31763       1.58094645    
  0.964356005     -0.965893984     -0.606999993       1231.31763       1.58094645    
  0.841796994      -1.06647599     -0.606999993       1231.31763       1.58094645    
  0.841498017      -1.06573403     -0.303485990       1344.78845       1.58096492    
  0.841796994      -1.06647599     -0.606999993       1344.78845       1.58096492    
  0.713809013      -1.15876603     -0.606999993       1344.78845       1.58096492    
  0.712854981      -1.15688002     -0.303496987       1344.78845       1.58096492    
  0.841498017      -1.06573403     -0.303485990       1434.31360       1.57965791    
  0.841937006      -1.06636095       0.00000000       1434.31360       1.57965791    
  0.963932991     -0.966242015       0.00000000       1434.31360       1.57965791    
  0.960639000     -0.962104976     -0.303470999       1434.31360       1.57965791    
  0.963932991     -0.966242015       0.00000000       1293.25403       1.57961798    
   1.06506598     -0.843514979       0.00000000       1293.25403       1.57961798    
   1.06428695     -0.842682004     -0.303481996       1293.25403       1.57961798    
  0.960639000     -0.962104976     -0.303470999       1293.25403       1.57961798    
   1.06428695     -0.842682004     -0.303481996       995.047363       1.58051729    
   1.15591598     -0.714210987     -0.303485006       995.047363       1.58051729    
   1.15788805     -0.715448976     -0.606999993       995.047363       1.58051729    
   1.06537795     -0.843134999     -0.606999993       995.047363       1.58051729    
   1.06428695     -0.842682004     -0.303481996       1106.26599       1.58090687    
   1.06537795     -0.843134999     -0.606999993       1106.26599       1.58090687    
  0.964356005     -0.965893984     -0.606999993       1106.26599       1.58090687    
  0.960639000     -0.962104976     -0.303470999       1106.26599       1.58090687    
   1.06428695     -0.842682004     -0.303481996       1119.27686       1.57954490    
   1.06506598     -0.843514979       0.00000000       1119.27686       1.57954490    
   1.15792501     -0.715381980       0.00000000       1119.27686       1.57954490    
   1.15591598     -0.714210987     -0.303485006       1119.27686       1.57954490    
   1.15792501     -0.715381980       0.00000000       940.015259       1.57948613    
   1.23237598     -0.576093972       0.00000000       940.015259       1.57948613    
   1.23120904     -0.575251997     -0.303514004       940.015259       1.57948613    
   1.15591598     -0.714210987     -0.303485006       940.015259       1.57948613    
   1.23120904     -0.575251997     -0.303514004       672.600769       1.58017635    
   1.28844094     -0.428344995     -0.303512990       672.600769       1.58017635    
   1.28952503     -0.428642988     -0.606999993       672.600769       1.58017635    
   1.23252702     -0.575810015     -0.606999993       672.600769       1.58017635    
   1.23120904     -0.575251997     -0.303514004       839.164368       1.58039224    
   1.23252702     -0.575810015     -0.606999993       839.164368       1.58039224    
   1.15788805     -0.715448976     -0.606999993       839.164368       1.58039224    
   1.15591598     -0.714210987     -0.303485006       839.164368       1.58039224    
   1.23120904     -0.575251997     -0.303514004       785.915588       1.57898724    
   1.23237598     -0.576093972       0.00000000       785.915588       1.57898724    
   1.28947699     -0.428801000       0.00000000       785.915588       1.57898724    
   1.28844094     -0.428344995     -0.303512990       785.915588       1.57898724    
   1.28947699     -0.428801000       0.00000000       559.492920       1.57884026    
   1.33532202     -0.277671993       0.00000000       559.492920       1.57884026    
   1.33076501     -0.276203990     -0.303492010       559.492920       1.57884026    
   1.28844094     -0.428344995     -0.303512990       559.492920       1.57884026    
   1.33076501     -0.276203990     -0.303492010       330.438538       1.57860732    
   1.35229194     -0.119709998     -0.303514004       330.438538       1.57860732    
   1.35321999     -0.119608998     -0.606999993       330.438538       1.57860732    
   1.33549094     -0.277112991     -0.606999993       330.438538       1.57860732    
   1.33076501     -0.276203990     -0.303492010       500.292145       1.57972121    
   1.33549094     -0.277112991     -0.606999993       500.292145       1.57972121    
   1.28952503     -0.428642988     -0.606999993       500.292145       1.57972121    
   1.28844094     -0.428344995     -0.303512990       500.292145       1.57972121    
   1.33076501     -0.276203990     -0.303492010       318.188263       1.57888055    
   1.33532202     -0.277671993       0.00000000       318.188263       1.57888055    
   1.35319102     -0.119900003       0.00000000       318.188263       1.57888055    
   1.35229194     -0.119709998     -0.303514004       318.188263       1.57888055    
   1.35319102     -0.119900003       0.00000000       99.8223724       1.57633877    
   1.36124396       3.81390005E-02   0.00000000       99.8223724       1.57633877    
   1.35858905       3.79349999E-02 -0.303501010       99.8223724       1.57633877    
   1.35229194     -0.119709998     -0.303514004       99.8223724       1.57633877    
   1.35858905       3.79349999E-02 -0.303501010       69.0589981      -1.55167210    
   1.34464097      0.195331007     -0.303496003       69.0589981      -1.55167210    
   1.34573400      0.195616007     -0.606999993       69.0589981      -1.55167210    
   1.36126804       3.78950015E-02 -0.606999993       69.0589981      -1.55167210    
   1.35858905       3.79349999E-02 -0.303501010       109.529846       1.57621002    
   1.36126804       3.78950015E-02 -0.606999993       109.529846       1.57621002    
   1.35321999     -0.119608998     -0.606999993       109.529846       1.57621002    
   1.35229194     -0.119709998     -0.303514004       109.529846       1.57621002    
   1.35858905       3.79349999E-02 -0.303501010       105.791245      -1.55720127    
   1.36124396       3.81390005E-02   0.00000000       105.791245      -1.55720127    
   1.34575403      0.195406005       0.00000000       105.791245      -1.55720127    
   1.34464097      0.195331007     -0.303496003       105.791245      -1.55720127    
   1.34575403      0.195406005       0.00000000       318.997589      -1.56013203    
   1.31339800      0.349945009       0.00000000       318.997589      -1.56013203    
   1.31216300      0.349725991     -0.303487003       318.997589      -1.56013203    
   1.34464097      0.195331007     -0.303496003       318.997589      -1.56013203    
   1.31216300      0.349725991     -0.303487003       449.510101      -1.55928469    
   1.26341999      0.500032008     -0.303494006       449.510101      -1.55928469    
   1.26736605      0.501691997     -0.606999993       449.510101      -1.55928469    
   1.31333196      0.350163996     -0.606999993       449.510101      -1.55928469    
   1.31216300      0.349725991     -0.303487003       250.339340      -1.55787575    
   1.31333196      0.350163996     -0.606999993       250.339340      -1.55787575    
   1.34573400      0.195616007     -0.606999993       250.339340      -1.55787575    
   1.34464097      0.195331007     -0.303496003       250.339340      -1.55787575    
   1.31216300      0.349725991     -0.303487003       528.604736      -1.56068814    
   1.31339800      0.349945009       0.00000000       528.604736      -1.56068814    
   1.26751196      0.501209974       0.00000000       528.604736      -1.56068814    
   1.26341999      0.500032008     -0.303494006       528.604736      -1.56068814    
   1.26751196      0.501209974       0.00000000       732.643311      -1.56109524    
   1.19658697      0.643051028       0.00000000       732.643311      -1.56109524    
   1.19583094      0.642783999     -0.303505003       732.643311      -1.56109524    
   1.26341999      0.500032008     -0.303494006       732.643311      -1.56109524    
   1.19583094      0.642783999     -0.303505003       788.980469      -1.55983615    
   1.11495602      0.778467000     -0.303483993       788.980469      -1.55983615    
   1.11731696      0.779847026     -0.606999993       788.980469      -1.55983615    
   1.19653296      0.643149972     -0.606999993       788.980469      -1.55983615    
   1.19583094      0.642783999     -0.303505003       617.344971      -1.55957413    
   1.19653296      0.643149972     -0.606999993       617.344971      -1.55957413    
   1.26736605      0.501691997     -0.606999993       617.344971      -1.55957413    
   1.26341999      0.500032008     -0.303494006       617.344971      -1.55957413    
   1.19583094      0.642783999     -0.303505003       921.923767      -1.56121933    
   1.19658697      0.643051028       0.00000000       921.923767      -1.56121933    
   1.11705506      0.780165970       0.00000000       921.923767      -1.56121933    
   1.11495602      0.778467000     -0.303483993       921.923767      -1.56121933    
   1.11705506      0.780165970       0.00000000       1091.14209      -1.56128287    
   1.01674199      0.902397990       0.00000000       1091.14209      -1.56128287    
   1.01591504      0.901737988     -0.303478003       1091.14209      -1.56128287    
   1.11495602      0.778467000     -0.303483993       1091.14209      -1.56128287    
   1.01591504      0.901737988     -0.303478003       1080.42578      -1.56007445    
  0.904204011       1.01322901     -0.303456992       1080.42578      -1.56007445    
  0.905143023       1.01448905     -0.606999993       1080.42578      -1.56007445    
   1.01659799      0.902572989     -0.606999993       1080.42578      -1.56007445    
   1.01591504      0.901737988     -0.303478003       944.311646      -1.56001937    
   1.01659799      0.902572989     -0.606999993       944.311646      -1.56001937    
   1.11731696      0.779847026     -0.606999993       944.311646      -1.56001937    
   1.11495602      0.778467000     -0.303483993       944.311646      -1.56001937    
   1.01591504      0.901737988     -0.303478003       1246.73596      -1.56134129    
   1.01674199      0.902397990       0.00000000       1246.73596      -1.56134129    
  0.905318975       1.01434398       0.00000000       1246.73596      -1.56134129    
  0.904204011       1.01322901     -0.303456992       1246.73596      -1.56134129    
  0.905318975       1.01434398       0.00000000       1396.26587      -1.56139743    
  0.782918990       1.11479497       0.00000000       1396.26587      -1.56139743    
  0.780644000       1.11195600     -0.303485006       1396.26587      -1.56139743    
  0.904204011       1.01322901     -0.303456992       1396.26587      -1.56139743    
  0.780644000       1.11195600     -0.303485006       1302.18933      -1.56010985    
  0.645825028       1.19414902     -0.303514004       1302.18933      -1.56010985    
  0.646153986       1.19492805     -0.606999993       1302.18933      -1.56010985    
  0.782611012       1.11504900     -0.606999993       1302.18933      -1.56010985    
  0.780644000       1.11195600     -0.303485006       1200.29480      -1.56008613    
  0.782611012       1.11504900     -0.606999993       1200.29480      -1.56008613    
  0.905143023       1.01448905     -0.606999993       1200.29480      -1.56008613    
  0.904204011       1.01322901     -0.303456992       1200.29480      -1.56008613    
  0.780644000       1.11195600     -0.303485006       1515.94556      -1.56140494    
  0.782918990       1.11479497       0.00000000       1515.94556      -1.56140494    
  0.646345019       1.19482601       0.00000000       1515.94556      -1.56140494    
  0.645825028       1.19414902     -0.303514004       1515.94556      -1.56140494    
  0.646345019       1.19482601       0.00000000       1612.52356      -1.56135619    
  0.504974008       1.26637006       0.00000000       1612.52356      -1.56135619    
  0.503772974       1.26314998     -0.303521991       1612.52356      -1.56135619    
  0.645825028       1.19414902     -0.303514004       1612.52356      -1.56135619    
  0.503772974       1.26314998     -0.303521991       1460.80627      -1.56018412    
  0.353130996       1.31116498     -0.303510994       1460.80627      -1.56018412    
  0.353300005       1.31237996     -0.606999993       1460.80627      -1.56018412    
  0.505183995       1.26630700     -0.606999993       1460.80627      -1.56018412    
  0.503772974       1.26314998     -0.303521991       1391.18848      -1.56014037    
  0.505183995       1.26630700     -0.606999993       1391.18848      -1.56014037    
  0.646153986       1.19492805     -0.606999993       1391.18848      -1.56014037    
  0.645825028       1.19414902     -0.303514004       1391.18848      -1.56014037    
  0.503772974       1.26314998     -0.303521991       1689.69250      -1.56135726    
  0.504974008       1.26637006       0.00000000       1689.69250      -1.56135726    
  0.353493989       1.31232095       0.00000000       1689.69250      -1.56135726    
  0.353130996       1.31116498     -0.303510994       1689.69250      -1.56135726    
  0.353493989       1.31232095       0.00000000       1745.80713      -1.56138670    
  0.199064001       1.34539402       0.00000000       1745.80713      -1.56138670    
  0.198755994       1.34360003     -0.303496003       1745.80713      -1.56138670    
  0.353130996       1.31116498     -0.303510994       1745.80713      -1.56138670    
  0.198755994       1.34360003     -0.303496003       1527.21558      -1.56017411    
   4.12769988E-02   1.35817802     -0.303508013       1527.21558      -1.56017411    
   4.12410013E-02   1.36093795     -0.606999993       1527.21558      -1.56017411    
  0.199025005       1.34539795     -0.606999993       1527.21558      -1.56017411    
  0.198755994       1.34360003     -0.303496003       1508.99915      -1.56021738    
  0.199025005       1.34539795     -0.606999993       1508.99915      -1.56021738    
  0.353300005       1.31237996     -0.606999993       1508.99915      -1.56021738    
  0.353130996       1.31116498     -0.303510994       1508.99915      -1.56021738    
  0.198755994       1.34360003     -0.303496003       1779.43518      -1.56138539    
  0.199064001       1.34539402       0.00000000       1779.43518      -1.56138539    
   4.17769998E-02   1.36088502       0.00000000       1779.43518      -1.56138539    
   4.12769988E-02   1.35817802     -0.303508013       1779.43518      -1.56138539    
   4.17769998E-02   1.36088502       0.00000000       1800.92651      -1.56145310    
 -0.116410002       1.35353506       0.00000000       1800.92651      -1.56145310    
 -0.116471998       1.35271096     -0.303496987       1800.92651      -1.56145310    
   4.12769988E-02   1.35817802     -0.303508013       1800.92651      -1.56145310    
 -0.116471998       1.35271096     -0.303496987       1549.83887      -1.56039286    
 -0.273027003       1.33229196     -0.303496003       1549.83887      -1.56039286    
 -0.273876995       1.33647299     -0.606999993       1549.83887      -1.56039286    
 -0.116722003       1.35350394     -0.606999993       1549.83887      -1.56039286    
 -0.116471998       1.35271096     -0.303496987       1534.10950      -1.56020427    
 -0.116722003       1.35350394     -0.606999993       1534.10950      -1.56020427    
   4.12410013E-02   1.36093795     -0.606999993       1534.10950      -1.56020427    
   4.12769988E-02   1.35817802     -0.303508013       1534.10950      -1.56020427    
 -0.116471998       1.35271096     -0.303496987       1792.39844      -1.56144905    
 -0.116410002       1.35353506       0.00000000       1792.39844      -1.56144905    
 -0.274069011       1.33641505       0.00000000       1792.39844      -1.56144905    
 -0.273027003       1.33229196     -0.303496003       1792.39844      -1.56144905    
 -0.274069011       1.33641505       0.00000000       1752.71863      -1.56147063    
 -0.425588995       1.29045200       0.00000000       1752.71863      -1.56147063    
 -0.425258011       1.28953803     -0.303507000       1752.71863      -1.56147063    
 -0.273027003       1.33229196     -0.303496003       1752.71863      -1.56147063    
 -0.425258011       1.28953803     -0.303507000       1460.05762      -1.56049824    
 -0.572302997       1.23206902     -0.303485990       1460.05762      -1.56049824    
 -0.573064029       1.23399496     -0.606999993       1460.05762      -1.56049824    
 -0.425651014       1.29043305     -0.606999993       1460.05762      -1.56049824    
 -0.425258011       1.28953803     -0.303507000       1515.78833      -1.56043148    
 -0.425651014       1.29043305     -0.606999993       1515.78833      -1.56043148    
 -0.273876995       1.33647299     -0.606999993       1515.78833      -1.56043148    
 -0.273027003       1.33229196     -0.303496003       1515.78833      -1.56043148    
 -0.425258011       1.28953803     -0.303507000       1676.47034      -1.56153059    
 -0.425588995       1.29045200       0.00000000       1676.47034      -1.56153059    
 -0.573195994       1.23392498       0.00000000       1676.47034      -1.56153059    
 -0.572302997       1.23206902     -0.303485990       1676.47034      -1.56153059    
 -0.573195994       1.23392498       0.00000000       1577.53186      -1.56155765    
 -0.712655008       1.15938199       0.00000000       1577.53186      -1.56155765    
 -0.711889029       1.15749002     -0.303496003       1577.53186      -1.56155765    
 -0.572302997       1.23206902     -0.303485990       1577.53186      -1.56155765    
 -0.711889029       1.15749002     -0.303496003       1290.20752      -1.56060159    
 -0.840825975       1.06629205     -0.303485990       1290.20752      -1.56060159    
 -0.841368973       1.06682706     -0.606999993       1290.20752      -1.56060159    
 -0.712980986       1.15920806     -0.606999993       1290.20752      -1.56060159    
 -0.711889029       1.15749002     -0.303496003       1383.38110      -1.56053400    
 -0.712980986       1.15920806     -0.606999993       1383.38110      -1.56053400    
 -0.573064029       1.23399496     -0.606999993       1383.38110      -1.56053400    
 -0.572302997       1.23206902     -0.303485990       1383.38110      -1.56053400    
 -0.711889029       1.15749002     -0.303496003       1458.45508      -1.56162512    
 -0.712655008       1.15938199       0.00000000       1458.45508      -1.56162512    
 -0.841165006       1.06699395       0.00000000       1458.45508      -1.56162512    
 -0.840825975       1.06629205     -0.303485990       1458.45508      -1.56162512    
 -0.841165006       1.06699395       0.00000000       1326.83594      -1.56165779    
 -0.963320017      0.966744006       0.00000000       1326.83594      -1.56165779    
 -0.960084975      0.962615013     -0.303470999       1326.83594      -1.56165779    
 -0.840825975       1.06629205     -0.303485990       1326.83594      -1.56165779    
 -0.960084975      0.962615013     -0.303470999       1047.81738      -1.56065845    
  -1.06383705      0.843237996     -0.303481996       1047.81738      -1.56065845    
  -1.06481802      0.843816996     -0.606999993       1047.81738      -1.56065845    
 -0.963873982      0.966289997     -0.606999993       1047.81738      -1.56065845    
 -0.960084975      0.962615013     -0.303470999       1174.99707      -1.56063521    
 -0.963873982      0.966289997     -0.606999993       1174.99707      -1.56063521    
 -0.841368973       1.06682706     -0.606999993       1174.99707      -1.56063521    
 -0.840825975       1.06629205     -0.303485990       1174.99707      -1.56063521    
 -0.960084975      0.962615013     -0.303470999       1185.81311      -1.56170225    
 -0.963320017      0.966744006       0.00000000       1185.81311      -1.56170225    
  -1.06464398      0.844029009       0.00000000       1185.81311      -1.56170225    
  -1.06383705      0.843237996     -0.303481996       1185.81311      -1.56170225    
  -1.06464398      0.844029009       0.00000000       1019.06580      -1.56176805    
  -1.15769398      0.715813994       0.00000000       1019.06580      -1.56176805    
  -1.15564799      0.714680016     -0.303483993       1019.06580      -1.56176805    
  -1.06383705      0.843237996     -0.303481996       1019.06580      -1.56176805    
  -1.15564799      0.714680016     -0.303483993       754.636047      -1.56083238    
  -1.23108304      0.575536013     -0.303514004       754.636047      -1.56083238    
  -1.23232996      0.576179981     -0.606999993       754.636047      -1.56083238    
  -1.15756094      0.716063023     -0.606999993       754.636047      -1.56083238    
  -1.15564799      0.714680016     -0.303483993       907.162048      -1.56074631    
  -1.15756094      0.716063023     -0.606999993       907.162048      -1.56074631    
  -1.06481802      0.843816996     -0.606999993       907.162048      -1.56074631    
  -1.06383705      0.843237996     -0.303481996       907.162048      -1.56074631    
  -1.15564799      0.714680016     -0.303483993       846.029114      -1.56180167    
  -1.15769398      0.715813994       0.00000000       846.029114      -1.56180167    
  -1.23224795      0.576331973       0.00000000       846.029114      -1.56180167    
  -1.23108304      0.575536013     -0.303514004       846.029114      -1.56180167    
  -1.23224795      0.576331973       0.00000000       657.964966      -1.56189132    
  -1.28948605      0.428772002       0.00000000       657.964966      -1.56189132    
  -1.28842103      0.428404987     -0.303512990       657.964966      -1.56189132    
  -1.23108304      0.575536013     -0.303514004       657.964966      -1.56189132    
  -1.28842103      0.428404987     -0.303512990       413.276398      -1.56100726    
  -1.33082402      0.275959998     -0.303492010       413.276398      -1.56100726    
  -1.33550000      0.277083993     -0.606999993       413.276398      -1.56100726    