 VARIABLES="X" "Y" "Z" "abs(p) (Pa)" "angle(p) (rad)"
ZONE N=   2720,E =    2069, F=FEPOINT, ET=QUADRILATERAL
 -0.767116010      -1.12776399       0.00000000       4423.38086      -1.54429185    
 -0.769354999      -1.12002099     -0.303523988       4423.38086      -1.54429185    
 -0.896136999      -1.02028203     -0.303463012       4423.38086      -1.54429185    
 -0.894908011      -1.02288902       0.00000000       4423.38086      -1.54429185    
 -0.767116010      -1.12776399       0.00000000       3741.66968      -1.54404533    
 -0.630888999      -1.20308697       0.00000000       3741.66968      -1.54404533    
 -0.635528028      -1.19958198     -0.303541005       3741.66968      -1.54404533    
 -0.769354999      -1.12002099     -0.303523988       3741.66968      -1.54404533    
 -0.635528028      -1.19958198     -0.303541005       1794.71326      -1.56441474    
 -0.495362997      -1.26606500     -0.303519011       1794.71326      -1.56441474    
 -0.499298006      -1.26809204     -0.606999993       1794.71326      -1.56441474    
 -0.640147984      -1.19813800     -0.606998026       1794.71326      -1.56441474    
 -0.635528028      -1.19958198     -0.303541005       2213.29785      -1.56469572    
 -0.640147984      -1.19813800     -0.606998026       2213.29785      -1.56469572    
 -0.777105987      -1.11956596     -0.606999993       2213.29785      -1.56469572    
 -0.769354999      -1.12002099     -0.303523988       2213.29785      -1.56469572    
 -0.635528028      -1.19958198     -0.303541005       3014.99146      -1.54405940    
 -0.630888999      -1.20308697       0.00000000       3014.99146      -1.54405940    
 -0.494486004      -1.26955199       0.00000000       3014.99146      -1.54405940    
 -0.495362997      -1.26606500     -0.303519011       3014.99146      -1.54405940    
 -0.494486004      -1.26955199       0.00000000       2267.90112      -1.54350698    
 -0.346311986      -1.31449997       0.00000000       2267.90112      -1.54350698    
 -0.346753001      -1.31307304     -0.303510010       2267.90112      -1.54350698    
 -0.495362997      -1.26606500     -0.303519011       2267.90112      -1.54350698    
 -0.346753001      -1.31307304     -0.303510010       886.822449      -1.56280184    
 -0.193608001      -1.34425998     -0.303494990       886.822449      -1.56280184    
 -0.195028007      -1.34579206     -0.606999993       886.822449      -1.56280184    
 -0.348751009      -1.31376004     -0.606999993       886.822449      -1.56280184    
 -0.346753001      -1.31307304     -0.303510010       1346.40137      -1.56377578    
 -0.348751009      -1.31376004     -0.606999993       1346.40137      -1.56377578    
 -0.499298006      -1.26809204     -0.606999993       1346.40137      -1.56377578    
 -0.495362997      -1.26606500     -0.303519011       1346.40137      -1.56377578    
 -0.346753001      -1.31307304     -0.303510010       1488.06006      -1.54329419    
 -0.346311986      -1.31449997       0.00000000       1488.06006      -1.54329419    
 -0.193381995      -1.34595394       0.00000000       1488.06006      -1.54329419    
 -0.193608001      -1.34425998     -0.303494990       1488.06006      -1.54329419    
 -0.193381995      -1.34595394       0.00000000       691.772705      -1.54217958    
  -3.75179984E-02  -1.36130500       0.00000000       691.772705      -1.54217958    
  -3.73950005E-02  -1.35827899     -0.303512007       691.772705      -1.54217958    
 -0.193608001      -1.34425998     -0.303494990       691.772705      -1.54217958    
  -3.73950005E-02  -1.35827899     -0.303512007       62.6302872       1.52808797    
  0.119547002      -1.35239303     -0.303498000       62.6302872       1.52808797    
  0.119135000      -1.35326600     -0.606999993       62.6302872       1.52808797    
  -3.82840000E-02  -1.36122894     -0.606998980       62.6302872       1.52808797    
  -3.73950005E-02  -1.35827899     -0.303512007       416.158966      -1.55912888    
  -3.82840000E-02  -1.36122894     -0.606998980       416.158966      -1.55912888    
 -0.195028007      -1.34579206     -0.606999993       416.158966      -1.55912888    
 -0.193608001      -1.34425998     -0.303494990       416.158966      -1.55912888    
  -3.73950005E-02  -1.35827899     -0.303512007       107.270973       1.57788515    
  -3.75179984E-02  -1.36130500       0.00000000       107.270973       1.57788515    
  0.119788997      -1.35320199       0.00000000       107.270973       1.57788515    
  0.119547002      -1.35239303     -0.303498000       107.270973       1.57788515    
  0.119788997      -1.35320199       0.00000000       905.691101       1.59517348    
  0.276576012      -1.33565402       0.00000000       905.691101       1.59517348    
  0.275435001      -1.33191597     -0.303496003       905.691101       1.59517348    
  0.119547002      -1.35239303     -0.303498000       905.691101       1.59517348    
  0.275435001      -1.33191597     -0.303496003       1005.31329       1.57251251    
  0.427076995      -1.28898001     -0.303507000       1005.31329       1.57251251    
  0.427242011      -1.28995001     -0.606999993       1005.31329       1.57251251    
  0.275831014      -1.33588004     -0.606999993       1005.31329       1.57251251    
  0.275435001      -1.33191597     -0.303496003       532.561646       1.57045257    
  0.275831014      -1.33588004     -0.606999993       532.561646       1.57045257    
  0.119135000      -1.35326600     -0.606999993       532.561646       1.57045257    
  0.119547002      -1.35239303     -0.303498000       532.561646       1.57045257    
  0.275435001      -1.33191597     -0.303496003       1687.75452       1.59535301    
  0.276576012      -1.33565402       0.00000000       1687.75452       1.59535301    
  0.427509993      -1.28986895       0.00000000       1687.75452       1.59535301    
  0.427076995      -1.28898001     -0.303507000       1687.75452       1.59535301    
  0.427509993      -1.28986895       0.00000000       2434.49585       1.59537709    
  0.574636996      -1.23315501       0.00000000       2434.49585       1.59537709    
  0.573706985      -1.23136795     -0.303485990       2434.49585       1.59537709    
  0.427076995      -1.28898001     -0.303507000       2434.49585       1.59537709    
  0.573706985      -1.23136795     -0.303485990       1889.52246       1.57389712    
  0.712854981      -1.15688002     -0.303496987       1889.52246       1.57389712    
  0.713809013      -1.15876603     -0.606999993       1889.52246       1.57389712    
  0.574283004      -1.23334301     -0.606999993       1889.52246       1.57389712    
  0.573706985      -1.23136795     -0.303485990       1454.61438       1.57339716    
  0.574283004      -1.23334301     -0.606999993       1454.61438       1.57339716    
  0.427242011      -1.28995001     -0.606999993       1454.61438       1.57339716    
  0.427076995      -1.28898001     -0.303507000       1454.61438       1.57339716    
  0.573706985      -1.23136795     -0.303485990       3165.28784       1.59543383    
  0.574636996      -1.23315501       0.00000000       3165.28784       1.59543383    
  0.713741004      -1.15880203       0.00000000       3165.28784       1.59543383    
  0.712854981      -1.15688002     -0.303496987       3165.28784       1.59543383    
  0.713741004      -1.15880203       0.00000000       3852.73071       1.59553409    
  0.841937006      -1.06636095       0.00000000       3852.73071       1.59553409    
  0.841498017      -1.06573403     -0.303485990       3852.73071       1.59553409    
  0.712854981      -1.15688002     -0.303496987       3852.73071       1.59553409    
  0.841498017      -1.06573403     -0.303485990       2677.13452       1.57463205    
  0.960639000     -0.962104976     -0.303470999       2677.13452       1.57463205    
  0.964356005     -0.965893984     -0.606999993       2677.13452       1.57463205    
  0.841796994      -1.06647599     -0.606999993       2677.13452       1.57463205    
  0.841498017      -1.06573403     -0.303485990       2301.07593       1.57423437    
  0.841796994      -1.06647599     -0.606999993       2301.07593       1.57423437    
  0.713809013      -1.15876603     -0.606999993       2301.07593       1.57423437    
  0.712854981      -1.15688002     -0.303496987       2301.07593       1.57423437    
  0.841498017      -1.06573403     -0.303485990       4522.60938       1.59638155    
  0.841937006      -1.06636095       0.00000000       4522.60938       1.59638155    
  0.963932991     -0.966242015       0.00000000       4522.60938       1.59638155    
  0.960639000     -0.962104976     -0.303470999       4522.60938       1.59638155    
  0.963932991     -0.966242015       0.00000000       5109.53857       1.59660685    
   1.06506598     -0.843514979       0.00000000       5109.53857       1.59660685    
   1.06428695     -0.842682004     -0.303481996       5109.53857       1.59660685    
  0.960639000     -0.962104976     -0.303470999       5109.53857       1.59660685    
   1.06428695     -0.842682004     -0.303481996       3331.05054       1.57496679    
   1.15591598     -0.714210987     -0.303485006       3331.05054       1.57496679    
   1.15788805     -0.715448976     -0.606999993       3331.05054       1.57496679    
   1.06537795     -0.843134999     -0.606999993       3331.05054       1.57496679    
   1.06428695     -0.842682004     -0.303481996       3026.02661       1.57480919    
   1.06537795     -0.843134999     -0.606999993       3026.02661       1.57480919    
  0.964356005     -0.965893984     -0.606999993       3026.02661       1.57480919    
  0.960639000     -0.962104976     -0.303470999       3026.02661       1.57480919    
   1.06428695     -0.842682004     -0.303481996       5579.28906       1.59665489    
   1.06506598     -0.843514979       0.00000000       5579.28906       1.59665489    
   1.15792501     -0.715381980       0.00000000       5579.28906       1.59665489    
   1.15591598     -0.714210987     -0.303485006       5579.28906       1.59665489    
   1.15792501     -0.715381980       0.00000000       6047.22070       1.59696841    
   1.23237598     -0.576093972       0.00000000       6047.22070       1.59696841    
   1.23120904     -0.575251997     -0.303514004       6047.22070       1.59696841    
   1.15591598     -0.714210987     -0.303485006       6047.22070       1.59696841    
   1.23120904     -0.575251997     -0.303514004       3813.18628       1.57532024    
   1.28844094     -0.428344995     -0.303512990       3813.18628       1.57532024    
   1.28952503     -0.428642988     -0.606999993       3813.18628       1.57532024    
   1.23252702     -0.575810015     -0.606999993       3813.18628       1.57532024    
   1.23120904     -0.575251997     -0.303514004       3597.33862       1.57521904    
   1.23252702     -0.575810015     -0.606999993       3597.33862       1.57521904    
   1.15788805     -0.715448976     -0.606999993       3597.33862       1.57521904    
   1.15591598     -0.714210987     -0.303485006       3597.33862       1.57521904    
   1.23120904     -0.575251997     -0.303514004       6433.97314       1.59684658    
   1.23237598     -0.576093972       0.00000000       6433.97314       1.59684658    
   1.28947699     -0.428801000       0.00000000       6433.97314       1.59684658    
   1.28844094     -0.428344995     -0.303512990       6433.97314       1.59684658    
   1.28947699     -0.428801000       0.00000000       6763.50098       1.59704959    
   1.33532202     -0.277671993       0.00000000       6763.50098       1.59704959    
   1.33076501     -0.276203990     -0.303492010       6763.50098       1.59704959    
   1.28844094     -0.428344995     -0.303512990       6763.50098       1.59704959    
   1.33076501     -0.276203990     -0.303492010       4083.43042       1.57540905    
   1.35229194     -0.119709998     -0.303514004       4083.43042       1.57540905    
   1.35321999     -0.119608998     -0.606999993       4083.43042       1.57540905    
   1.33549094     -0.277112991     -0.606999993       4083.43042       1.57540905    
   1.33076501     -0.276203990     -0.303492010       3975.03857       1.57540524    
   1.33549094     -0.277112991     -0.606999993       3975.03857       1.57540524    
   1.28952503     -0.428642988     -0.606999993       3975.03857       1.57540524    
   1.28844094     -0.428344995     -0.303512990       3975.03857       1.57540524    
   1.33076501     -0.276203990     -0.303492010       6948.46045       1.59703267    
   1.33532202     -0.277671993       0.00000000       6948.46045       1.59703267    
   1.35319102     -0.119900003       0.00000000       6948.46045       1.59703267    
   1.35229194     -0.119709998     -0.303514004       6948.46045       1.59703267    
   1.35319102     -0.119900003       0.00000000       7027.59717       1.59700632    
   1.36124396       3.81390005E-02   0.00000000       7027.59717       1.59700632    
   1.35858905       3.79349999E-02 -0.303501010       7027.59717       1.59700632    
   1.35229194     -0.119709998     -0.303514004       7027.59717       1.59700632    
   1.35858905       3.79349999E-02 -0.303501010       4132.42676       1.57577515    
   1.34464097      0.195331007     -0.303496003       4132.42676       1.57577515    
   1.34573400      0.195616007     -0.606999993       4132.42676       1.57577515    
   1.36126804       3.78950015E-02 -0.606999993       4132.42676       1.57577515    
   1.35858905       3.79349999E-02 -0.303501010       4136.71680       1.57560802    
   1.36126804       3.78950015E-02 -0.606999993       4136.71680       1.57560802    
   1.35321999     -0.119608998     -0.606999993       4136.71680       1.57560802    
   1.35229194     -0.119709998     -0.303514004       4136.71680       1.57560802    
   1.35858905       3.79349999E-02 -0.303501010       7036.46289       1.59721231    
   1.36124396       3.81390005E-02   0.00000000       7036.46289       1.59721231    
   1.34575403      0.195406005       0.00000000       7036.46289       1.59721231    
   1.34464097      0.195331007     -0.303496003       7036.46289       1.59721231    
   1.34575403      0.195406005       0.00000000       6930.91064       1.59727490    
   1.31339800      0.349945009       0.00000000       6930.91064       1.59727490    
   1.31216300      0.349725991     -0.303487003       6930.91064       1.59727490    
   1.34464097      0.195331007     -0.303496003       6930.91064       1.59727490    
   1.31216300      0.349725991     -0.303487003       3942.12695       1.57597673    
   1.26341999      0.500032008     -0.303494006       3942.12695       1.57597673    
   1.26736605      0.501691997     -0.606999993       3942.12695       1.57597673    
   1.31333196      0.350163996     -0.606999993       3942.12695       1.57597673    
   1.31216300      0.349725991     -0.303487003       4066.97461       1.57585657    
   1.31333196      0.350163996     -0.606999993       4066.97461       1.57585657    
   1.34573400      0.195616007     -0.606999993       4066.97461       1.57585657    
   1.34464097      0.195331007     -0.303496003       4066.97461       1.57585657    
   1.31216300      0.349725991     -0.303487003       6747.91455       1.59766638    
   1.31339800      0.349945009       0.00000000       6747.91455       1.59766638    
   1.26751196      0.501209974       0.00000000       6747.91455       1.59766638    
   1.26341999      0.500032008     -0.303494006       6747.91455       1.59766638    
   1.26751196      0.501209974       0.00000000       6451.93604       1.59766662    
   1.19658697      0.643051028       0.00000000       6451.93604       1.59766662    
   1.19583094      0.642783999     -0.303505003       6451.93604       1.59766662    
   1.26341999      0.500032008     -0.303494006       6451.93604       1.59766662    
   1.19583094      0.642783999     -0.303505003       3523.31836       1.57573223    
   1.11495602      0.778467000     -0.303483993       3523.31836       1.57573223    
   1.11731696      0.779847026     -0.606999993       3523.31836       1.57573223    
   1.19653296      0.643149972     -0.606999993       3523.31836       1.57573223    
   1.19583094      0.642783999     -0.303505003       3758.33569       1.57594752    
   1.19653296      0.643149972     -0.606999993       3758.33569       1.57594752    
   1.26736605      0.501691997     -0.606999993       3758.33569       1.57594752    
   1.26341999      0.500032008     -0.303494006       3758.33569       1.57594752    
   1.19583094      0.642783999     -0.303505003       6013.07715       1.59740615    
   1.19658697      0.643051028       0.00000000       6013.07715       1.59740615    
   1.11705506      0.780165970       0.00000000       6013.07715       1.59740615    
   1.11495602      0.778467000     -0.303483993       6013.07715       1.59740615    
   1.11705506      0.780165970       0.00000000       5482.85547       1.59728277    
   1.01674199      0.902397990       0.00000000       5482.85547       1.59728277    
   1.01591504      0.901737988     -0.303478003       5482.85547       1.59728277    
   1.11495602      0.778467000     -0.303483993       5482.85547       1.59728277    
   1.01591504      0.901737988     -0.303478003       2896.91528       1.57539129    
  0.904204011       1.01322901     -0.303456992       2896.91528       1.57539129    
  0.905143023       1.01448905     -0.606999993       2896.91528       1.57539129    
   1.01659799      0.902572989     -0.606999993       2896.91528       1.57539129    
   1.01591504      0.901737988     -0.303478003       3230.54883       1.57567501    
   1.01659799      0.902572989     -0.606999993       3230.54883       1.57567501    
   1.11731696      0.779847026     -0.606999993       3230.54883       1.57567501    
   1.11495602      0.778467000     -0.303483993       3230.54883       1.57567501    
   1.01591504      0.901737988     -0.303478003       4872.31689       1.59682751    
   1.01674199      0.902397990       0.00000000       4872.31689       1.59682751    
  0.905318975       1.01434398       0.00000000       4872.31689       1.59682751    
  0.904204011       1.01322901     -0.303456992       4872.31689       1.59682751    
  0.905318975       1.01434398       0.00000000       4278.42871       1.59679365    
  0.782918990       1.11479497       0.00000000       4278.42871       1.59679365    
  0.780644000       1.11195600     -0.303485006       4278.42871       1.59679365    
  0.904204011       1.01322901     -0.303456992       4278.42871       1.59679365    
  0.780644000       1.11195600     -0.303485006       2129.03516       1.57503188    
  0.645825028       1.19414902     -0.303514004       2129.03516       1.57503188    
  0.646153986       1.19492805     -0.606999993       2129.03516       1.57503188    
  0.782611012       1.11504900     -0.606999993       2129.03516       1.57503188    
  0.780644000       1.11195600     -0.303485006       2530.04590       1.57518291    
  0.782611012       1.11504900     -0.606999993       2530.04590       1.57518291    
  0.905143023       1.01448905     -0.606999993       2530.04590       1.57518291    
  0.904204011       1.01322901     -0.303456992       2530.04590       1.57518291    
  0.780644000       1.11195600     -0.303485006       3609.87451       1.59676075    
  0.782918990       1.11479497       0.00000000       3609.87451       1.59676075    
  0.646345019       1.19482601       0.00000000       3609.87451       1.59676075    
  0.645825028       1.19414902     -0.303514004       3609.87451       1.59676075    
  0.646345019       1.19482601       0.00000000       2894.37012       1.59685671    
  0.504974008       1.26637006       0.00000000       2894.37012       1.59685671    
  0.503772974       1.26314998     -0.303521991       2894.37012       1.59685671    
  0.645825028       1.19414902     -0.303514004       2894.37012       1.59685671    
  0.503772974       1.26314998     -0.303521991       1255.55579       1.57477331    
  0.353130996       1.31116498     -0.303510994       1255.55579       1.57477331    
  0.353300005       1.31237996     -0.606999993       1255.55579       1.57477331    
  0.505183995       1.26630700     -0.606999993       1255.55579       1.57477331    
  0.503772974       1.26314998     -0.303521991       1708.65356       1.57484865    
  0.505183995       1.26630700     -0.606999993       1708.65356       1.57484865    
  0.646153986       1.19492805     -0.606999993       1708.65356       1.57484865    
  0.645825028       1.19414902     -0.303514004       1708.65356       1.57484865    
  0.503772974       1.26314998     -0.303521991       2135.81738       1.59730315    
  0.504974008       1.26637006       0.00000000       2135.81738       1.59730315    
  0.353493989       1.31232095       0.00000000       2135.81738       1.59730315    
  0.353130996       1.31116498     -0.303510994       2135.81738       1.59730315    
  0.353493989       1.31232095       0.00000000       1343.76062       1.59717834    
  0.199064001       1.34539402       0.00000000       1343.76062       1.59717834    
  0.198755994       1.34360003     -0.303496003       1343.76062       1.59717834    
  0.353130996       1.31116498     -0.303510994       1343.76062       1.59717834    
  0.198755994       1.34360003     -0.303496003       321.011780       1.57344687    
   4.12769988E-02   1.35817802     -0.303508013       321.011780       1.57344687    
   4.12410013E-02   1.36093795     -0.606999993       321.011780       1.57344687    
  0.199025005       1.34539795     -0.606999993       321.011780       1.57344687    
  0.198755994       1.34360003     -0.303496003       793.831848       1.57422757    
  0.199025005       1.34539795     -0.606999993       793.831848       1.57422757    
  0.353300005       1.31237996     -0.606999993       793.831848       1.57422757    
  0.353130996       1.31116498     -0.303510994       793.831848       1.57422757    
  0.198755994       1.34360003     -0.303496003       542.094543       1.59800053    
  0.199064001       1.34539402       0.00000000       542.094543       1.59800053    
   4.17769998E-02   1.36088502       0.00000000       542.094543       1.59800053    
   4.12769988E-02   1.35817802     -0.303508013       542.094543       1.59800053    
   4.17769998E-02   1.36088502       0.00000000       264.038757      -1.54788411    
 -0.116410002       1.35353506       0.00000000       264.038757      -1.54788411    
 -0.116471998       1.35271096     -0.303496987       264.038757      -1.54788411    
   4.12769988E-02   1.35817802     -0.303508013       264.038757      -1.54788411    
 -0.116471998       1.35271096     -0.303496987       631.584106      -1.56516910    
 -0.273027003       1.33229196     -0.303496003       631.584106      -1.56516910    
 -0.273876995       1.33647299     -0.606999993       631.584106      -1.56516910    
 -0.116722003       1.35350394     -0.606999993       631.584106      -1.56516910    
 -0.116471998       1.35271096     -0.303496987       160.099792      -1.56245899    
 -0.116722003       1.35350394     -0.606999993       160.099792      -1.56245899    
   4.12410013E-02   1.36093795     -0.606999993       160.099792      -1.56245899    
   4.12769988E-02   1.35817802     -0.303508013       160.099792      -1.56245899    
 -0.116471998       1.35271096     -0.303496987       1079.48682      -1.54483855    
 -0.116410002       1.35353506       0.00000000       1079.48682      -1.54483855    
 -0.274069011       1.33641505       0.00000000       1079.48682      -1.54483855    
 -0.273027003       1.33229196     -0.303496003       1079.48682      -1.54483855    
 -0.274069011       1.33641505       0.00000000       1871.24304      -1.54526877    
 -0.425588995       1.29045200       0.00000000       1871.24304      -1.54526877    
 -0.425258011       1.28953803     -0.303507000       1871.24304      -1.54526877    
 -0.273027003       1.33229196     -0.303496003       1871.24304      -1.54526877    
 -0.425258011       1.28953803     -0.303507000       1553.90271      -1.56605160    
 -0.572302997       1.23206902     -0.303485990       1553.90271      -1.56605160    
 -0.573064029       1.23399496     -0.606999993       1553.90271      -1.56605160    
 -0.425651014       1.29043305     -0.606999993       1553.90271      -1.56605160    
 -0.425258011       1.28953803     -0.303507000       1105.18237      -1.56586444    
 -0.425651014       1.29043305     -0.606999993       1105.18237      -1.56586444    
 -0.273876995       1.33647299     -0.606999993       1105.18237      -1.56586444    
 -0.273027003       1.33229196     -0.303496003       1105.18237      -1.56586444    
 -0.425258011       1.28953803     -0.303507000       2617.07520      -1.54557669    
 -0.425588995       1.29045200       0.00000000       2617.07520      -1.54557669    
 -0.573195994       1.23392498       0.00000000       2617.07520      -1.54557669    
 -0.572302997       1.23206902     -0.303485990       2617.07520      -1.54557669    
 -0.573195994       1.23392498       0.00000000       3340.82520      -1.54575062    
 -0.712655008       1.15938199       0.00000000       3340.82520      -1.54575062    
 -0.711889029       1.15749002     -0.303496003       3340.82520      -1.54575062    
 -0.572302997       1.23206902     -0.303485990       3340.82520      -1.54575062    
 -0.711889029       1.15749002     -0.303496003       2394.45044      -1.56623352    
 -0.840825975       1.06629205     -0.303485990       2394.45044      -1.56623352    
 -0.841368973       1.06682706     -0.606999993       2394.45044      -1.56623352    
 -0.712980986       1.15920806     -0.606999993       2394.45044      -1.56623352    
 -0.711889029       1.15749002     -0.303496003       1986.46741      -1.56612682    
 -0.712980986       1.15920806     -0.606999993       1986.46741      -1.56612682    
 -0.573064029       1.23399496     -0.606999993       1986.46741      -1.56612682    
 -0.572302997       1.23206902     -0.303485990       1986.46741      -1.56612682    
 -0.711889029       1.15749002     -0.303496003       3995.77246      -1.54594648    
 -0.712655008       1.15938199       0.00000000       3995.77246      -1.54594648    
 -0.841165006       1.06699395       0.00000000       3995.77246      -1.54594648    
 -0.840825975       1.06629205     -0.303485990       3995.77246      -1.54594648    
 -0.841165006       1.06699395       0.00000000       4635.35400      -1.54540551    
 -0.963320017      0.966744006       0.00000000       4635.35400      -1.54540551    
 -0.960084975      0.962615013     -0.303470999       4635.35400      -1.54540551    
 -0.840825975       1.06629205     -0.303485990       4635.35400      -1.54540551    
 -0.960084975      0.962615013     -0.303470999       3125.09375      -1.56601977    
  -1.06383705      0.843237996     -0.303481996       3125.09375      -1.56601977    
  -1.06481802      0.843816996     -0.606999993       3125.09375      -1.56601977    
 -0.963873982      0.966289997     -0.606999993       3125.09375      -1.56601977    
 -0.960084975      0.962615013     -0.303470999       2770.77124      -1.56614196    
 -0.963873982      0.966289997     -0.606999993       2770.77124      -1.56614196    
 -0.841368973       1.06682706     -0.606999993       2770.77124      -1.56614196    
 -0.840825975       1.06629205     -0.303485990       2770.77124      -1.56614196    
 -0.960084975      0.962615013     -0.303470999       5237.90186      -1.54520714    
 -0.963320017      0.966744006       0.00000000       5237.90186      -1.54520714    
  -1.06464398      0.844029009       0.00000000       5237.90186      -1.54520714    
  -1.06383705      0.843237996     -0.303481996       5237.90186      -1.54520714    
  -1.06464398      0.844029009       0.00000000       5780.34424      -1.54496372    
  -1.15769398      0.715813994       0.00000000       5780.34424      -1.54496372    
  -1.15564799      0.714680016     -0.303483993       5780.34424      -1.54496372    
  -1.06383705      0.843237996     -0.303481996       5780.34424      -1.54496372    
  -1.15564799      0.714680016     -0.303483993       3718.63843      -1.56539786    
  -1.23108304      0.575536013     -0.303514004       3718.63843      -1.56539786    
  -1.23232996      0.576179981     -0.606999993       3718.63843      -1.56539786    
  -1.15756094      0.716063023     -0.606999993       3718.63843      -1.56539786    
  -1.15564799      0.714680016     -0.303483993       3440.65088      -1.56570184    
  -1.15756094      0.716063023     -0.606999993       3440.65088      -1.56570184    
  -1.06481802      0.843816996     -0.606999993       3440.65088      -1.56570184    
  -1.06383705      0.843237996     -0.303481996       3440.65088      -1.56570184    
  -1.15564799      0.714680016     -0.303483993       6313.41553      -1.54453576    
  -1.15769398      0.715813994       0.00000000       6313.41553      -1.54453576    
  -1.23224795      0.576331973       0.00000000       6313.41553      -1.54453576    
  -1.23108304      0.575536013     -0.303514004       6313.41553      -1.54453576    
  -1.23224795      0.576331973       0.00000000       6698.45020      -1.54447556    
  -1.28948605      0.428772002       0.00000000       6698.45020      -1.54447556    
  -1.28842103      0.428404987     -0.303512990       6698.45020      -1.54447556    
  -1.23108304      0.575536013     -0.303514004       6698.45020      -1.54447556    
  -1.28842103      0.428404987     -0.303512990       4100.78906      -1.56498158    
  -1.33082402      0.275959998     -0.303492010       4100.78906      -1.56498158    
  -1.33550000      0.277083993     -0.606999993       4100.78906      -1.56498158    