 VARIABLES="X" "Y" "Z" "abs(p) (Pa)" "angle(p) (rad)"
ZONE N=   2720,E =    2069, F=FEPOINT, ET=QUADRILATERAL
 -0.767116010      -1.12776399       0.00000000       1773.56592      -1.59543538    
 -0.769354999      -1.12002099     -0.303523988       1773.56592      -1.59543538    
 -0.896136999      -1.02028203     -0.303463012       1773.56592      -1.59543538    
 -0.894908011      -1.02288902       0.00000000       1773.56592      -1.59543538    
 -0.767116010      -1.12776399       0.00000000       1490.88989      -1.59563243    
 -0.630888999      -1.20308697       0.00000000       1490.88989      -1.59563243    
 -0.635528028      -1.19958198     -0.303541005       1490.88989      -1.59563243    
 -0.769354999      -1.12002099     -0.303523988       1490.88989      -1.59563243    
 -0.635528028      -1.19958198     -0.303541005       914.811646      -1.60241008    
 -0.495362997      -1.26606500     -0.303519011       914.811646      -1.60241008    
 -0.499298006      -1.26809204     -0.606999993       914.811646      -1.60241008    
 -0.640147984      -1.19813800     -0.606998026       914.811646      -1.60241008    
 -0.635528028      -1.19958198     -0.303541005       1132.50244      -1.60266018    
 -0.640147984      -1.19813800     -0.606998026       1132.50244      -1.60266018    
 -0.777105987      -1.11956596     -0.606999993       1132.50244      -1.60266018    
 -0.769354999      -1.12002099     -0.303523988       1132.50244      -1.60266018    
 -0.635528028      -1.19958198     -0.303541005       1202.85962      -1.59500122    
 -0.630888999      -1.20308697       0.00000000       1202.85962      -1.59500122    
 -0.494486004      -1.26955199       0.00000000       1202.85962      -1.59500122    
 -0.495362997      -1.26606500     -0.303519011       1202.85962      -1.59500122    
 -0.494486004      -1.26955199       0.00000000       894.298157      -1.59522080    
 -0.346311986      -1.31449997       0.00000000       894.298157      -1.59522080    
 -0.346753001      -1.31307304     -0.303510010       894.298157      -1.59522080    
 -0.495362997      -1.26606500     -0.303519011       894.298157      -1.59522080    
 -0.346753001      -1.31307304     -0.303510010       437.682343      -1.60237968    
 -0.193608001      -1.34425998     -0.303494990       437.682343      -1.60237968    
 -0.195028007      -1.34579206     -0.606999993       437.682343      -1.60237968    
 -0.348751009      -1.31376004     -0.606999993       437.682343      -1.60237968    
 -0.346753001      -1.31307304     -0.303510010       677.928589      -1.60269606    
 -0.348751009      -1.31376004     -0.606999993       677.928589      -1.60269606    
 -0.499298006      -1.26809204     -0.606999993       677.928589      -1.60269606    
 -0.495362997      -1.26606500     -0.303519011       677.928589      -1.60269606    
 -0.346753001      -1.31307304     -0.303510010       576.770386      -1.59507763    
 -0.346311986      -1.31449997       0.00000000       576.770386      -1.59507763    
 -0.193381995      -1.34595394       0.00000000       576.770386      -1.59507763    
 -0.193608001      -1.34425998     -0.303494990       576.770386      -1.59507763    
 -0.193381995      -1.34595394       0.00000000       249.429840      -1.59742379    
  -3.75179984E-02  -1.36130500       0.00000000       249.429840      -1.59742379    
  -3.73950005E-02  -1.35827899     -0.303512007       249.429840      -1.59742379    
 -0.193608001      -1.34425998     -0.303494990       249.429840      -1.59742379    
  -3.73950005E-02  -1.35827899     -0.303512007       63.4557686       1.53737783    
  0.119547002      -1.35239303     -0.303498000       63.4557686       1.53737783    
  0.119135000      -1.35326600     -0.606999993       63.4557686       1.53737783    
  -3.82840000E-02  -1.36122894     -0.606998980       63.4557686       1.53737783    
  -3.73950005E-02  -1.35827899     -0.303512007       190.259644      -1.60124063    
  -3.82840000E-02  -1.36122894     -0.606998980       190.259644      -1.60124063    
 -0.195028007      -1.34579206     -0.606999993       190.259644      -1.60124063    
 -0.193608001      -1.34425998     -0.303494990       190.259644      -1.60124063    
  -3.73950005E-02  -1.35827899     -0.303512007       83.2245102       1.55467892    
  -3.75179984E-02  -1.36130500       0.00000000       83.2245102       1.55467892    
  0.119788997      -1.35320199       0.00000000       83.2245102       1.55467892    
  0.119547002      -1.35239303     -0.303498000       83.2245102       1.55467892    
  0.119788997      -1.35320199       0.00000000       410.518280       1.54731309    
  0.276576012      -1.33565402       0.00000000       410.518280       1.54731309    
  0.275435001      -1.33191597     -0.303496003       410.518280       1.54731309    
  0.119547002      -1.35239303     -0.303498000       410.518280       1.54731309    
  0.275435001      -1.33191597     -0.303496003       563.100647       1.53967178    
  0.427076995      -1.28898001     -0.303507000       563.100647       1.53967178    
  0.427242011      -1.28995001     -0.606999993       563.100647       1.53967178    
  0.275831014      -1.33588004     -0.606999993       563.100647       1.53967178    
  0.275435001      -1.33191597     -0.303496003       310.261749       1.53904879    
  0.275831014      -1.33588004     -0.606999993       310.261749       1.53904879    
  0.119135000      -1.35326600     -0.606999993       310.261749       1.53904879    
  0.119547002      -1.35239303     -0.303498000       310.261749       1.53904879    
  0.275435001      -1.33191597     -0.303496003       740.706665       1.54735029    
  0.276576012      -1.33565402       0.00000000       740.706665       1.54735029    
  0.427509993      -1.28986895       0.00000000       740.706665       1.54735029    
  0.427076995      -1.28898001     -0.303507000       740.706665       1.54735029    
  0.427509993      -1.28986895       0.00000000       1054.12415       1.54713762    
  0.574636996      -1.23315501       0.00000000       1054.12415       1.54713762    
  0.573706985      -1.23136795     -0.303485990       1054.12415       1.54713762    
  0.427076995      -1.28898001     -0.303507000       1054.12415       1.54713762    
  0.573706985      -1.23136795     -0.303485990       1028.24744       1.53915346    
  0.712854981      -1.15688002     -0.303496987       1028.24744       1.53915346    
  0.713809013      -1.15876603     -0.606999993       1028.24744       1.53915346    
  0.574283004      -1.23334301     -0.606999993       1028.24744       1.53915346    
  0.573706985      -1.23136795     -0.303485990       799.426819       1.53923905    
  0.574283004      -1.23334301     -0.606999993       799.426819       1.53923905    
  0.427242011      -1.28995001     -0.606999993       799.426819       1.53923905    
  0.427076995      -1.28898001     -0.303507000       799.426819       1.53923905    
  0.573706985      -1.23136795     -0.303485990       1358.52527       1.54705751    
  0.574636996      -1.23315501       0.00000000       1358.52527       1.54705751    
  0.713741004      -1.15880203       0.00000000       1358.52527       1.54705751    
  0.712854981      -1.15688002     -0.303496987       1358.52527       1.54705751    
  0.713741004      -1.15880203       0.00000000       1643.53467       1.54700720    
  0.841937006      -1.06636095       0.00000000       1643.53467       1.54700720    
  0.841498017      -1.06573403     -0.303485990       1643.53467       1.54700720    
  0.712854981      -1.15688002     -0.303496987       1643.53467       1.54700720    
  0.841498017      -1.06573403     -0.303485990       1437.97144       1.53896534    
  0.960639000     -0.962104976     -0.303470999       1437.97144       1.53896534    
  0.964356005     -0.965893984     -0.606999993       1437.97144       1.53896534    
  0.841796994      -1.06647599     -0.606999993       1437.97144       1.53896534    
  0.841498017      -1.06573403     -0.303485990       1244.50598       1.53924966    
  0.841796994      -1.06647599     -0.606999993       1244.50598       1.53924966    
  0.713809013      -1.15876603     -0.606999993       1244.50598       1.53924966    
  0.712854981      -1.15688002     -0.303496987       1244.50598       1.53924966    
  0.841498017      -1.06573403     -0.303485990       1902.91199       1.54659498    
  0.841937006      -1.06636095       0.00000000       1902.91199       1.54659498    
  0.963932991     -0.966242015       0.00000000       1902.91199       1.54659498    
  0.960639000     -0.962104976     -0.303470999       1902.91199       1.54659498    
  0.963932991     -0.966242015       0.00000000       2141.55005       1.54664814    
   1.06506598     -0.843514979       0.00000000       2141.55005       1.54664814    
   1.06428695     -0.842682004     -0.303481996       2141.55005       1.54664814    
  0.960639000     -0.962104976     -0.303470999       2141.55005       1.54664814    
   1.06428695     -0.842682004     -0.303481996       1777.25159       1.53884649    
   1.15591598     -0.714210987     -0.303485006       1777.25159       1.53884649    
   1.15788805     -0.715448976     -0.606999993       1777.25159       1.53884649    
   1.06537795     -0.843134999     -0.606999993       1777.25159       1.53884649    
   1.06428695     -0.842682004     -0.303481996       1621.03540       1.53910339    
   1.06537795     -0.843134999     -0.606999993       1621.03540       1.53910339    
  0.964356005     -0.965893984     -0.606999993       1621.03540       1.53910339    
  0.960639000     -0.962104976     -0.303470999       1621.03540       1.53910339    
   1.06428695     -0.842682004     -0.303481996       2340.56177       1.54658568    
   1.06506598     -0.843514979       0.00000000       2340.56177       1.54658568    
   1.15792501     -0.715381980       0.00000000       2340.56177       1.54658568    
   1.15591598     -0.714210987     -0.303485006       2340.56177       1.54658568    
   1.15792501     -0.715381980       0.00000000       2518.16309       1.54647398    
   1.23237598     -0.576093972       0.00000000       2518.16309       1.54647398    
   1.23120904     -0.575251997     -0.303514004       2518.16309       1.54647398    
   1.15591598     -0.714210987     -0.303485006       2518.16309       1.54647398    
   1.23120904     -0.575251997     -0.303514004       2020.11182       1.53886926    
   1.28844094     -0.428344995     -0.303512990       2020.11182       1.53886926    
   1.28952503     -0.428642988     -0.606999993       2020.11182       1.53886926    
   1.23252702     -0.575810015     -0.606999993       2020.11182       1.53886926    
   1.23120904     -0.575251997     -0.303514004       1911.36633       1.53883207    
   1.23252702     -0.575810015     -0.606999993       1911.36633       1.53883207    
   1.15788805     -0.715448976     -0.606999993       1911.36633       1.53883207    
   1.15591598     -0.714210987     -0.303485006       1911.36633       1.53883207    
   1.23120904     -0.575251997     -0.303514004       2664.34692       1.54630804    
   1.23237598     -0.576093972       0.00000000       2664.34692       1.54630804    
   1.28947699     -0.428801000       0.00000000       2664.34692       1.54630804    
   1.28844094     -0.428344995     -0.303512990       2664.34692       1.54630804    
   1.28947699     -0.428801000       0.00000000       2779.40942       1.54642093    
   1.33532202     -0.277671993       0.00000000       2779.40942       1.54642093    
   1.33076501     -0.276203990     -0.303492010       2779.40942       1.54642093    
   1.28844094     -0.428344995     -0.303512990       2779.40942       1.54642093    
   1.33076501     -0.276203990     -0.303492010       2153.20776       1.53858984    
   1.35229194     -0.119709998     -0.303514004       2153.20776       1.53858984    
   1.35321999     -0.119608998     -0.606999993       2153.20776       1.53858984    
   1.33549094     -0.277112991     -0.606999993       2153.20776       1.53858984    
   1.33076501     -0.276203990     -0.303492010       2100.06128       1.53881633    
   1.33549094     -0.277112991     -0.606999993       2100.06128       1.53881633    
   1.28952503     -0.428642988     -0.606999993       2100.06128       1.53881633    
   1.28844094     -0.428344995     -0.303512990       2100.06128       1.53881633    
   1.33076501     -0.276203990     -0.303492010       2851.30737       1.54661798    
   1.33532202     -0.277671993       0.00000000       2851.30737       1.54661798    
   1.35319102     -0.119900003       0.00000000       2851.30737       1.54661798    
   1.35229194     -0.119709998     -0.303514004       2851.30737       1.54661798    
   1.35319102     -0.119900003       0.00000000       2880.05200       1.54660130    
   1.36124396       3.81390005E-02   0.00000000       2880.05200       1.54660130    
   1.35858905       3.79349999E-02 -0.303501010       2880.05200       1.54660130    
   1.35229194     -0.119709998     -0.303514004       2880.05200       1.54660130    
   1.35858905       3.79349999E-02 -0.303501010       2169.42310       1.53874755    
   1.34464097      0.195331007     -0.303496003       2169.42310       1.53874755    
   1.34573400      0.195616007     -0.606999993       2169.42310       1.53874755    
   1.36126804       3.78950015E-02 -0.606999993       2169.42310       1.53874755    
   1.35858905       3.79349999E-02 -0.303501010       2176.28174       1.53877425    
   1.36126804       3.78950015E-02 -0.606999993       2176.28174       1.53877425    
   1.35321999     -0.119608998     -0.606999993       2176.28174       1.53877425    
   1.35229194     -0.119709998     -0.303514004       2176.28174       1.53877425    
   1.35858905       3.79349999E-02 -0.303501010       2871.60962       1.54636335    
   1.36124396       3.81390005E-02   0.00000000       2871.60962       1.54636335    
   1.34575403      0.195406005       0.00000000       2871.60962       1.54636335    
   1.34464097      0.195331007     -0.303496003       2871.60962       1.54636335    
   1.34575403      0.195406005       0.00000000       2822.29932       1.54633880    
   1.31339800      0.349945009       0.00000000       2822.29932       1.54633880    
   1.31216300      0.349725991     -0.303487003       2822.29932       1.54633880    
   1.34464097      0.195331007     -0.303496003       2822.29932       1.54633880    
   1.31216300      0.349725991     -0.303487003       2066.05737       1.53885055    
   1.26341999      0.500032008     -0.303494006       2066.05737       1.53885055    
   1.26736605      0.501691997     -0.606999993       2066.05737       1.53885055    
   1.31333196      0.350163996     -0.606999993       2066.05737       1.53885055    
   1.31216300      0.349725991     -0.303487003       2132.85938       1.53876317    
   1.31333196      0.350163996     -0.606999993       2132.85938       1.53876317    
   1.34573400      0.195616007     -0.606999993       2132.85938       1.53876317    
   1.34464097      0.195331007     -0.303496003       2132.85938       1.53876317    
   1.31216300      0.349725991     -0.303487003       2735.72461       1.54625273    
   1.31339800      0.349945009       0.00000000       2735.72461       1.54625273    
   1.26751196      0.501209974       0.00000000       2735.72461       1.54625273    
   1.26341999      0.500032008     -0.303494006       2735.72461       1.54625273    
   1.26751196      0.501209974       0.00000000       2614.67871       1.54651022    
   1.19658697      0.643051028       0.00000000       2614.67871       1.54651022    
   1.19583094      0.642783999     -0.303505003       2614.67871       1.54651022    
   1.26341999      0.500032008     -0.303494006       2614.67871       1.54651022    
   1.19583094      0.642783999     -0.303505003       1853.70752       1.53860879    
   1.11495602      0.778467000     -0.303483993       1853.70752       1.53860879    
   1.11731696      0.779847026     -0.606999993       1853.70752       1.53860879    
   1.19653296      0.643149972     -0.606999993       1853.70752       1.53860879    
   1.19583094      0.642783999     -0.303505003       1971.30151       1.53883505    
   1.19653296      0.643149972     -0.606999993       1971.30151       1.53883505    
   1.26736605      0.501691997     -0.606999993       1971.30151       1.53883505    
   1.26341999      0.500032008     -0.303494006       1971.30151       1.53883505    
   1.19583094      0.642783999     -0.303505003       2455.65820       1.54669499    
   1.19658697      0.643051028       0.00000000       2455.65820       1.54669499    
   1.11705506      0.780165970       0.00000000       2455.65820       1.54669499    
   1.11495602      0.778467000     -0.303483993       2455.65820       1.54669499    
   1.11705506      0.780165970       0.00000000       2257.32812       1.54672921    
   1.01674199      0.902397990       0.00000000       2257.32812       1.54672921    
   1.01591504      0.901737988     -0.303478003       2257.32812       1.54672921    
   1.11495602      0.778467000     -0.303483993       2257.32812       1.54672921    
   1.01591504      0.901737988     -0.303478003       1537.47400       1.53890002    
  0.904204011       1.01322901     -0.303456992       1537.47400       1.53890002    
  0.905143023       1.01448905     -0.606999993       1537.47400       1.53890002    
   1.01659799      0.902572989     -0.606999993       1537.47400       1.53890002    
   1.01591504      0.901737988     -0.303478003       1705.28003       1.53880620    
   1.01659799      0.902572989     -0.606999993       1705.28003       1.53880620    
   1.11731696      0.779847026     -0.606999993       1705.28003       1.53880620    
   1.11495602      0.778467000     -0.303483993       1705.28003       1.53880620    
   1.01591504      0.901737988     -0.303478003       2029.95081       1.54684579    
   1.01674199      0.902397990       0.00000000       2029.95081       1.54684579    
  0.905318975       1.01434398       0.00000000       2029.95081       1.54684579    
  0.904204011       1.01322901     -0.303456992       2029.95081       1.54684579    
  0.905318975       1.01434398       0.00000000       1783.26147       1.54657292    
  0.782918990       1.11479497       0.00000000       1783.26147       1.54657292    
  0.780644000       1.11195600     -0.303485006       1783.26147       1.54657292    
  0.904204011       1.01322901     -0.303456992       1783.26147       1.54657292    
  0.780644000       1.11195600     -0.303485006       1139.14673       1.53885245    
  0.645825028       1.19414902     -0.303514004       1139.14673       1.53885245    
  0.646153986       1.19492805     -0.606999993       1139.14673       1.53885245    
  0.782611012       1.11504900     -0.606999993       1139.14673       1.53885245    
  0.780644000       1.11195600     -0.303485006       1348.90845       1.53894138    
  0.782611012       1.11504900     -0.606999993       1348.90845       1.53894138    
  0.905143023       1.01448905     -0.606999993       1348.90845       1.53894138    
  0.904204011       1.01322901     -0.303456992       1348.90845       1.53894138    
  0.780644000       1.11195600     -0.303485006       1507.20825       1.54647756    
  0.782918990       1.11479497       0.00000000       1507.20825       1.54647756    
  0.646345019       1.19482601       0.00000000       1507.20825       1.54647756    
  0.645825028       1.19414902     -0.303514004       1507.20825       1.54647756    
  0.646345019       1.19482601       0.00000000       1215.61060       1.54714799    
  0.504974008       1.26637006       0.00000000       1215.61060       1.54714799    
  0.503772974       1.26314998     -0.303521991       1215.61060       1.54714799    
  0.645825028       1.19414902     -0.303514004       1215.61060       1.54714799    
  0.503772974       1.26314998     -0.303521991       679.704773       1.53867710    
  0.353130996       1.31116498     -0.303510994       679.704773       1.53867710    
  0.353300005       1.31237996     -0.606999993       679.704773       1.53867710    
  0.505183995       1.26630700     -0.606999993       679.704773       1.53867710    
  0.503772974       1.26314998     -0.303521991       920.227600       1.53908885    
  0.505183995       1.26630700     -0.606999993       920.227600       1.53908885    
  0.646153986       1.19492805     -0.606999993       920.227600       1.53908885    
  0.645825028       1.19414902     -0.303514004       920.227600       1.53908885    
  0.503772974       1.26314998     -0.303521991       899.725525       1.54708195    
  0.504974008       1.26637006       0.00000000       899.725525       1.54708195    
  0.353493989       1.31232095       0.00000000       899.725525       1.54708195    
  0.353130996       1.31116498     -0.303510994       899.725525       1.54708195    
  0.353493989       1.31232095       0.00000000       577.680603       1.54769635    
  0.199064001       1.34539402       0.00000000       577.680603       1.54769635    
  0.198755994       1.34360003     -0.303496003       577.680603       1.54769635    
  0.353130996       1.31116498     -0.303510994       577.680603       1.54769635    
  0.198755994       1.34360003     -0.303496003       188.915054       1.54279602    
   4.12769988E-02   1.35817802     -0.303508013       188.915054       1.54279602    
   4.12410013E-02   1.36093795     -0.606999993       188.915054       1.54279602    
  0.199025005       1.34539795     -0.606999993       188.915054       1.54279602    
  0.198755994       1.34360003     -0.303496003       437.818359       1.53896344    
  0.199025005       1.34539795     -0.606999993       437.818359       1.53896344    
  0.353300005       1.31237996     -0.606999993       437.818359       1.53896344    
  0.353130996       1.31116498     -0.303510994       437.818359       1.53896344    
  0.198755994       1.34360003     -0.303496003       247.628265       1.54958737    
  0.199064001       1.34539402       0.00000000       247.628265       1.54958737    
   4.17769998E-02   1.36088502       0.00000000       247.628265       1.54958737    
   4.12769988E-02   1.35817802     -0.303508013       247.628265       1.54958737    
   4.17769998E-02   1.36088502       0.00000000       86.9069061      -1.60341954    
 -0.116410002       1.35353506       0.00000000       86.9069061      -1.60341954    
 -0.116471998       1.35271096     -0.303496987       86.9069061      -1.60341954    
   4.12769988E-02   1.35817802     -0.303508013       86.9069061      -1.60341954    
 -0.116471998       1.35271096     -0.303496987       312.805878      -1.60655057    
 -0.273027003       1.33229196     -0.303496003       312.805878      -1.60655057    
 -0.273876995       1.33647299     -0.606999993       312.805878      -1.60655057    
 -0.116722003       1.35350394     -0.606999993       312.805878      -1.60655057    
 -0.116471998       1.35271096     -0.303496987       65.7278061      -1.61231458    
 -0.116722003       1.35350394     -0.606999993       65.7278061      -1.61231458    
   4.12410013E-02   1.36093795     -0.606999993       65.7278061      -1.61231458    
   4.12769988E-02   1.35817802     -0.303508013       65.7278061      -1.61231458    
 -0.116471998       1.35271096     -0.303496987       417.257080      -1.59747195    
 -0.116410002       1.35353506       0.00000000       417.257080      -1.59747195    
 -0.274069011       1.33641505       0.00000000       417.257080      -1.59747195    
 -0.273027003       1.33229196     -0.303496003       417.257080      -1.59747195    
 -0.274069011       1.33641505       0.00000000       749.349365      -1.59604013    
 -0.425588995       1.29045200       0.00000000       749.349365      -1.59604013    
 -0.425258011       1.28953803     -0.303507000       749.349365      -1.59604013    
 -0.273027003       1.33229196     -0.303496003       749.349365      -1.59604013    
 -0.425258011       1.28953803     -0.303507000       803.392578      -1.60393810    
 -0.572302997       1.23206902     -0.303485990       803.392578      -1.60393810    
 -0.573064029       1.23399496     -0.606999993       803.392578      -1.60393810    
 -0.425651014       1.29043305     -0.606999993       803.392578      -1.60393810    
 -0.425258011       1.28953803     -0.303507000       566.191711      -1.60418022    
 -0.425651014       1.29043305     -0.606999993       566.191711      -1.60418022    
 -0.273876995       1.33647299     -0.606999993       566.191711      -1.60418022    
 -0.273027003       1.33229196     -0.303496003       566.191711      -1.60418022    
 -0.425258011       1.28953803     -0.303507000       1063.84607      -1.59579122    
 -0.425588995       1.29045200       0.00000000       1063.84607      -1.59579122    
 -0.573195994       1.23392498       0.00000000       1063.84607      -1.59579122    
 -0.572302997       1.23206902     -0.303485990       1063.84607      -1.59579122    
 -0.573195994       1.23392498       0.00000000       1369.03857      -1.59553158    
 -0.712655008       1.15938199       0.00000000       1369.03857      -1.59553158    
 -0.711889029       1.15749002     -0.303496003       1369.03857      -1.59553158    
 -0.572302997       1.23206902     -0.303485990       1369.03857      -1.59553158    
 -0.711889029       1.15749002     -0.303496003       1250.12402      -1.60329854    
 -0.840825975       1.06629205     -0.303485990       1250.12402      -1.60329854    
 -0.841368973       1.06682706     -0.606999993       1250.12402      -1.60329854    
 -0.712980986       1.15920806     -0.606999993       1250.12402      -1.60329854    
 -0.711889029       1.15749002     -0.303496003       1033.09802      -1.60354233    
 -0.712980986       1.15920806     -0.606999993       1033.09802      -1.60354233    
 -0.573064029       1.23399496     -0.606999993       1033.09802      -1.60354233    
 -0.572302997       1.23206902     -0.303485990       1033.09802      -1.60354233    
 -0.711889029       1.15749002     -0.303496003       1652.29980      -1.59533536    
 -0.712655008       1.15938199       0.00000000       1652.29980      -1.59533536    
 -0.841165006       1.06699395       0.00000000       1652.29980      -1.59533536    
 -0.840825975       1.06629205     -0.303485990       1652.29980      -1.59533536    
 -0.841165006       1.06699395       0.00000000       1911.91272      -1.59541392    
 -0.963320017      0.966744006       0.00000000       1911.91272      -1.59541392    
 -0.960084975      0.962615013     -0.303470999       1911.91272      -1.59541392    
 -0.840825975       1.06629205     -0.303485990       1911.91272      -1.59541392    
 -0.960084975      0.962615013     -0.303470999       1630.13953      -1.60311925    
  -1.06383705      0.843237996     -0.303481996       1630.13953      -1.60311925    
  -1.06481802      0.843816996     -0.606999993       1630.13953      -1.60311925    
 -0.963873982      0.966289997     -0.606999993       1630.13953      -1.60311925    
 -0.960084975      0.962615013     -0.303470999       1446.10742      -1.60336399    
 -0.963873982      0.966289997     -0.606999993       1446.10742      -1.60336399    
 -0.841368973       1.06682706     -0.606999993       1446.10742      -1.60336399    
 -0.840825975       1.06629205     -0.303485990       1446.10742      -1.60336399    
 -0.960084975      0.962615013     -0.303470999       2153.33862      -1.59534848    
 -0.963320017      0.966744006       0.00000000       2153.33862      -1.59534848    
  -1.06464398      0.844029009       0.00000000       2153.33862      -1.59534848    
  -1.06383705      0.843237996     -0.303481996       2153.33862      -1.59534848    
  -1.06464398      0.844029009       0.00000000       2359.56226      -1.59540939    
  -1.15769398      0.715813994       0.00000000       2359.56226      -1.59540939    
  -1.15564799      0.714680016     -0.303483993       2359.56226      -1.59540939    
  -1.06383705      0.843237996     -0.303481996       2359.56226      -1.59540939    
  -1.15564799      0.714680016     -0.303483993       1921.28662      -1.60318172    
  -1.23108304      0.575536013     -0.303514004       1921.28662      -1.60318172    
  -1.23232996      0.576179981     -0.606999993       1921.28662      -1.60318172    
  -1.15756094      0.716063023     -0.606999993       1921.28662      -1.60318172    
  -1.15564799      0.714680016     -0.303483993       1785.98279      -1.60315812    
  -1.15756094      0.716063023     -0.606999993       1785.98279      -1.60315812    
  -1.06481802      0.843816996     -0.606999993       1785.98279      -1.60315812    
  -1.06383705      0.843237996     -0.303481996       1785.98279      -1.60315812    
  -1.15564799      0.714680016     -0.303483993       2544.26514      -1.59550571    
  -1.15769398      0.715813994       0.00000000       2544.26514      -1.59550571    
  -1.23224795      0.576331973       0.00000000       2544.26514      -1.59550571    
  -1.23108304      0.575536013     -0.303514004       2544.26514      -1.59550571    
  -1.23224795      0.576331973       0.00000000       2687.42627      -1.59556651    
  -1.28948605      0.428772002       0.00000000       2687.42627      -1.59556651    
  -1.28842103      0.428404987     -0.303512990       2687.42627      -1.59556651    
  -1.23108304      0.575536013     -0.303514004       2687.42627      -1.59556651    
  -1.28842103      0.428404987     -0.303512990       2106.43726      -1.60301685    
  -1.33082402      0.275959998     -0.303492010       2106.43726      -1.60301685    
  -1.33550000      0.277083993     -0.606999993       2106.43726      -1.60301685    