 VARIABLES="X" "Y" "Z" "abs(p) (Pa)" "angle(p) (rad)"
ZONE N=   2720,E =    2069, F=FEPOINT, ET=QUADRILATERAL
 -0.767116010      -1.12776399       0.00000000       15592.8467       1.64250791    
 -0.769354999      -1.12002099     -0.303523988       15592.8467       1.64250791    
 -0.896136999      -1.02028203     -0.303463012       15592.8467       1.64250791    
 -0.894908011      -1.02288902       0.00000000       15592.8467       1.64250791    
 -0.767116010      -1.12776399       0.00000000       15577.6641       1.64250410    
 -0.630888999      -1.20308697       0.00000000       15577.6641       1.64250410    
 -0.635528028      -1.19958198     -0.303541005       15577.6641       1.64250410    
 -0.769354999      -1.12002099     -0.303523988       15577.6641       1.64250410    
 -0.635528028      -1.19958198     -0.303541005       11667.8955       1.64066017    
 -0.495362997      -1.26606500     -0.303519011       11667.8955       1.64066017    
 -0.499298006      -1.26809204     -0.606999993       11667.8955       1.64066017    
 -0.640147984      -1.19813800     -0.606998026       11667.8955       1.64066017    
 -0.635528028      -1.19958198     -0.303541005       11676.8545       1.64066076    
 -0.640147984      -1.19813800     -0.606998026       11676.8545       1.64066076    
 -0.777105987      -1.11956596     -0.606999993       11676.8545       1.64066076    
 -0.769354999      -1.12002099     -0.303523988       11676.8545       1.64066076    
 -0.635528028      -1.19958198     -0.303541005       15530.0312       1.64249945    
 -0.630888999      -1.20308697       0.00000000       15530.0312       1.64249945    
 -0.494486004      -1.26955199       0.00000000       15530.0312       1.64249945    
 -0.495362997      -1.26606500     -0.303519011       15530.0312       1.64249945    
 -0.494486004      -1.26955199       0.00000000       15544.8037       1.64249539    
 -0.346311986      -1.31449997       0.00000000       15544.8037       1.64249539    
 -0.346753001      -1.31307304     -0.303510010       15544.8037       1.64249539    
 -0.495362997      -1.26606500     -0.303519011       15544.8037       1.64249539    
 -0.346753001      -1.31307304     -0.303510010       11642.7812       1.64067423    
 -0.193608001      -1.34425998     -0.303494990       11642.7812       1.64067423    
 -0.195028007      -1.34579206     -0.606999993       11642.7812       1.64067423    
 -0.348751009      -1.31376004     -0.606999993       11642.7812       1.64067423    
 -0.346753001      -1.31307304     -0.303510010       11661.3350       1.64065874    
 -0.348751009      -1.31376004     -0.606999993       11661.3350       1.64065874    
 -0.499298006      -1.26809204     -0.606999993       11661.3350       1.64065874    
 -0.495362997      -1.26606500     -0.303519011       11661.3350       1.64065874    
 -0.346753001      -1.31307304     -0.303510010       15528.3545       1.64250016    
 -0.346311986      -1.31449997       0.00000000       15528.3545       1.64250016    
 -0.193381995      -1.34595394       0.00000000       15528.3545       1.64250016    
 -0.193608001      -1.34425998     -0.303494990       15528.3545       1.64250016    
 -0.193381995      -1.34595394       0.00000000       15520.4609       1.64250445    
  -3.75179984E-02  -1.36130500       0.00000000       15520.4609       1.64250445    
  -3.73950005E-02  -1.35827899     -0.303512007       15520.4609       1.64250445    
 -0.193608001      -1.34425998     -0.303494990       15520.4609       1.64250445    
  -3.73950005E-02  -1.35827899     -0.303512007       11603.2305       1.64065874    
  0.119547002      -1.35239303     -0.303498000       11603.2305       1.64065874    
  0.119135000      -1.35326600     -0.606999993       11603.2305       1.64065874    
  -3.82840000E-02  -1.36122894     -0.606998980       11603.2305       1.64065874    
  -3.73950005E-02  -1.35827899     -0.303512007       11629.4648       1.64065230    
  -3.82840000E-02  -1.36122894     -0.606998980       11629.4648       1.64065230    
 -0.195028007      -1.34579206     -0.606999993       11629.4648       1.64065230    
 -0.193608001      -1.34425998     -0.303494990       11629.4648       1.64065230    
  -3.73950005E-02  -1.35827899     -0.303512007       15419.4941       1.64251888    
  -3.75179984E-02  -1.36130500       0.00000000       15419.4941       1.64251888    
  0.119788997      -1.35320199       0.00000000       15419.4941       1.64251888    
  0.119547002      -1.35239303     -0.303498000       15419.4941       1.64251888    
  0.119788997      -1.35320199       0.00000000       15369.8838       1.64251518    
  0.276576012      -1.33565402       0.00000000       15369.8838       1.64251518    
  0.275435001      -1.33191597     -0.303496003       15369.8838       1.64251518    
  0.119547002      -1.35239303     -0.303498000       15369.8838       1.64251518    
  0.275435001      -1.33191597     -0.303496003       11558.2314       1.64063799    
  0.427076995      -1.28898001     -0.303507000       11558.2314       1.64063799    
  0.427242011      -1.28995001     -0.606999993       11558.2314       1.64063799    
  0.275831014      -1.33588004     -0.606999993       11558.2314       1.64063799    
  0.275435001      -1.33191597     -0.303496003       11582.4277       1.64063644    
  0.275831014      -1.33588004     -0.606999993       11582.4277       1.64063644    
  0.119135000      -1.35326600     -0.606999993       11582.4277       1.64063644    
  0.119547002      -1.35239303     -0.303498000       11582.4277       1.64063644    
  0.275435001      -1.33191597     -0.303496003       15295.5508       1.64252603    
  0.276576012      -1.33565402       0.00000000       15295.5508       1.64252603    
  0.427509993      -1.28986895       0.00000000       15295.5508       1.64252603    
  0.427076995      -1.28898001     -0.303507000       15295.5508       1.64252603    
  0.427509993      -1.28986895       0.00000000       15143.6934       1.64256299    
  0.574636996      -1.23315501       0.00000000       15143.6934       1.64256299    
  0.573706985      -1.23136795     -0.303485990       15143.6934       1.64256299    
  0.427076995      -1.28898001     -0.303507000       15143.6934       1.64256299    
  0.573706985      -1.23136795     -0.303485990       11529.2988       1.64065862    
  0.712854981      -1.15688002     -0.303496987       11529.2988       1.64065862    
  0.713809013      -1.15876603     -0.606999993       11529.2988       1.64065862    
  0.574283004      -1.23334301     -0.606999993       11529.2988       1.64065862    
  0.573706985      -1.23136795     -0.303485990       11532.3555       1.64066446    
  0.574283004      -1.23334301     -0.606999993       11532.3555       1.64066446    
  0.427242011      -1.28995001     -0.606999993       11532.3555       1.64066446    
  0.427076995      -1.28898001     -0.303507000       11532.3555       1.64066446    
  0.573706985      -1.23136795     -0.303485990       15085.4229       1.64258039    
  0.574636996      -1.23315501       0.00000000       15085.4229       1.64258039    
  0.713741004      -1.15880203       0.00000000       15085.4229       1.64258039    
  0.712854981      -1.15688002     -0.303496987       15085.4229       1.64258039    
  0.713741004      -1.15880203       0.00000000       15060.9062       1.64259541    
  0.841937006      -1.06636095       0.00000000       15060.9062       1.64259541    
  0.841498017      -1.06573403     -0.303485990       15060.9062       1.64259541    
  0.712854981      -1.15688002     -0.303496987       15060.9062       1.64259541    
  0.841498017      -1.06573403     -0.303485990       11555.6426       1.64065981    
  0.960639000     -0.962104976     -0.303470999       11555.6426       1.64065981    
  0.964356005     -0.965893984     -0.606999993       11555.6426       1.64065981    
  0.841796994      -1.06647599     -0.606999993       11555.6426       1.64065981    
  0.841498017      -1.06573403     -0.303485990       11529.5947       1.64068127    
  0.841796994      -1.06647599     -0.606999993       11529.5947       1.64068127    
  0.713809013      -1.15876603     -0.606999993       11529.5947       1.64068127    
  0.712854981      -1.15688002     -0.303496987       11529.5947       1.64068127    
  0.841498017      -1.06573403     -0.303485990       15208.4492       1.64257920    
  0.841937006      -1.06636095       0.00000000       15208.4492       1.64257920    
  0.963932991     -0.966242015       0.00000000       15208.4492       1.64257920    
  0.960639000     -0.962104976     -0.303470999       15208.4492       1.64257920    
  0.963932991     -0.966242015       0.00000000       15273.2256       1.64257753    
   1.06506598     -0.843514979       0.00000000       15273.2256       1.64257753    
   1.06428695     -0.842682004     -0.303481996       15273.2256       1.64257753    
  0.960639000     -0.962104976     -0.303470999       15273.2256       1.64257753    
   1.06428695     -0.842682004     -0.303481996       11575.0020       1.64078784    
   1.15591598     -0.714210987     -0.303485006       11575.0020       1.64078784    
   1.15788805     -0.715448976     -0.606999993       11575.0020       1.64078784    
   1.06537795     -0.843134999     -0.606999993       11575.0020       1.64078784    
   1.06428695     -0.842682004     -0.303481996       11574.7275       1.64066410    
   1.06537795     -0.843134999     -0.606999993       11574.7275       1.64066410    
  0.964356005     -0.965893984     -0.606999993       11574.7275       1.64066410    
  0.960639000     -0.962104976     -0.303470999       11574.7275       1.64066410    
   1.06428695     -0.842682004     -0.303481996       15202.5234       1.64258122    
   1.06506598     -0.843514979       0.00000000       15202.5234       1.64258122    
   1.15792501     -0.715381980       0.00000000       15202.5234       1.64258122    
   1.15591598     -0.714210987     -0.303485006       15202.5234       1.64258122    
   1.15792501     -0.715381980       0.00000000       15337.5000       1.64255667    
   1.23237598     -0.576093972       0.00000000       15337.5000       1.64255667    
   1.23120904     -0.575251997     -0.303514004       15337.5000       1.64255667    
   1.15591598     -0.714210987     -0.303485006       15337.5000       1.64255667    
   1.23120904     -0.575251997     -0.303514004       11635.1426       1.64079440    
   1.28844094     -0.428344995     -0.303512990       11635.1426       1.64079440    
   1.28952503     -0.428642988     -0.606999993       11635.1426       1.64079440    
   1.23252702     -0.575810015     -0.606999993       11635.1426       1.64079440    
   1.23120904     -0.575251997     -0.303514004       11612.0020       1.64078045    
   1.23252702     -0.575810015     -0.606999993       11612.0020       1.64078045    
   1.15788805     -0.715448976     -0.606999993       11612.0020       1.64078045    
   1.15591598     -0.714210987     -0.303485006       11612.0020       1.64078045    
   1.23120904     -0.575251997     -0.303514004       15422.9082       1.64262080    
   1.23237598     -0.576093972       0.00000000       15422.9082       1.64262080    
   1.28947699     -0.428801000       0.00000000       15422.9082       1.64262080    
   1.28844094     -0.428344995     -0.303512990       15422.9082       1.64262080    
   1.28947699     -0.428801000       0.00000000       15532.6533       1.64262748    
   1.33532202     -0.277671993       0.00000000       15532.6533       1.64262748    
   1.33076501     -0.276203990     -0.303492010       15532.6533       1.64262748    
   1.28844094     -0.428344995     -0.303512990       15532.6533       1.64262748    
   1.33076501     -0.276203990     -0.303492010       11662.6182       1.64083064    
   1.35229194     -0.119709998     -0.303514004       11662.6182       1.64083064    
   1.35321999     -0.119608998     -0.606999993       11662.6182       1.64083064    
   1.33549094     -0.277112991     -0.606999993       11662.6182       1.64083064    
   1.33076501     -0.276203990     -0.303492010       11657.4941       1.64077258    
   1.33549094     -0.277112991     -0.606999993       11657.4941       1.64077258    
   1.28952503     -0.428642988     -0.606999993       11657.4941       1.64077258    
   1.28844094     -0.428344995     -0.303512990       11657.4941       1.64077258    
   1.33076501     -0.276203990     -0.303492010       15559.8164       1.64255786    
   1.33532202     -0.277671993       0.00000000       15559.8164       1.64255786    
   1.35319102     -0.119900003       0.00000000       15559.8164       1.64255786    
   1.35229194     -0.119709998     -0.303514004       15559.8164       1.64255786    
   1.35319102     -0.119900003       0.00000000       15581.4121       1.64255071    
   1.36124396       3.81390005E-02   0.00000000       15581.4121       1.64255071    
   1.35858905       3.79349999E-02 -0.303501010       15581.4121       1.64255071    
   1.35229194     -0.119709998     -0.303514004       15581.4121       1.64255071    
   1.35858905       3.79349999E-02 -0.303501010       11720.4062       1.64074981    
   1.34464097      0.195331007     -0.303496003       11720.4062       1.64074981    
   1.34573400      0.195616007     -0.606999993       11720.4062       1.64074981    
   1.36126804       3.78950015E-02 -0.606999993       11720.4062       1.64074981    
   1.35858905       3.79349999E-02 -0.303501010       11700.2285       1.64075100    
   1.36126804       3.78950015E-02 -0.606999993       11700.2285       1.64075100    
   1.35321999     -0.119608998     -0.606999993       11700.2285       1.64075100    
   1.35229194     -0.119709998     -0.303514004       11700.2285       1.64075100    
   1.35858905       3.79349999E-02 -0.303501010       15625.6270       1.64258456    
   1.36124396       3.81390005E-02   0.00000000       15625.6270       1.64258456    
   1.34575403      0.195406005       0.00000000       15625.6270       1.64258456    
   1.34464097      0.195331007     -0.303496003       15625.6270       1.64258456    
   1.34575403      0.195406005       0.00000000       15656.2793       1.64257681    
   1.31339800      0.349945009       0.00000000       15656.2793       1.64257681    
   1.31216300      0.349725991     -0.303487003       15656.2793       1.64257681    
   1.34464097      0.195331007     -0.303496003       15656.2793       1.64257681    
   1.31216300      0.349725991     -0.303487003       11738.9883       1.64075267    
   1.26341999      0.500032008     -0.303494006       11738.9883       1.64075267    
   1.26736605      0.501691997     -0.606999993       11738.9883       1.64075267    
   1.31333196      0.350163996     -0.606999993       11738.9883       1.64075267    
   1.31216300      0.349725991     -0.303487003       11727.4561       1.64076340    
   1.31333196      0.350163996     -0.606999993       11727.4561       1.64076340    
   1.34573400      0.195616007     -0.606999993       11727.4561       1.64076340    
   1.34464097      0.195331007     -0.303496003       11727.4561       1.64076340    
   1.31216300      0.349725991     -0.303487003       15743.9023       1.64256847    
   1.31339800      0.349945009       0.00000000       15743.9023       1.64256847    
   1.26751196      0.501209974       0.00000000       15743.9023       1.64256847    
   1.26341999      0.500032008     -0.303494006       15743.9023       1.64256847    
   1.26751196      0.501209974       0.00000000       15730.9258       1.64253044    
   1.19658697      0.643051028       0.00000000       15730.9258       1.64253044    
   1.19583094      0.642783999     -0.303505003       15730.9258       1.64253044    
   1.26341999      0.500032008     -0.303494006       15730.9258       1.64253044    
   1.19583094      0.642783999     -0.303505003       11695.6953       1.64076900    
   1.11495602      0.778467000     -0.303483993       11695.6953       1.64076900    
   1.11731696      0.779847026     -0.606999993       11695.6953       1.64076900    
   1.19653296      0.643149972     -0.606999993       11695.6953       1.64076900    
   1.19583094      0.642783999     -0.303505003       11725.2646       1.64075732    
   1.19653296      0.643149972     -0.606999993       11725.2646       1.64075732    
   1.26736605      0.501691997     -0.606999993       11725.2646       1.64075732    
   1.26341999      0.500032008     -0.303494006       11725.2646       1.64075732    
   1.19583094      0.642783999     -0.303505003       15587.2539       1.64254594    
   1.19658697      0.643051028       0.00000000       15587.2539       1.64254594    
   1.11705506      0.780165970       0.00000000       15587.2539       1.64254594    
   1.11495602      0.778467000     -0.303483993       15587.2539       1.64254594    
   1.11705506      0.780165970       0.00000000       15462.1416       1.64256227    
   1.01674199      0.902397990       0.00000000       15462.1416       1.64256227    
   1.01591504      0.901737988     -0.303478003       15462.1416       1.64256227    
   1.11495602      0.778467000     -0.303483993       15462.1416       1.64256227    
   1.01591504      0.901737988     -0.303478003       11632.7109       1.64072835    
  0.904204011       1.01322901     -0.303456992       11632.7109       1.64072835    
  0.905143023       1.01448905     -0.606999993       11632.7109       1.64072835    
   1.01659799      0.902572989     -0.606999993       11632.7109       1.64072835    
   1.01591504      0.901737988     -0.303478003       11674.6465       1.64071369    
   1.01659799      0.902572989     -0.606999993       11674.6465       1.64071369    
   1.11731696      0.779847026     -0.606999993       11674.6465       1.64071369    
   1.11495602      0.778467000     -0.303483993       11674.6465       1.64071369    
   1.01591504      0.901737988     -0.303478003       15316.0039       1.64258063    
   1.01674199      0.902397990       0.00000000       15316.0039       1.64258063    
  0.905318975       1.01434398       0.00000000       15316.0039       1.64258063    
  0.904204011       1.01322901     -0.303456992       15316.0039       1.64258063    
  0.905318975       1.01434398       0.00000000       15324.6523       1.64258337    
  0.782918990       1.11479497       0.00000000       15324.6523       1.64258337    
  0.780644000       1.11195600     -0.303485006       15324.6523       1.64258337    
  0.904204011       1.01322901     -0.303456992       15324.6523       1.64258337    
  0.780644000       1.11195600     -0.303485006       11592.8398       1.64071095    
  0.645825028       1.19414902     -0.303514004       11592.8398       1.64071095    
  0.646153986       1.19492805     -0.606999993       11592.8398       1.64071095    
  0.782611012       1.11504900     -0.606999993       11592.8398       1.64071095    
  0.780644000       1.11195600     -0.303485006       11610.1934       1.64070833    
  0.782611012       1.11504900     -0.606999993       11610.1934       1.64070833    
  0.905143023       1.01448905     -0.606999993       11610.1934       1.64070833    
  0.904204011       1.01322901     -0.303456992       11610.1934       1.64070833    
  0.780644000       1.11195600     -0.303485006       15290.6348       1.64258623    
  0.782918990       1.11479497       0.00000000       15290.6348       1.64258623    
  0.646345019       1.19482601       0.00000000       15290.6348       1.64258623    
  0.645825028       1.19414902     -0.303514004       15290.6348       1.64258623    
  0.646345019       1.19482601       0.00000000       15345.1436       1.64257181    
  0.504974008       1.26637006       0.00000000       15345.1436       1.64257181    
  0.503772974       1.26314998     -0.303521991       15345.1436       1.64257181    
  0.645825028       1.19414902     -0.303514004       15345.1436       1.64257181    
  0.503772974       1.26314998     -0.303521991       11607.3789       1.64069736    
  0.353130996       1.31116498     -0.303510994       11607.3789       1.64069736    
  0.353300005       1.31237996     -0.606999993       11607.3789       1.64069736    
  0.505183995       1.26630700     -0.606999993       11607.3789       1.64069736    
  0.503772974       1.26314998     -0.303521991       11597.0303       1.64070320    
  0.505183995       1.26630700     -0.606999993       11597.0303       1.64070320    
  0.646153986       1.19492805     -0.606999993       11597.0303       1.64070320    
  0.645825028       1.19414902     -0.303514004       11597.0303       1.64070320    
  0.503772974       1.26314998     -0.303521991       15370.7754       1.64256418    
  0.504974008       1.26637006       0.00000000       15370.7754       1.64256418    
  0.353493989       1.31232095       0.00000000       15370.7754       1.64256418    
  0.353130996       1.31116498     -0.303510994       15370.7754       1.64256418    
  0.353493989       1.31232095       0.00000000       15363.2061       1.64255834    
  0.199064001       1.34539402       0.00000000       15363.2061       1.64255834    
  0.198755994       1.34360003     -0.303496003       15363.2061       1.64255834    
  0.353130996       1.31116498     -0.303510994       15363.2061       1.64255834    
  0.198755994       1.34360003     -0.303496003       11646.0605       1.64069200    
   4.12769988E-02   1.35817802     -0.303508013       11646.0605       1.64069200    
   4.12410013E-02   1.36093795     -0.606999993       11646.0605       1.64069200    
  0.199025005       1.34539795     -0.606999993       11646.0605       1.64069200    
  0.198755994       1.34360003     -0.303496003       11616.3438       1.64071321    
  0.199025005       1.34539795     -0.606999993       11616.3438       1.64071321    
  0.353300005       1.31237996     -0.606999993       11616.3438       1.64071321    
  0.353130996       1.31116498     -0.303510994       11616.3438       1.64071321    
  0.198755994       1.34360003     -0.303496003       15427.6611       1.64254820    
  0.199064001       1.34539402       0.00000000       15427.6611       1.64254820    
   4.17769998E-02   1.36088502       0.00000000       15427.6611       1.64254820    
   4.12769988E-02   1.35817802     -0.303508013       15427.6611       1.64254820    
   4.17769998E-02   1.36088502       0.00000000       15509.9795       1.64253509    
 -0.116410002       1.35353506       0.00000000       15509.9795       1.64253509    
 -0.116471998       1.35271096     -0.303496987       15509.9795       1.64253509    
   4.12769988E-02   1.35817802     -0.303508013       15509.9795       1.64253509    
 -0.116471998       1.35271096     -0.303496987       11683.9160       1.64070773    
 -0.273027003       1.33229196     -0.303496003       11683.9160       1.64070773    
 -0.273876995       1.33647299     -0.606999993       11683.9160       1.64070773    
 -0.116722003       1.35350394     -0.606999993       11683.9160       1.64070773    
 -0.116471998       1.35271096     -0.303496987       11662.5020       1.64069569    
 -0.116722003       1.35350394     -0.606999993       11662.5020       1.64069569    
   4.12410013E-02   1.36093795     -0.606999993       11662.5020       1.64069569    
   4.12769988E-02   1.35817802     -0.303508013       11662.5020       1.64069569    
 -0.116471998       1.35271096     -0.303496987       15658.4160       1.64251411    
 -0.116410002       1.35353506       0.00000000       15658.4160       1.64251411    
 -0.274069011       1.33641505       0.00000000       15658.4160       1.64251411    
 -0.273027003       1.33229196     -0.303496003       15658.4160       1.64251411    
 -0.274069011       1.33641505       0.00000000       15670.8115       1.64250720    
 -0.425588995       1.29045200       0.00000000       15670.8115       1.64250720    
 -0.425258011       1.28953803     -0.303507000       15670.8115       1.64250720    
 -0.273027003       1.33229196     -0.303496003       15670.8115       1.64250720    
 -0.425258011       1.28953803     -0.303507000       11660.6055       1.64072096    
 -0.572302997       1.23206902     -0.303485990       11660.6055       1.64072096    
 -0.573064029       1.23399496     -0.606999993       11660.6055       1.64072096    
 -0.425651014       1.29043305     -0.606999993       11660.6055       1.64072096    
 -0.425258011       1.28953803     -0.303507000       11685.1387       1.64070261    
 -0.425651014       1.29043305     -0.606999993       11685.1387       1.64070261    
 -0.273876995       1.33647299     -0.606999993       11685.1387       1.64070261    
 -0.273027003       1.33229196     -0.303496003       11685.1387       1.64070261    
 -0.425258011       1.28953803     -0.303507000       15496.6094       1.64252675    
 -0.425588995       1.29045200       0.00000000       15496.6094       1.64252675    
 -0.573195994       1.23392498       0.00000000       15496.6094       1.64252675    
 -0.572302997       1.23206902     -0.303485990       15496.6094       1.64252675    
 -0.573195994       1.23392498       0.00000000       15383.3408       1.64254212    
 -0.712655008       1.15938199       0.00000000       15383.3408       1.64254212    
 -0.711889029       1.15749002     -0.303496003       15383.3408       1.64254212    
 -0.572302997       1.23206902     -0.303485990       15383.3408       1.64254212    
 -0.711889029       1.15749002     -0.303496003       11621.5703       1.64070272    
 -0.840825975       1.06629205     -0.303485990       11621.5703       1.64070272    
 -0.841368973       1.06682706     -0.606999993       11621.5703       1.64070272    
 -0.712980986       1.15920806     -0.606999993       11621.5703       1.64070272    
 -0.711889029       1.15749002     -0.303496003       11644.0635       1.64069676    
 -0.712980986       1.15920806     -0.606999993       11644.0635       1.64069676    
 -0.573064029       1.23399496     -0.606999993       11644.0635       1.64069676    
 -0.572302997       1.23206902     -0.303485990       11644.0635       1.64069676    
 -0.711889029       1.15749002     -0.303496003       15239.3047       1.64254999    
 -0.712655008       1.15938199       0.00000000       15239.3047       1.64254999    
 -0.841165006       1.06699395       0.00000000       15239.3047       1.64254999    
 -0.840825975       1.06629205     -0.303485990       15239.3047       1.64254999    
 -0.841165006       1.06699395       0.00000000       15264.3701       1.64255023    
 -0.963320017      0.966744006       0.00000000       15264.3701       1.64255023    
 -0.960084975      0.962615013     -0.303470999       15264.3701       1.64255023    
 -0.840825975       1.06629205     -0.303485990       15264.3701       1.64255023    
 -0.960084975      0.962615013     -0.303470999       11639.3828       1.64066803    
  -1.06383705      0.843237996     -0.303481996       11639.3828       1.64066803    
  -1.06481802      0.843816996     -0.606999993       11639.3828       1.64066803    
 -0.963873982      0.966289997     -0.606999993       11639.3828       1.64066803    
 -0.960084975      0.962615013     -0.303470999       11621.5352       1.64067471    
 -0.963873982      0.966289997     -0.606999993       11621.5352       1.64067471    
 -0.841368973       1.06682706     -0.606999993       11621.5352       1.64067471    
 -0.840825975       1.06629205     -0.303485990       11621.5352       1.64067471    
 -0.960084975      0.962615013     -0.303470999       15331.6689       1.64254677    
 -0.963320017      0.966744006       0.00000000       15331.6689       1.64254677    
  -1.06464398      0.844029009       0.00000000       15331.6689       1.64254677    
  -1.06383705      0.843237996     -0.303481996       15331.6689       1.64254677    
  -1.06464398      0.844029009       0.00000000       15384.0869       1.64252734    
  -1.15769398      0.715813994       0.00000000       15384.0869       1.64252734    
  -1.15564799      0.714680016     -0.303483993       15384.0869       1.64252734    
  -1.06383705      0.843237996     -0.303481996       15384.0869       1.64252734    
  -1.15564799      0.714680016     -0.303483993       11734.0879       1.64067054    
  -1.23108304      0.575536013     -0.303514004       11734.0879       1.64067054    
  -1.23232996      0.576179981     -0.606999993       11734.0879       1.64067054    
  -1.15756094      0.716063023     -0.606999993       11734.0879       1.64067054    
  -1.15564799      0.714680016     -0.303483993       11676.8047       1.64068711    
  -1.15756094      0.716063023     -0.606999993       11676.8047       1.64068711    
  -1.06481802      0.843816996     -0.606999993       11676.8047       1.64068711    
  -1.06383705      0.843237996     -0.303481996       11676.8047       1.64068711    
  -1.15564799      0.714680016     -0.303483993       15619.8818       1.64248610    
  -1.15769398      0.715813994       0.00000000       15619.8818       1.64248610    
  -1.23224795      0.576331973       0.00000000       15619.8818       1.64248610    
  -1.23108304      0.575536013     -0.303514004       15619.8818       1.64248610    
  -1.23224795      0.576331973       0.00000000       15737.1133       1.64247024    
  -1.28948605      0.428772002       0.00000000       15737.1133       1.64247024    
  -1.28842103      0.428404987     -0.303512990       15737.1133       1.64247024    
  -1.23108304      0.575536013     -0.303514004       15737.1133       1.64247024    
  -1.28842103      0.428404987     -0.303512990       11789.3535       1.64071631    
  -1.33082402      0.275959998     -0.303492010       11789.3535       1.64071631    
  -1.33550000      0.277083993     -0.606999993       11789.3535       1.64071631    