 VARIABLES="X" "Y" "Z" "abs(p) (Pa)" "angle(p) (rad)"
ZONE N=   2720,E =    2069, F=FEPOINT, ET=QUADRILATERAL
 -0.767116010      -1.12776399       0.00000000       4628.44971      -1.55738866    
 -0.769354999      -1.12002099     -0.303523988       4628.44971      -1.55738866    
 -0.896136999      -1.02028203     -0.303463012       4628.44971      -1.55738866    
 -0.894908011      -1.02288902       0.00000000       4628.44971      -1.55738866    
 -0.767116010      -1.12776399       0.00000000       5004.17676      -1.55733228    
 -0.630888999      -1.20308697       0.00000000       5004.17676      -1.55733228    
 -0.635528028      -1.19958198     -0.303541005       5004.17676      -1.55733228    
 -0.769354999      -1.12002099     -0.303523988       5004.17676      -1.55733228    
 -0.635528028      -1.19958198     -0.303541005       4719.59229      -1.55420268    
 -0.495362997      -1.26606500     -0.303519011       4719.59229      -1.55420268    
 -0.499298006      -1.26809204     -0.606999993       4719.59229      -1.55420268    
 -0.640147984      -1.19813800     -0.606998026       4719.59229      -1.55420268    
 -0.635528028      -1.19958198     -0.303541005       4433.74609      -1.55424893    
 -0.640147984      -1.19813800     -0.606998026       4433.74609      -1.55424893    
 -0.777105987      -1.11956596     -0.606999993       4433.74609      -1.55424893    
 -0.769354999      -1.12002099     -0.303523988       4433.74609      -1.55424893    
 -0.635528028      -1.19958198     -0.303541005       5285.03857      -1.55722678    
 -0.630888999      -1.20308697       0.00000000       5285.03857      -1.55722678    
 -0.494486004      -1.26955199       0.00000000       5285.03857      -1.55722678    
 -0.495362997      -1.26606500     -0.303519011       5285.03857      -1.55722678    
 -0.494486004      -1.26955199       0.00000000       5525.30029      -1.55720222    
 -0.346311986      -1.31449997       0.00000000       5525.30029      -1.55720222    
 -0.346753001      -1.31307304     -0.303510010       5525.30029      -1.55720222    
 -0.495362997      -1.26606500     -0.303519011       5525.30029      -1.55720222    
 -0.346753001      -1.31307304     -0.303510010       5097.63086      -1.55416965    
 -0.193608001      -1.34425998     -0.303494990       5097.63086      -1.55416965    
 -0.195028007      -1.34579206     -0.606999993       5097.63086      -1.55416965    
 -0.348751009      -1.31376004     -0.606999993       5097.63086      -1.55416965    
 -0.346753001      -1.31307304     -0.303510010       4936.61865      -1.55416858    
 -0.348751009      -1.31376004     -0.606999993       4936.61865      -1.55416858    
 -0.499298006      -1.26809204     -0.606999993       4936.61865      -1.55416858    
 -0.495362997      -1.26606500     -0.303519011       4936.61865      -1.55416858    
 -0.346753001      -1.31307304     -0.303510010       5706.50732      -1.55721259    
 -0.346311986      -1.31449997       0.00000000       5706.50732      -1.55721259    
 -0.193381995      -1.34595394       0.00000000       5706.50732      -1.55721259    
 -0.193608001      -1.34425998     -0.303494990       5706.50732      -1.55721259    
 -0.193381995      -1.34595394       0.00000000       5840.18994      -1.55726922    
  -3.75179984E-02  -1.36130500       0.00000000       5840.18994      -1.55726922    
  -3.73950005E-02  -1.35827899     -0.303512007       5840.18994      -1.55726922    
 -0.193608001      -1.34425998     -0.303494990       5840.18994      -1.55726922    
  -3.73950005E-02  -1.35827899     -0.303512007       5201.86963      -1.55411458    
  0.119547002      -1.35239303     -0.303498000       5201.86963      -1.55411458    
  0.119135000      -1.35326600     -0.606999993       5201.86963      -1.55411458    
  -3.82840000E-02  -1.36122894     -0.606998980       5201.86963      -1.55411458    
  -3.73950005E-02  -1.35827899     -0.303512007       5189.38965      -1.55414212    
  -3.82840000E-02  -1.36122894     -0.606998980       5189.38965      -1.55414212    
 -0.195028007      -1.34579206     -0.606999993       5189.38965      -1.55414212    
 -0.193608001      -1.34425998     -0.303494990       5189.38965      -1.55414212    
  -3.73950005E-02  -1.35827899     -0.303512007       5862.03125      -1.55727243    
  -3.75179984E-02  -1.36130500       0.00000000       5862.03125      -1.55727243    
  0.119788997      -1.35320199       0.00000000       5862.03125      -1.55727243    
  0.119547002      -1.35239303     -0.303498000       5862.03125      -1.55727243    
  0.119788997      -1.35320199       0.00000000       5807.69629      -1.55726051    
  0.276576012      -1.33565402       0.00000000       5807.69629      -1.55726051    
  0.275435001      -1.33191597     -0.303496003       5807.69629      -1.55726051    
  0.119547002      -1.35239303     -0.303498000       5807.69629      -1.55726051    
  0.275435001      -1.33191597     -0.303496003       5128.82422      -1.55428183    
  0.427076995      -1.28898001     -0.303507000       5128.82422      -1.55428183    
  0.427242011      -1.28995001     -0.606999993       5128.82422      -1.55428183    
  0.275831014      -1.33588004     -0.606999993       5128.82422      -1.55428183    
  0.275435001      -1.33191597     -0.303496003       5239.76953      -1.55427718    
  0.275831014      -1.33588004     -0.606999993       5239.76953      -1.55427718    
  0.119135000      -1.35326600     -0.606999993       5239.76953      -1.55427718    
  0.119547002      -1.35239303     -0.303498000       5239.76953      -1.55427718    
  0.275435001      -1.33191597     -0.303496003       5680.13672      -1.55726027    
  0.276576012      -1.33565402       0.00000000       5680.13672      -1.55726027    
  0.427509993      -1.28986895       0.00000000       5680.13672      -1.55726027    
  0.427076995      -1.28898001     -0.303507000       5680.13672      -1.55726027    
  0.427509993      -1.28986895       0.00000000       5474.24854      -1.55730820    
  0.574636996      -1.23315501       0.00000000       5474.24854      -1.55730820    
  0.573706985      -1.23136795     -0.303485990       5474.24854      -1.55730820    
  0.427076995      -1.28898001     -0.303507000       5474.24854      -1.55730820    
  0.573706985      -1.23136795     -0.303485990       4696.97070      -1.55432701    
  0.712854981      -1.15688002     -0.303496987       4696.97070      -1.55432701    
  0.713809013      -1.15876603     -0.606999993       4696.97070      -1.55432701    
  0.574283004      -1.23334301     -0.606999993       4696.97070      -1.55432701    
  0.573706985      -1.23136795     -0.303485990       4951.18701      -1.55433428    
  0.574283004      -1.23334301     -0.606999993       4951.18701      -1.55433428    
  0.427242011      -1.28995001     -0.606999993       4951.18701      -1.55433428    
  0.427076995      -1.28898001     -0.303507000       4951.18701      -1.55433428    
  0.573706985      -1.23136795     -0.303485990       5189.86475      -1.55732930    
  0.574636996      -1.23315501       0.00000000       5189.86475      -1.55732930    
  0.713741004      -1.15880203       0.00000000       5189.86475      -1.55732930    
  0.712854981      -1.15688002     -0.303496987       5189.86475      -1.55732930    
  0.713741004      -1.15880203       0.00000000       4852.35059      -1.55739200    
  0.841937006      -1.06636095       0.00000000       4852.35059      -1.55739200    
  0.841498017      -1.06573403     -0.303485990       4852.35059      -1.55739200    
  0.712854981      -1.15688002     -0.303496987       4852.35059      -1.55739200    
  0.841498017      -1.06573403     -0.303485990       4017.98486      -1.55441070    
  0.960639000     -0.962104976     -0.303470999       4017.98486      -1.55441070    
  0.964356005     -0.965893984     -0.606999993       4017.98486      -1.55441070    
  0.841796994      -1.06647599     -0.606999993       4017.98486      -1.55441070    
  0.841498017      -1.06573403     -0.303485990       4390.40527      -1.55437708    
  0.841796994      -1.06647599     -0.606999993       4390.40527      -1.55437708    
  0.713809013      -1.15876603     -0.606999993       4390.40527      -1.55437708    
  0.712854981      -1.15688002     -0.303496987       4390.40527      -1.55437708    
  0.841498017      -1.06573403     -0.303485990       4497.11719      -1.55749702    
  0.841937006      -1.06636095       0.00000000       4497.11719      -1.55749702    
  0.963932991     -0.966242015       0.00000000       4497.11719      -1.55749702    
  0.960639000     -0.962104976     -0.303470999       4497.11719      -1.55749702    
  0.963932991     -0.966242015       0.00000000       4046.83569      -1.55758119    
   1.06506598     -0.843514979       0.00000000       4046.83569      -1.55758119    
   1.06428695     -0.842682004     -0.303481996       4046.83569      -1.55758119    
  0.960639000     -0.962104976     -0.303470999       4046.83569      -1.55758119    
   1.06428695     -0.842682004     -0.303481996       3265.78760      -1.55517054    
   1.15591598     -0.714210987     -0.303485006       3265.78760      -1.55517054    
   1.15788805     -0.715448976     -0.606999993       3265.78760      -1.55517054    
   1.06537795     -0.843134999     -0.606999993       3265.78760      -1.55517054    
   1.06428695     -0.842682004     -0.303481996       3609.24609      -1.55449796    
   1.06537795     -0.843134999     -0.606999993       3609.24609      -1.55449796    
  0.964356005     -0.965893984     -0.606999993       3609.24609      -1.55449796    
  0.960639000     -0.962104976     -0.303470999       3609.24609      -1.55449796    
   1.06428695     -0.842682004     -0.303481996       3514.59375      -1.55771971    
   1.06506598     -0.843514979       0.00000000       3514.59375      -1.55771971    
   1.15792501     -0.715381980       0.00000000       3514.59375      -1.55771971    
   1.15591598     -0.714210987     -0.303485006       3514.59375      -1.55771971    
   1.15792501     -0.715381980       0.00000000       2948.29663      -1.55786788    
   1.23237598     -0.576093972       0.00000000       2948.29663      -1.55786788    
   1.23120904     -0.575251997     -0.303514004       2948.29663      -1.55786788    
   1.15591598     -0.714210987     -0.303485006       2948.29663      -1.55786788    
   1.23120904     -0.575251997     -0.303514004       2212.24707      -1.55586398    
   1.28844094     -0.428344995     -0.303512990       2212.24707      -1.55586398    
   1.28952503     -0.428642988     -0.606999993       2212.24707      -1.55586398    
   1.23252702     -0.575810015     -0.606999993       2212.24707      -1.55586398    
   1.23120904     -0.575251997     -0.303514004       2755.70532      -1.55542040    
   1.23252702     -0.575810015     -0.606999993       2755.70532      -1.55542040    
   1.15788805     -0.715448976     -0.606999993       2755.70532      -1.55542040    
   1.15591598     -0.714210987     -0.303485006       2755.70532      -1.55542040    
   1.23120904     -0.575251997     -0.303514004       2482.59277      -1.55866909    
   1.23237598     -0.576093972       0.00000000       2482.59277      -1.55866909    
   1.28947699     -0.428801000       0.00000000       2482.59277      -1.55866909    
   1.28844094     -0.428344995     -0.303512990       2482.59277      -1.55866909    
   1.28947699     -0.428801000       0.00000000       1782.11511      -1.55920374    
   1.33532202     -0.277671993       0.00000000       1782.11511      -1.55920374    
   1.33076501     -0.276203990     -0.303492010       1782.11511      -1.55920374    
   1.28844094     -0.428344995     -0.303512990       1782.11511      -1.55920374    
   1.33076501     -0.276203990     -0.303492010       1112.96509      -1.55890560    
   1.35229194     -0.119709998     -0.303514004       1112.96509      -1.55890560    
   1.35321999     -0.119608998     -0.606999993       1112.96509      -1.55890560    
   1.33549094     -0.277112991     -0.606999993       1112.96509      -1.55890560    
   1.33076501     -0.276203990     -0.303492010       1646.62732      -1.55671585    
   1.33549094     -0.277112991     -0.606999993       1646.62732      -1.55671585    
   1.28952503     -0.428642988     -0.606999993       1646.62732      -1.55671585    
   1.28844094     -0.428344995     -0.303512990       1646.62732      -1.55671585    
   1.33076501     -0.276203990     -0.303492010       1004.88348      -1.55970025    
   1.33532202     -0.277671993       0.00000000       1004.88348      -1.55970025    
   1.35319102     -0.119900003       0.00000000       1004.88348      -1.55970025    
   1.35229194     -0.119709998     -0.303514004       1004.88348      -1.55970025    
   1.35319102     -0.119900003       0.00000000       324.900360      -1.56600654    
   1.36124396       3.81390005E-02   0.00000000       324.900360      -1.56600654    
   1.35858905       3.79349999E-02 -0.303501010       324.900360      -1.56600654    
   1.35229194     -0.119709998     -0.303514004       324.900360      -1.56600654    
   1.35858905       3.79349999E-02 -0.303501010       209.031250       1.60876799    
   1.34464097      0.195331007     -0.303496003       209.031250       1.60876799    
   1.34573400      0.195616007     -0.606999993       209.031250       1.60876799    
   1.36126804       3.78950015E-02 -0.606999993       209.031250       1.60876799    
   1.35858905       3.79349999E-02 -0.303501010       374.136414      -1.56464064    
   1.36126804       3.78950015E-02 -0.606999993       374.136414      -1.56464064    
   1.35321999     -0.119608998     -0.606999993       374.136414      -1.56464064    
   1.35229194     -0.119709998     -0.303514004       374.136414      -1.56464064    
   1.35858905       3.79349999E-02 -0.303501010       295.015594       1.59727407    
   1.36124396       3.81390005E-02   0.00000000       295.015594       1.59727407    
   1.34575403      0.195406005       0.00000000       295.015594       1.59727407    
   1.34464097      0.195331007     -0.303496003       295.015594       1.59727407    
   1.34575403      0.195406005       0.00000000       960.451050       1.58869493    
   1.31339800      0.349945009       0.00000000       960.451050       1.58869493    
   1.31216300      0.349725991     -0.303487003       960.451050       1.58869493    
   1.34464097      0.195331007     -0.303496003       960.451050       1.58869493    
   1.31216300      0.349725991     -0.303487003       1434.32642       1.59083736    
   1.26341999      0.500032008     -0.303494006       1434.32642       1.59083736    
   1.26736605      0.501691997     -0.606999993       1434.32642       1.59083736    
   1.31333196      0.350163996     -0.606999993       1434.32642       1.59083736    
   1.31216300      0.349725991     -0.303487003       800.179382       1.59354675    
   1.31333196      0.350163996     -0.606999993       800.179382       1.59354675    
   1.34573400      0.195616007     -0.606999993       800.179382       1.59354675    
   1.34464097      0.195331007     -0.303496003       800.179382       1.59354675    
   1.31216300      0.349725991     -0.303487003       1614.11487       1.58717465    
   1.31339800      0.349945009       0.00000000       1614.11487       1.58717465    
   1.26751196      0.501209974       0.00000000       1614.11487       1.58717465    
   1.26341999      0.500032008     -0.303494006       1614.11487       1.58717465    
   1.26751196      0.501209974       0.00000000       2275.59717       1.58620262    
   1.19658697      0.643051028       0.00000000       2275.59717       1.58620262    
   1.19583094      0.642783999     -0.303505003       2275.59717       1.58620262    
   1.26341999      0.500032008     -0.303494006       2275.59717       1.58620262    
   1.19583094      0.642783999     -0.303505003       2548.41235       1.58944559    
   1.11495602      0.778467000     -0.303483993       2548.41235       1.58944559    
   1.11731696      0.779847026     -0.606999993       2548.41235       1.58944559    
   1.19653296      0.643149972     -0.606999993       2548.41235       1.58944559    
   1.19583094      0.642783999     -0.303505003       1982.66516       1.59007907    
   1.19653296      0.643149972     -0.606999993       1982.66516       1.59007907    
   1.26736605      0.501691997     -0.606999993       1982.66516       1.59007907    
   1.26341999      0.500032008     -0.303494006       1982.66516       1.59007907    
   1.19583094      0.642783999     -0.303505003       2873.58984       1.58590949    
   1.19658697      0.643051028       0.00000000       2873.58984       1.58590949    
   1.11705506      0.780165970       0.00000000       2873.58984       1.58590949    
   1.11495602      0.778467000     -0.303483993       2873.58984       1.58590949    
   1.11705506      0.780165970       0.00000000       3409.74487       1.58574307    
   1.01674199      0.902397990       0.00000000       3409.74487       1.58574307    
   1.01591504      0.901737988     -0.303478003       3409.74487       1.58574307    
   1.11495602      0.778467000     -0.303483993       3409.74487       1.58574307    
   1.01591504      0.901737988     -0.303478003       3514.87012       1.58889890    
  0.904204011       1.01322901     -0.303456992       3514.87012       1.58889890    
  0.905143023       1.01448905     -0.606999993       3514.87012       1.58889890    
   1.01659799      0.902572989     -0.606999993       3514.87012       1.58889890    
   1.01591504      0.901737988     -0.303478003       3068.02100       1.58903599    
   1.01659799      0.902572989     -0.606999993       3068.02100       1.58903599    
   1.11731696      0.779847026     -0.606999993       3068.02100       1.58903599    
   1.11495602      0.778467000     -0.303483993       3068.02100       1.58903599    
   1.01591504      0.901737988     -0.303478003       3907.27808       1.58561766    
   1.01674199      0.902397990       0.00000000       3907.27808       1.58561766    
  0.905318975       1.01434398       0.00000000       3907.27808       1.58561766    
  0.904204011       1.01322901     -0.303456992       3907.27808       1.58561766    
  0.905318975       1.01434398       0.00000000       4380.44775       1.58546495    
  0.782918990       1.11479497       0.00000000       4380.44775       1.58546495    
  0.780644000       1.11195600     -0.303485006       4380.44775       1.58546495    
  0.904204011       1.01322901     -0.303456992       4380.44775       1.58546495    
  0.780644000       1.11195600     -0.303485006       4238.98975       1.58879316    
  0.645825028       1.19414902     -0.303514004       4238.98975       1.58879316    
  0.646153986       1.19492805     -0.606999993       4238.98975       1.58879316    
  0.782611012       1.11504900     -0.606999993       4238.98975       1.58879316    
  0.780644000       1.11195600     -0.303485006       3906.04614       1.58885205    
  0.782611012       1.11504900     -0.606999993       3906.04614       1.58885205    
  0.905143023       1.01448905     -0.606999993       3906.04614       1.58885205    
  0.904204011       1.01322901     -0.303456992       3906.04614       1.58885205    
  0.780644000       1.11195600     -0.303485006       4749.84521       1.58545625    
  0.782918990       1.11479497       0.00000000       4749.84521       1.58545625    
  0.646345019       1.19482601       0.00000000       4749.84521       1.58545625    
  0.645825028       1.19414902     -0.303514004       4749.84521       1.58545625    
  0.646345019       1.19482601       0.00000000       5035.32275       1.58551884    
  0.504974008       1.26637006       0.00000000       5035.32275       1.58551884    
  0.503772974       1.26314998     -0.303521991       5035.32275       1.58551884    
  0.645825028       1.19414902     -0.303514004       5035.32275       1.58551884    
  0.503772974       1.26314998     -0.303521991       4746.34131       1.58869195    
  0.353130996       1.31116498     -0.303510994       4746.34131       1.58869195    
  0.353300005       1.31237996     -0.606999993       4746.34131       1.58869195    
  0.505183995       1.26630700     -0.606999993       4746.34131       1.58869195    
  0.503772974       1.26314998     -0.303521991       4525.54297       1.58874428    
  0.505183995       1.26630700     -0.606999993       4525.54297       1.58874428    
  0.646153986       1.19492805     -0.606999993       4525.54297       1.58874428    
  0.645825028       1.19414902     -0.303514004       4525.54297       1.58874428    
  0.503772974       1.26314998     -0.303521991       5272.05420       1.58549702    
  0.504974008       1.26637006       0.00000000       5272.05420       1.58549702    
  0.353493989       1.31232095       0.00000000       5272.05420       1.58549702    
  0.353130996       1.31116498     -0.303510994       5272.05420       1.58549702    
  0.353493989       1.31232095       0.00000000       5446.55225       1.58545125    
  0.199064001       1.34539402       0.00000000       5446.55225       1.58545125    
  0.198755994       1.34360003     -0.303496003       5446.55225       1.58545125    
  0.353130996       1.31116498     -0.303510994       5446.55225       1.58545125    
  0.198755994       1.34360003     -0.303496003       4951.51221       1.58874571    
   4.12769988E-02   1.35817802     -0.303508013       4951.51221       1.58874571    
   4.12410013E-02   1.36093795     -0.606999993       4951.51221       1.58874571    
  0.199025005       1.34539795     -0.606999993       4951.51221       1.58874571    
  0.198755994       1.34360003     -0.303496003       4901.84912       1.58863866    
  0.199025005       1.34539795     -0.606999993       4901.84912       1.58863866    
  0.353300005       1.31237996     -0.606999993       4901.84912       1.58863866    
  0.353130996       1.31116498     -0.303510994       4901.84912       1.58863866    
  0.198755994       1.34360003     -0.303496003       5544.41699       1.58543515    
  0.199064001       1.34539402       0.00000000       5544.41699       1.58543515    
   4.17769998E-02   1.36088502       0.00000000       5544.41699       1.58543515    
   4.12769988E-02   1.35817802     -0.303508013       5544.41699       1.58543515    
   4.17769998E-02   1.36088502       0.00000000       5594.54297       1.58535874    
 -0.116410002       1.35353506       0.00000000       5594.54297       1.58535874    
 -0.116471998       1.35271096     -0.303496987       5594.54297       1.58535874    
   4.12769988E-02   1.35817802     -0.303508013       5594.54297       1.58535874    
 -0.116471998       1.35271096     -0.303496987       4987.79395       1.58856738    
 -0.273027003       1.33229196     -0.303496003       4987.79395       1.58856738    
 -0.273876995       1.33647299     -0.606999993       4987.79395       1.58856738    
 -0.116722003       1.35350394     -0.606999993       4987.79395       1.58856738    
 -0.116471998       1.35271096     -0.303496987       4972.63525       1.58870471    
 -0.116722003       1.35350394     -0.606999993       4972.63525       1.58870471    
   4.12410013E-02   1.36093795     -0.606999993       4972.63525       1.58870471    
   4.12769988E-02   1.35817802     -0.303508013       4972.63525       1.58870471    
 -0.116471998       1.35271096     -0.303496987       5546.82959       1.58535755    
 -0.116410002       1.35353506       0.00000000       5546.82959       1.58535755    
 -0.274069011       1.33641505       0.00000000       5546.82959       1.58535755    
 -0.273027003       1.33229196     -0.303496003       5546.82959       1.58535755    
 -0.274069011       1.33641505       0.00000000       5423.70996       1.58534396    
 -0.425588995       1.29045200       0.00000000       5423.70996       1.58534396    
 -0.425258011       1.28953803     -0.303507000       5423.70996       1.58534396    
 -0.273027003       1.33229196     -0.303496003       5423.70996       1.58534396    
 -0.425258011       1.28953803     -0.303507000       4707.87646       1.58845174    
 -0.572302997       1.23206902     -0.303485990       4707.87646       1.58845174    
 -0.573064029       1.23399496     -0.606999993       4707.87646       1.58845174    
 -0.425651014       1.29043305     -0.606999993       4707.87646       1.58845174    
 -0.425258011       1.28953803     -0.303507000       4879.87305       1.58853412    
 -0.425651014       1.29043305     -0.606999993       4879.87305       1.58853412    
 -0.273876995       1.33647299     -0.606999993       4879.87305       1.58853412    
 -0.273027003       1.33229196     -0.303496003       4879.87305       1.58853412    
 -0.425258011       1.28953803     -0.303507000       5213.49121       1.58530200    
 -0.425588995       1.29045200       0.00000000       5213.49121       1.58530200    
 -0.573195994       1.23392498       0.00000000       5213.49121       1.58530200    
 -0.572302997       1.23206902     -0.303485990       5213.49121       1.58530200    
 -0.573195994       1.23392498       0.00000000       4929.22705       1.58529747    
 -0.712655008       1.15938199       0.00000000       4929.22705       1.58529747    
 -0.711889029       1.15749002     -0.303496003       4929.22705       1.58529747    
 -0.572302997       1.23206902     -0.303485990       4929.22705       1.58529747    
 -0.711889029       1.15749002     -0.303496003       4171.48047       1.58838332    
 -0.840825975       1.06629205     -0.303485990       4171.48047       1.58838332    
 -0.841368973       1.06682706     -0.606999993       4171.48047       1.58838332    
 -0.712980986       1.15920806     -0.606999993       4171.48047       1.58838332    
 -0.711889029       1.15749002     -0.303496003       4465.55469       1.58843887    
 -0.712980986       1.15920806     -0.606999993       4465.55469       1.58843887    
 -0.573064029       1.23399496     -0.606999993       4465.55469       1.58843887    
 -0.572302997       1.23206902     -0.303485990       4465.55469       1.58843887    
 -0.711889029       1.15749002     -0.303496003       4591.06592       1.58523870    
 -0.712655008       1.15938199       0.00000000       4591.06592       1.58523870    
 -0.841165006       1.06699395       0.00000000       4591.06592       1.58523870    
 -0.840825975       1.06629205     -0.303485990       4591.06592       1.58523870    
 -0.841165006       1.06699395       0.00000000       4184.60889       1.58525002    
 -0.963320017      0.966744006       0.00000000       4184.60889       1.58525002    
 -0.960084975      0.962615013     -0.303470999       4184.60889       1.58525002    
 -0.840825975       1.06629205     -0.303485990       4184.60889       1.58525002    
 -0.960084975      0.962615013     -0.303470999       3394.95825       1.58845520    
  -1.06383705      0.843237996     -0.303481996       3394.95825       1.58845520    
  -1.06481802      0.843816996     -0.606999993       3394.95825       1.58845520    
 -0.963873982      0.966289997     -0.606999993       3394.95825       1.58845520    
 -0.960084975      0.962615013     -0.303470999       3802.54932       1.58841348    
 -0.963873982      0.966289997     -0.606999993       3802.54932       1.58841348    
 -0.841368973       1.06682706     -0.606999993       3802.54932       1.58841348    
 -0.840825975       1.06629205     -0.303485990       3802.54932       1.58841348    
 -0.960084975      0.962615013     -0.303470999       3742.73242       1.58525968    
 -0.963320017      0.966744006       0.00000000       3742.73242       1.58525968    
  -1.06464398      0.844029009       0.00000000       3742.73242       1.58525968    
  -1.06383705      0.843237996     -0.303481996       3742.73242       1.58525968    
  -1.06464398      0.844029009       0.00000000       3224.83643       1.58529305    
  -1.15769398      0.715813994       0.00000000       3224.83643       1.58529305    
  -1.15564799      0.714680016     -0.303483993       3224.83643       1.58529305    
  -1.06383705      0.843237996     -0.303481996       3224.83643       1.58529305    
  -1.15564799      0.714680016     -0.303483993       2452.93091       1.58843660    
  -1.23108304      0.575536013     -0.303514004       2452.93091       1.58843660    
  -1.23232996      0.576179981     -0.606999993       2452.93091       1.58843660    
  -1.15756094      0.716063023     -0.606999993       2452.93091       1.58843660    
  -1.15564799      0.714680016     -0.303483993       2940.27026       1.58843398    
  -1.15756094      0.716063023     -0.606999993       2940.27026       1.58843398    
  -1.06481802      0.843816996     -0.606999993       2940.27026       1.58843398    
  -1.06383705      0.843237996     -0.303481996       2940.27026       1.58843398    
  -1.15564799      0.714680016     -0.303483993       2672.24243       1.58541393    
  -1.15769398      0.715813994       0.00000000       2672.24243       1.58541393    
  -1.23224795      0.576331973       0.00000000       2672.24243       1.58541393    
  -1.23108304      0.575536013     -0.303514004       2672.24243       1.58541393    
  -1.23224795      0.576331973       0.00000000       2079.74219       1.58559144    
  -1.28948605      0.428772002       0.00000000       2079.74219       1.58559144    
  -1.28842103      0.428404987     -0.303512990       2079.74219       1.58559144    
  -1.23108304      0.575536013     -0.303514004       2079.74219       1.58559144    
  -1.28842103      0.428404987     -0.303512990       1322.75427       1.58932614    
  -1.33082402      0.275959998     -0.303492010       1322.75427       1.58932614    
  -1.33550000      0.277083993     -0.606999993       1322.75427       1.58932614    