 VARIABLES="X" "Y" "Z" "abs(p) (Pa)" "angle(p) (rad)"
ZONE N=   2720,E =    2069, F=FEPOINT, ET=QUADRILATERAL
 -0.767116010      -1.12776399       0.00000000       909.002991      -1.60774696    
 -0.769354999      -1.12002099     -0.303523988       909.002991      -1.60774696    
 -0.896136999      -1.02028203     -0.303463012       909.002991      -1.60774696    
 -0.894908011      -1.02288902       0.00000000       909.002991      -1.60774696    
 -0.767116010      -1.12776399       0.00000000       985.276489      -1.60771620    
 -0.630888999      -1.20308697       0.00000000       985.276489      -1.60771620    
 -0.635528028      -1.19958198     -0.303541005       985.276489      -1.60771620    
 -0.769354999      -1.12002099     -0.303523988       985.276489      -1.60771620    
 -0.635528028      -1.19958198     -0.303541005       803.283081      -1.62413979    
 -0.495362997      -1.26606500     -0.303519011       803.283081      -1.62413979    
 -0.499298006      -1.26809204     -0.606999993       803.283081      -1.62413979    
 -0.640147984      -1.19813800     -0.606998026       803.283081      -1.62413979    
 -0.635528028      -1.19958198     -0.303541005       756.340637      -1.62401366    
 -0.640147984      -1.19813800     -0.606998026       756.340637      -1.62401366    
 -0.777105987      -1.11956596     -0.606999993       756.340637      -1.62401366    
 -0.769354999      -1.12002099     -0.303523988       756.340637      -1.62401366    
 -0.635528028      -1.19958198     -0.303541005       1045.68689      -1.60772777    
 -0.630888999      -1.20308697       0.00000000       1045.68689      -1.60772777    
 -0.494486004      -1.26955199       0.00000000       1045.68689      -1.60772777    
 -0.495362997      -1.26606500     -0.303519011       1045.68689      -1.60772777    
 -0.494486004      -1.26955199       0.00000000       1093.72327      -1.60770452    
 -0.346311986      -1.31449997       0.00000000       1093.72327      -1.60770452    
 -0.346753001      -1.31307304     -0.303510010       1093.72327      -1.60770452    
 -0.495362997      -1.26606500     -0.303519011       1093.72327      -1.60770452    
 -0.346753001      -1.31307304     -0.303510010       868.014709      -1.62398601    
 -0.193608001      -1.34425998     -0.303494990       868.014709      -1.62398601    
 -0.195028007      -1.34579206     -0.606999993       868.014709      -1.62398601    
 -0.348751009      -1.31376004     -0.606999993       868.014709      -1.62398601    
 -0.346753001      -1.31307304     -0.303510010       841.686584      -1.62403369    
 -0.348751009      -1.31376004     -0.606999993       841.686584      -1.62403369    
 -0.499298006      -1.26809204     -0.606999993       841.686584      -1.62403369    
 -0.495362997      -1.26606500     -0.303519011       841.686584      -1.62403369    
 -0.346753001      -1.31307304     -0.303510010       1127.86523      -1.60766768    
 -0.346311986      -1.31449997       0.00000000       1127.86523      -1.60766768    
 -0.193381995      -1.34595394       0.00000000       1127.86523      -1.60766768    
 -0.193608001      -1.34425998     -0.303494990       1127.86523      -1.60766768    
 -0.193381995      -1.34595394       0.00000000       1148.15222      -1.60766995    
  -3.75179984E-02  -1.36130500       0.00000000       1148.15222      -1.60766995    
  -3.73950005E-02  -1.35827899     -0.303512007       1148.15222      -1.60766995    
 -0.193608001      -1.34425998     -0.303494990       1148.15222      -1.60766995    
  -3.73950005E-02  -1.35827899     -0.303512007       885.910034      -1.62394822    
  0.119547002      -1.35239303     -0.303498000       885.910034      -1.62394822    
  0.119135000      -1.35326600     -0.606999993       885.910034      -1.62394822    
  -3.82840000E-02  -1.36122894     -0.606998980       885.910034      -1.62394822    
  -3.73950005E-02  -1.35827899     -0.303512007       882.810303      -1.62401819    
  -3.82840000E-02  -1.36122894     -0.606998980       882.810303      -1.62401819    
 -0.195028007      -1.34579206     -0.606999993       882.810303      -1.62401819    
 -0.193608001      -1.34425998     -0.303494990       882.810303      -1.62401819    
  -3.73950005E-02  -1.35827899     -0.303512007       1151.37036      -1.60766292    
  -3.75179984E-02  -1.36130500       0.00000000       1151.37036      -1.60766292    
  0.119788997      -1.35320199       0.00000000       1151.37036      -1.60766292    
  0.119547002      -1.35239303     -0.303498000       1151.37036      -1.60766292    
  0.119788997      -1.35320199       0.00000000       1139.18274      -1.60770869    
  0.276576012      -1.33565402       0.00000000       1139.18274      -1.60770869    
  0.275435001      -1.33191597     -0.303496003       1139.18274      -1.60770869    
  0.119547002      -1.35239303     -0.303498000       1139.18274      -1.60770869    
  0.275435001      -1.33191597     -0.303496003       855.348877      -1.62439096    
  0.427076995      -1.28898001     -0.303507000       855.348877      -1.62439096    
  0.427242011      -1.28995001     -0.606999993       855.348877      -1.62439096    
  0.275831014      -1.33588004     -0.606999993       855.348877      -1.62439096    
  0.275435001      -1.33191597     -0.303496003       876.899353      -1.62429214    
  0.275831014      -1.33588004     -0.606999993       876.899353      -1.62429214    
  0.119135000      -1.35326600     -0.606999993       876.899353      -1.62429214    
  0.119547002      -1.35239303     -0.303498000       876.899353      -1.62429214    
  0.275435001      -1.33191597     -0.303496003       1110.66980      -1.60779870    
  0.276576012      -1.33565402       0.00000000       1110.66980      -1.60779870    
  0.427509993      -1.28986895       0.00000000       1110.66980      -1.60779870    
  0.427076995      -1.28898001     -0.303507000       1110.66980      -1.60779870    
  0.427509993      -1.28986895       0.00000000       1069.04407      -1.60771251    
  0.574636996      -1.23315501       0.00000000       1069.04407      -1.60771251    
  0.573706985      -1.23136795     -0.303485990       1069.04407      -1.60771251    
  0.427076995      -1.28898001     -0.303507000       1069.04407      -1.60771251    
  0.573706985      -1.23136795     -0.303485990       780.127991      -1.62433147    
  0.712854981      -1.15688002     -0.303496987       780.127991      -1.62433147    
  0.713809013      -1.15876603     -0.606999993       780.127991      -1.62433147    
  0.574283004      -1.23334301     -0.606999993       780.127991      -1.62433147    
  0.573706985      -1.23136795     -0.303485990       823.624146      -1.62429011    
  0.574283004      -1.23334301     -0.606999993       823.624146      -1.62429011    
  0.427242011      -1.28995001     -0.606999993       823.624146      -1.62429011    
  0.427076995      -1.28898001     -0.303507000       823.624146      -1.62429011    
  0.573706985      -1.23136795     -0.303485990       1014.47632      -1.60760534    
  0.574636996      -1.23315501       0.00000000       1014.47632      -1.60760534    
  0.713741004      -1.15880203       0.00000000       1014.47632      -1.60760534    
  0.712854981      -1.15688002     -0.303496987       1014.47632      -1.60760534    
  0.713741004      -1.15880203       0.00000000       944.648987      -1.60758173    
  0.841937006      -1.06636095       0.00000000       944.648987      -1.60758173    
  0.841498017      -1.06573403     -0.303485990       944.648987      -1.60758173    
  0.712854981      -1.15688002     -0.303496987       944.648987      -1.60758173    
  0.841498017      -1.06573403     -0.303485990       662.684509      -1.62435627    
  0.960639000     -0.962104976     -0.303470999       662.684509      -1.62435627    
  0.964356005     -0.965893984     -0.606999993       662.684509      -1.62435627    
  0.841796994      -1.06647599     -0.606999993       662.684509      -1.62435627    
  0.841498017      -1.06573403     -0.303485990       726.033813      -1.62435627    
  0.841796994      -1.06647599     -0.606999993       726.033813      -1.62435627    
  0.713809013      -1.15876603     -0.606999993       726.033813      -1.62435627    
  0.712854981      -1.15688002     -0.303496987       726.033813      -1.62435627    
  0.841498017      -1.06573403     -0.303485990       862.328186      -1.60784018    
  0.841937006      -1.06636095       0.00000000       862.328186      -1.60784018    
  0.963932991     -0.966242015       0.00000000       862.328186      -1.60784018    
  0.960639000     -0.962104976     -0.303470999       862.328186      -1.60784018    
  0.963932991     -0.966242015       0.00000000       765.830444      -1.60811174    
   1.06506598     -0.843514979       0.00000000       765.830444      -1.60811174    
   1.06428695     -0.842682004     -0.303481996       765.830444      -1.60811174    
  0.960639000     -0.962104976     -0.303470999       765.830444      -1.60811174    
   1.06428695     -0.842682004     -0.303481996       509.151398      -1.62493432    
   1.15591598     -0.714210987     -0.303485006       509.151398      -1.62493432    
   1.15788805     -0.715448976     -0.606999993       509.151398      -1.62493432    
   1.06537795     -0.843134999     -0.606999993       509.151398      -1.62493432    
   1.06428695     -0.842682004     -0.303481996       587.624512      -1.62475777    
   1.06537795     -0.843134999     -0.606999993       587.624512      -1.62475777    
  0.964356005     -0.965893984     -0.606999993       587.624512      -1.62475777    
  0.960639000     -0.962104976     -0.303470999       587.624512      -1.62475777    
   1.06428695     -0.842682004     -0.303481996       661.697449      -1.60799408    
   1.06506598     -0.843514979       0.00000000       661.697449      -1.60799408    
   1.15792501     -0.715381980       0.00000000       661.697449      -1.60799408    
   1.15591598     -0.714210987     -0.303485006       661.697449      -1.60799408    
   1.15792501     -0.715381980       0.00000000       547.148315      -1.60819948    
   1.23237598     -0.576093972       0.00000000       547.148315      -1.60819948    
   1.23120904     -0.575251997     -0.303514004       547.148315      -1.60819948    
   1.15591598     -0.714210987     -0.303485006       547.148315      -1.60819948    
   1.23120904     -0.575251997     -0.303514004       327.704559      -1.62554431    
   1.28844094     -0.428344995     -0.303512990       327.704559      -1.62554431    
   1.28952503     -0.428642988     -0.606999993       327.704559      -1.62554431    
   1.23252702     -0.575810015     -0.606999993       327.704559      -1.62554431    
   1.23120904     -0.575251997     -0.303514004       421.098175      -1.62524140    
   1.23252702     -0.575810015     -0.606999993       421.098175      -1.62524140    
   1.15788805     -0.715448976     -0.606999993       421.098175      -1.62524140    
   1.15591598     -0.714210987     -0.303485006       421.098175      -1.62524140    
   1.23120904     -0.575251997     -0.303514004       425.242706      -1.60910857    
   1.23237598     -0.576093972       0.00000000       425.242706      -1.60910857    
   1.28947699     -0.428801000       0.00000000       425.242706      -1.60910857    
   1.28844094     -0.428344995     -0.303512990       425.242706      -1.60910857    
   1.28947699     -0.428801000       0.00000000       300.759338      -1.60840106    
   1.33532202     -0.277671993       0.00000000       300.759338      -1.60840106    
   1.33076501     -0.276203990     -0.303492010       300.759338      -1.60840106    
   1.28844094     -0.428344995     -0.303512990       300.759338      -1.60840106    
   1.33076501     -0.276203990     -0.303492010       128.150482      -1.62878335    
   1.35229194     -0.119709998     -0.303514004       128.150482      -1.62878335    
   1.35321999     -0.119608998     -0.606999993       128.150482      -1.62878335    
   1.33549094     -0.277112991     -0.606999993       128.150482      -1.62878335    
   1.33076501     -0.276203990     -0.303492010       231.624084      -1.62564445    
   1.33549094     -0.277112991     -0.606999993       231.624084      -1.62564445    
   1.28952503     -0.428642988     -0.606999993       231.624084      -1.62564445    
   1.28844094     -0.428344995     -0.303512990       231.624084      -1.62564445    
   1.33076501     -0.276203990     -0.303492010       168.268127      -1.60806751    
   1.33532202     -0.277671993       0.00000000       168.268127      -1.60806751    
   1.35319102     -0.119900003       0.00000000       168.268127      -1.60806751    
   1.35229194     -0.119709998     -0.303514004       168.268127      -1.60806751    
   1.35319102     -0.119900003       0.00000000       36.5548592      -1.60489976    
   1.36124396       3.81390005E-02   0.00000000       36.5548592      -1.60489976    
   1.35858905       3.79349999E-02 -0.303501010       36.5548592      -1.60489976    
   1.35229194     -0.119709998     -0.303514004       36.5548592      -1.60489976    
   1.35858905       3.79349999E-02 -0.303501010       76.1483536       1.52039135    
   1.34464097      0.195331007     -0.303496003       76.1483536       1.52039135    
   1.34573400      0.195616007     -0.606999993       76.1483536       1.52039135    
   1.36126804       3.78950015E-02 -0.606999993       76.1483536       1.52039135    
   1.35858905       3.79349999E-02 -0.303501010       28.0655670      -1.62727880    
   1.36126804       3.78950015E-02 -0.606999993       28.0655670      -1.62727880    
   1.35321999     -0.119608998     -0.606999993       28.0655670      -1.62727880    
   1.35229194     -0.119709998     -0.303514004       28.0655670      -1.62727880    
   1.35858905       3.79349999E-02 -0.303501010       98.1744843       1.53369486    
   1.36124396       3.81390005E-02   0.00000000       98.1744843       1.53369486    
   1.34575403      0.195406005       0.00000000       98.1744843       1.53369486    
   1.34464097      0.195331007     -0.303496003       98.1744843       1.53369486    
   1.34575403      0.195406005       0.00000000       229.972931       1.53360903    
   1.31339800      0.349945009       0.00000000       229.972931       1.53360903    
   1.31216300      0.349725991     -0.303487003       229.972931       1.53360903    
   1.34464097      0.195331007     -0.303496003       229.972931       1.53360903    
   1.31216300      0.349725991     -0.303487003       275.435516       1.51678431    
   1.26341999      0.500032008     -0.303494006       275.435516       1.51678431    
   1.26736605      0.501691997     -0.606999993       275.435516       1.51678431    
   1.31333196      0.350163996     -0.606999993       275.435516       1.51678431    
   1.31216300      0.349725991     -0.303487003       177.849243       1.51862311    
   1.31333196      0.350163996     -0.606999993       177.849243       1.51862311    
   1.34573400      0.195616007     -0.606999993       177.849243       1.51862311    
   1.34464097      0.195331007     -0.303496003       177.849243       1.51862311    
   1.31216300      0.349725991     -0.303487003       357.917664       1.53337955    
   1.31339800      0.349945009       0.00000000       357.917664       1.53337955    
   1.26751196      0.501209974       0.00000000       357.917664       1.53337955    
   1.26341999      0.500032008     -0.303494006       357.917664       1.53337955    
   1.26751196      0.501209974       0.00000000       484.055450       1.53374636    
   1.19658697      0.643051028       0.00000000       484.055450       1.53374636    
   1.19583094      0.642783999     -0.303505003       484.055450       1.53374636    
   1.26341999      0.500032008     -0.303494006       484.055450       1.53374636    
   1.19583094      0.642783999     -0.303505003       462.223816       1.51699805    
   1.11495602      0.778467000     -0.303483993       462.223816       1.51699805    
   1.11731696      0.779847026     -0.606999993       462.223816       1.51699805    
   1.19653296      0.643149972     -0.606999993       462.223816       1.51699805    
   1.19583094      0.642783999     -0.303505003       372.965393       1.51741123    
   1.19653296      0.643149972     -0.606999993       372.965393       1.51741123    
   1.26736605      0.501691997     -0.606999993       372.965393       1.51741123    
   1.26341999      0.500032008     -0.303494006       372.965393       1.51741123    
   1.19583094      0.642783999     -0.303505003       601.345093       1.53364611    
   1.19658697      0.643051028       0.00000000       601.345093       1.53364611    
   1.11705506      0.780165970       0.00000000       601.345093       1.53364611    
   1.11495602      0.778467000     -0.303483993       601.345093       1.53364611    
   1.11705506      0.780165970       0.00000000       712.724548       1.53387439    
   1.01674199      0.902397990       0.00000000       712.724548       1.53387439    
   1.01591504      0.901737988     -0.303478003       712.724548       1.53387439    
   1.11495602      0.778467000     -0.303483993       712.724548       1.53387439    
   1.01591504      0.901737988     -0.303478003       624.883850       1.51725078    
  0.904204011       1.01322901     -0.303456992       624.883850       1.51725078    
  0.905143023       1.01448905     -0.606999993       624.883850       1.51725078    
   1.01659799      0.902572989     -0.606999993       624.883850       1.51725078    
   1.01591504      0.901737988     -0.303478003       548.237122       1.51723373    
   1.01659799      0.902572989     -0.606999993       548.237122       1.51723373    
   1.11731696      0.779847026     -0.606999993       548.237122       1.51723373    
   1.11495602      0.778467000     -0.303483993       548.237122       1.51723373    
   1.01591504      0.901737988     -0.303478003       811.759705       1.53384995    
   1.01674199      0.902397990       0.00000000       811.759705       1.53384995    
  0.905318975       1.01434398       0.00000000       811.759705       1.53384995    
  0.904204011       1.01322901     -0.303456992       811.759705       1.53384995    
  0.905318975       1.01434398       0.00000000       901.076294       1.53377688    
  0.782918990       1.11479497       0.00000000       901.076294       1.53377688    
  0.780644000       1.11195600     -0.303485006       901.076294       1.53377688    
  0.904204011       1.01322901     -0.303456992       901.076294       1.53377688    
  0.780644000       1.11195600     -0.303485006       752.963379       1.51734173    
  0.645825028       1.19414902     -0.303514004       752.963379       1.51734173    
  0.646153986       1.19492805     -0.606999993       752.963379       1.51734173    
  0.782611012       1.11504900     -0.606999993       752.963379       1.51734173    
  0.780644000       1.11195600     -0.303485006       692.853760       1.51717401    
  0.782611012       1.11504900     -0.606999993       692.853760       1.51717401    
  0.905143023       1.01448905     -0.606999993       692.853760       1.51717401    
  0.904204011       1.01322901     -0.303456992       692.853760       1.51717401    
  0.780644000       1.11195600     -0.303485006       977.885376       1.53377581    
  0.782918990       1.11479497       0.00000000       977.885376       1.53377581    
  0.646345019       1.19482601       0.00000000       977.885376       1.53377581    
  0.645825028       1.19414902     -0.303514004       977.885376       1.53377581    
  0.646345019       1.19482601       0.00000000       1040.60840       1.53373373    
  0.504974008       1.26637006       0.00000000       1040.60840       1.53373373    
  0.503772974       1.26314998     -0.303521991       1040.60840       1.53373373    
  0.645825028       1.19414902     -0.303514004       1040.60840       1.53373373    
  0.503772974       1.26314998     -0.303521991       839.785400       1.51727676    
  0.353130996       1.31116498     -0.303510994       839.785400       1.51727676    
  0.353300005       1.31237996     -0.606999993       839.785400       1.51727676    
  0.505183995       1.26630700     -0.606999993       839.785400       1.51727676    
  0.503772974       1.26314998     -0.303521991       800.943176       1.51720881    
  0.505183995       1.26630700     -0.606999993       800.943176       1.51720881    
  0.646153986       1.19492805     -0.606999993       800.943176       1.51720881    
  0.645825028       1.19414902     -0.303514004       800.943176       1.51720881    
  0.503772974       1.26314998     -0.303521991       1090.33569       1.53377116    
  0.504974008       1.26637006       0.00000000       1090.33569       1.53377116    
  0.353493989       1.31232095       0.00000000       1090.33569       1.53377116    
  0.353130996       1.31116498     -0.303510994       1090.33569       1.53377116    
  0.353493989       1.31232095       0.00000000       1123.97388       1.53375983    
  0.199064001       1.34539402       0.00000000       1123.97388       1.53375983    
  0.198755994       1.34360003     -0.303496003       1123.97388       1.53375983    
  0.353130996       1.31116498     -0.303510994       1123.97388       1.53375983    
  0.198755994       1.34360003     -0.303496003       880.648865       1.51729524    
   4.12769988E-02   1.35817802     -0.303508013       880.648865       1.51729524    
   4.12410013E-02   1.36093795     -0.606999993       880.648865       1.51729524    
  0.199025005       1.34539795     -0.606999993       880.648865       1.51729524    
  0.198755994       1.34360003     -0.303496003       866.156860       1.51730549    
  0.199025005       1.34539795     -0.606999993       866.156860       1.51730549    
  0.353300005       1.31237996     -0.606999993       866.156860       1.51730549    
  0.353130996       1.31116498     -0.303510994       866.156860       1.51730549    
  0.198755994       1.34360003     -0.303496003       1144.09680       1.53376555    
  0.199064001       1.34539402       0.00000000       1144.09680       1.53376555    
   4.17769998E-02   1.36088502       0.00000000       1144.09680       1.53376555    
   4.12769988E-02   1.35817802     -0.303508013       1144.09680       1.53376555    
   4.17769998E-02   1.36088502       0.00000000       1148.61072       1.53373981    
 -0.116410002       1.35353506       0.00000000       1148.61072       1.53373981    
 -0.116471998       1.35271096     -0.303496987       1148.61072       1.53373981    
   4.12769988E-02   1.35817802     -0.303508013       1148.61072       1.53373981    
 -0.116471998       1.35271096     -0.303496987       874.738159       1.51694822    
 -0.273027003       1.33229196     -0.303496003       874.738159       1.51694822    
 -0.273876995       1.33647299     -0.606999993       874.738159       1.51694822    
 -0.116722003       1.35350394     -0.606999993       874.738159       1.51694822    
 -0.116471998       1.35271096     -0.303496987       883.975830       1.51734185    
 -0.116722003       1.35350394     -0.606999993       883.975830       1.51734185    
   4.12410013E-02   1.36093795     -0.606999993       883.975830       1.51734185    
   4.12769988E-02   1.35817802     -0.303508013       883.975830       1.51734185    
 -0.116471998       1.35271096     -0.303496987       1137.78723       1.53370893    
 -0.116410002       1.35353506       0.00000000       1137.78723       1.53370893    
 -0.274069011       1.33641505       0.00000000       1137.78723       1.53370893    
 -0.273027003       1.33229196     -0.303496003       1137.78723       1.53370893    
 -0.274069011       1.33641505       0.00000000       1110.31873       1.53365207    
 -0.425588995       1.29045200       0.00000000       1110.31873       1.53365207    
 -0.425258011       1.28953803     -0.303507000       1110.31873       1.53365207    
 -0.273027003       1.33229196     -0.303496003       1110.31873       1.53365207    
 -0.425258011       1.28953803     -0.303507000       823.014832       1.51705682    
 -0.572302997       1.23206902     -0.303485990       823.014832       1.51705682    
 -0.573064029       1.23399496     -0.606999993       823.014832       1.51705682    
 -0.425651014       1.29043305     -0.606999993       823.014832       1.51705682    
 -0.425258011       1.28953803     -0.303507000       853.593384       1.51687157    
 -0.425651014       1.29043305     -0.606999993       853.593384       1.51687157    
 -0.273876995       1.33647299     -0.606999993       853.593384       1.51687157    
 -0.273027003       1.33229196     -0.303496003       853.593384       1.51687157    
 -0.425258011       1.28953803     -0.303507000       1069.69653       1.53380620    
 -0.425588995       1.29045200       0.00000000       1069.69653       1.53380620    
 -0.573195994       1.23392498       0.00000000       1069.69653       1.53380620    
 -0.572302997       1.23206902     -0.303485990       1069.69653       1.53380620    
 -0.573195994       1.23392498       0.00000000       1015.50024       1.53395176    
 -0.712655008       1.15938199       0.00000000       1015.50024       1.53395176    
 -0.711889029       1.15749002     -0.303496003       1015.50024       1.53395176    
 -0.572302997       1.23206902     -0.303485990       1015.50024       1.53395176    
 -0.711889029       1.15749002     -0.303496003       726.200317       1.51702392    
 -0.840825975       1.06629205     -0.303485990       726.200317       1.51702392    
 -0.841368973       1.06682706     -0.606999993       726.200317       1.51702392    
 -0.712980986       1.15920806     -0.606999993       726.200317       1.51702392    
 -0.711889029       1.15749002     -0.303496003       779.895325       1.51702368    
 -0.712980986       1.15920806     -0.606999993       779.895325       1.51702368    
 -0.573064029       1.23399496     -0.606999993       779.895325       1.51702368    
 -0.572302997       1.23206902     -0.303485990       779.895325       1.51702368    
 -0.711889029       1.15749002     -0.303496003       945.899353       1.53407609    
 -0.712655008       1.15938199       0.00000000       945.899353       1.53407609    
 -0.841165006       1.06699395       0.00000000       945.899353       1.53407609    
 -0.840825975       1.06629205     -0.303485990       945.899353       1.53407609    
 -0.841165006       1.06699395       0.00000000       864.696167       1.53418136    
 -0.963320017      0.966744006       0.00000000       864.696167       1.53418136    
 -0.960084975      0.962615013     -0.303470999       864.696167       1.53418136    
 -0.840825975       1.06629205     -0.303485990       864.696167       1.53418136    
 -0.960084975      0.962615013     -0.303470999       588.613831       1.51672459    
  -1.06383705      0.843237996     -0.303481996       588.613831       1.51672459    
  -1.06481802      0.843816996     -0.606999993       588.613831       1.51672459    
 -0.963873982      0.966289997     -0.606999993       588.613831       1.51672459    
 -0.960084975      0.962615013     -0.303470999       663.874878       1.51712883    
 -0.963873982      0.966289997     -0.606999993       663.874878       1.51712883    
 -0.841368973       1.06682706     -0.606999993       663.874878       1.51712883    
 -0.840825975       1.06629205     -0.303485990       663.874878       1.51712883    
 -0.960084975      0.962615013     -0.303470999       767.860168       1.53395522    
 -0.963320017      0.966744006       0.00000000       767.860168       1.53395522    
  -1.06464398      0.844029009       0.00000000       767.860168       1.53395522    
  -1.06383705      0.843237996     -0.303481996       767.860168       1.53395522    
  -1.06464398      0.844029009       0.00000000       663.019714       1.53404748    
  -1.15769398      0.715813994       0.00000000       663.019714       1.53404748    
  -1.15564799      0.714680016     -0.303483993       663.019714       1.53404748    
  -1.06383705      0.843237996     -0.303481996       663.019714       1.53404748    
  -1.15564799      0.714680016     -0.303483993       421.300903       1.51666164    
  -1.23108304      0.575536013     -0.303514004       421.300903       1.51666164    
  -1.23232996      0.576179981     -0.606999993       421.300903       1.51666164    
  -1.15756094      0.716063023     -0.606999993       421.300903       1.51666164    
  -1.15564799      0.714680016     -0.303483993       509.534851       1.51691723    
  -1.15756094      0.716063023     -0.606999993       509.534851       1.51691723    
  -1.06481802      0.843816996     -0.606999993       509.534851       1.51691723    
  -1.06383705      0.843237996     -0.303481996       509.534851       1.51691723    
  -1.15564799      0.714680016     -0.303483993       548.303528       1.53386497    
  -1.15769398      0.715813994       0.00000000       548.303528       1.53386497    
  -1.23224795      0.576331973       0.00000000       548.303528       1.53386497    
  -1.23108304      0.575536013     -0.303514004       548.303528       1.53386497    
  -1.23224795      0.576331973       0.00000000       426.000031       1.53366816    
  -1.28948605      0.428772002       0.00000000       426.000031       1.53366816    
  -1.28842103      0.428404987     -0.303512990       426.000031       1.53366816    
  -1.23108304      0.575536013     -0.303514004       426.000031       1.53366816    
  -1.28842103      0.428404987     -0.303512990       230.815109       1.51617682    
  -1.33082402      0.275959998     -0.303492010       230.815109       1.51617682    
  -1.33550000      0.277083993     -0.606999993       230.815109       1.51617682    