 VARIABLES="X" "Y" "Z" "abs(p) (Pa)" "angle(p) (rad)"
ZONE N=   2720,E =    2069, F=FEPOINT, ET=QUADRILATERAL
 -0.767116010      -1.12776399       0.00000000       10387.2764       1.62868261    
 -0.769354999      -1.12002099     -0.303523988       10387.2764       1.62868261    
 -0.896136999      -1.02028203     -0.303463012       10387.2764       1.62868261    
 -0.894908011      -1.02288902       0.00000000       10387.2764       1.62868261    
 -0.767116010      -1.12776399       0.00000000       8820.68164       1.62872875    
 -0.630888999      -1.20308697       0.00000000       8820.68164       1.62872875    
 -0.635528028      -1.19958198     -0.303541005       8820.68164       1.62872875    
 -0.769354999      -1.12002099     -0.303523988       8820.68164       1.62872875    
 -0.635528028      -1.19958198     -0.303541005       4227.75195       1.62478983    
 -0.495362997      -1.26606500     -0.303519011       4227.75195       1.62478983    
 -0.499298006      -1.26809204     -0.606999993       4227.75195       1.62478983    
 -0.640147984      -1.19813800     -0.606998026       4227.75195       1.62478983    
 -0.635528028      -1.19958198     -0.303541005       5253.35107       1.62479937    
 -0.640147984      -1.19813800     -0.606998026       5253.35107       1.62479937    
 -0.777105987      -1.11956596     -0.606999993       5253.35107       1.62479937    
 -0.769354999      -1.12002099     -0.303523988       5253.35107       1.62479937    
 -0.635528028      -1.19958198     -0.303541005       7026.12061       1.62869632    
 -0.630888999      -1.20308697       0.00000000       7026.12061       1.62869632    
 -0.494486004      -1.26955199       0.00000000       7026.12061       1.62869632    
 -0.495362997      -1.26606500     -0.303519011       7026.12061       1.62869632    
 -0.494486004      -1.26955199       0.00000000       5316.58594       1.62879980    
 -0.346311986      -1.31449997       0.00000000       5316.58594       1.62879980    
 -0.346753001      -1.31307304     -0.303510010       5316.58594       1.62879980    
 -0.495362997      -1.26606500     -0.303519011       5316.58594       1.62879980    
 -0.346753001      -1.31307304     -0.303510010       2054.36304       1.62498784    
 -0.193608001      -1.34425998     -0.303494990       2054.36304       1.62498784    
 -0.195028007      -1.34579206     -0.606999993       2054.36304       1.62498784    
 -0.348751009      -1.31376004     -0.606999993       2054.36304       1.62498784    
 -0.346753001      -1.31307304     -0.303510010       3180.07788       1.62492704    
 -0.348751009      -1.31376004     -0.606999993       3180.07788       1.62492704    
 -0.499298006      -1.26809204     -0.606999993       3180.07788       1.62492704    
 -0.495362997      -1.26606500     -0.303519011       3180.07788       1.62492704    
 -0.346753001      -1.31307304     -0.303510010       3435.39453       1.62887728    
 -0.346311986      -1.31449997       0.00000000       3435.39453       1.62887728    
 -0.193381995      -1.34595394       0.00000000       3435.39453       1.62887728    
 -0.193608001      -1.34425998     -0.303494990       3435.39453       1.62887728    
 -0.193381995      -1.34595394       0.00000000       1578.59998       1.62942362    
  -3.75179984E-02  -1.36130500       0.00000000       1578.59998       1.62942362    
  -3.73950005E-02  -1.35827899     -0.303512007       1578.59998       1.62942362    
 -0.193608001      -1.34425998     -0.303494990       1578.59998       1.62942362    
  -3.73950005E-02  -1.35827899     -0.303512007       224.626663      -1.51940989    
  0.119547002      -1.35239303     -0.303498000       224.626663      -1.51940989    
  0.119135000      -1.35326600     -0.606999993       224.626663      -1.51940989    
  -3.82840000E-02  -1.36122894     -0.606998980       224.626663      -1.51940989    
  -3.73950005E-02  -1.35827899     -0.303512007       910.658264       1.62502313    
  -3.82840000E-02  -1.36122894     -0.606998980       910.658264       1.62502313    
 -0.195028007      -1.34579206     -0.606999993       910.658264       1.62502313    
 -0.193608001      -1.34425998     -0.303494990       910.658264       1.62502313    
  -3.73950005E-02  -1.35827899     -0.303512007       303.692810      -1.51807749    
  -3.75179984E-02  -1.36130500       0.00000000       303.692810      -1.51807749    
  0.119788997      -1.35320199       0.00000000       303.692810      -1.51807749    
  0.119547002      -1.35239303     -0.303498000       303.692810      -1.51807749    
  0.119788997      -1.35320199       0.00000000       2254.54517      -1.51353836    
  0.276576012      -1.33565402       0.00000000       2254.54517      -1.51353836    
  0.275435001      -1.33191597     -0.303496003       2254.54517      -1.51353836    
  0.119547002      -1.35239303     -0.303498000       2254.54517      -1.51353836    
  0.275435001      -1.33191597     -0.303496003       2455.65723      -1.51737237    
  0.427076995      -1.28898001     -0.303507000       2455.65723      -1.51737237    
  0.427242011      -1.28995001     -0.606999993       2455.65723      -1.51737237    
  0.275831014      -1.33588004     -0.606999993       2455.65723      -1.51737237    
  0.275435001      -1.33191597     -0.303496003       1359.71228      -1.51736677    
  0.275831014      -1.33588004     -0.606999993       1359.71228      -1.51736677    
  0.119135000      -1.35326600     -0.606999993       1359.71228      -1.51736677    
  0.119547002      -1.35239303     -0.303498000       1359.71228      -1.51736677    
  0.275435001      -1.33191597     -0.303496003       4058.53296      -1.51340616    
  0.276576012      -1.33565402       0.00000000       4058.53296      -1.51340616    
  0.427509993      -1.28986895       0.00000000       4058.53296      -1.51340616    
  0.427076995      -1.28898001     -0.303507000       4058.53296      -1.51340616    
  0.427509993      -1.28986895       0.00000000       5801.72021      -1.51338363    
  0.574636996      -1.23315501       0.00000000       5801.72021      -1.51338363    
  0.573706985      -1.23136795     -0.303485990       5801.72021      -1.51338363    
  0.427076995      -1.28898001     -0.303507000       5801.72021      -1.51338363    
  0.573706985      -1.23136795     -0.303485990       4600.26025      -1.51715875    
  0.712854981      -1.15688002     -0.303496987       4600.26025      -1.51715875    
  0.713809013      -1.15876603     -0.606999993       4600.26025      -1.51715875    
  0.574283004      -1.23334301     -0.606999993       4600.26025      -1.51715875    
  0.573706985      -1.23136795     -0.303485990       3550.39551      -1.51720262    
  0.574283004      -1.23334301     -0.606999993       3550.39551      -1.51720262    
  0.427242011      -1.28995001     -0.606999993       3550.39551      -1.51720262    
  0.427076995      -1.28898001     -0.303507000       3550.39551      -1.51720262    
  0.573706985      -1.23136795     -0.303485990       7496.60693      -1.51335013    
  0.574636996      -1.23315501       0.00000000       7496.60693      -1.51335013    
  0.713741004      -1.15880203       0.00000000       7496.60693      -1.51335013    
  0.712854981      -1.15688002     -0.303496987       7496.60693      -1.51335013    
  0.713741004      -1.15880203       0.00000000       9091.85547      -1.51331389    
  0.841937006      -1.06636095       0.00000000       9091.85547      -1.51331389    
  0.841498017      -1.06573403     -0.303485990       9091.85547      -1.51331389    
  0.712854981      -1.15688002     -0.303496987       9091.85547      -1.51331389    
  0.841498017      -1.06573403     -0.303485990       6533.04541      -1.51709020    
  0.960639000     -0.962104976     -0.303470999       6533.04541      -1.51709020    
  0.964356005     -0.965893984     -0.606999993       6533.04541      -1.51709020    
  0.841796994      -1.06647599     -0.606999993       6533.04541      -1.51709020    
  0.841498017      -1.06573403     -0.303485990       5575.78174      -1.51716316    
  0.841796994      -1.06647599     -0.606999993       5575.78174      -1.51716316    
  0.713809013      -1.15876603     -0.606999993       5575.78174      -1.51716316    
  0.712854981      -1.15688002     -0.303496987       5575.78174      -1.51716316    
  0.841498017      -1.06573403     -0.303485990       10815.7148      -1.51317179    
  0.841937006      -1.06636095       0.00000000       10815.7148      -1.51317179    
  0.963932991     -0.966242015       0.00000000       10815.7148      -1.51317179    
  0.960639000     -0.962104976     -0.303470999       10815.7148      -1.51317179    
  0.963932991     -0.966242015       0.00000000       12203.6797      -1.51313925    
   1.06506598     -0.843514979       0.00000000       12203.6797      -1.51313925    
   1.06428695     -0.842682004     -0.303481996       12203.6797      -1.51313925    
  0.960639000     -0.962104976     -0.303470999       12203.6797      -1.51313925    
   1.06428695     -0.842682004     -0.303481996       8110.65576      -1.51690280    
   1.15591598     -0.714210987     -0.303485006       8110.65576      -1.51690280    
   1.15788805     -0.715448976     -0.606999993       8110.65576      -1.51690280    
   1.06537795     -0.843134999     -0.606999993       8110.65576      -1.51690280    
   1.06428695     -0.842682004     -0.303481996       7352.54297      -1.51709187    
   1.06537795     -0.843134999     -0.606999993       7352.54297      -1.51709187    
  0.964356005     -0.965893984     -0.606999993       7352.54297      -1.51709187    
  0.960639000     -0.962104976     -0.303470999       7352.54297      -1.51709187    
   1.06428695     -0.842682004     -0.303481996       13340.0000      -1.51313949    
   1.06506598     -0.843514979       0.00000000       13340.0000      -1.51313949    
   1.15792501     -0.715381980       0.00000000       13340.0000      -1.51313949    
   1.15591598     -0.714210987     -0.303485006       13340.0000      -1.51313949    
   1.15792501     -0.715381980       0.00000000       14540.0068      -1.51308620    
   1.23237598     -0.576093972       0.00000000       14540.0068      -1.51308620    
   1.23120904     -0.575251997     -0.303514004       14540.0068      -1.51308620    
   1.15591598     -0.714210987     -0.303485006       14540.0068      -1.51308620    
   1.23120904     -0.575251997     -0.303514004       9267.65430      -1.51686180    
   1.28844094     -0.428344995     -0.303512990       9267.65430      -1.51686180    
   1.28952503     -0.428642988     -0.606999993       9267.65430      -1.51686180    
   1.23252702     -0.575810015     -0.606999993       9267.65430      -1.51686180    
   1.23120904     -0.575251997     -0.303514004       8767.33398      -1.51687753    
   1.23252702     -0.575810015     -0.606999993       8767.33398      -1.51687753    
   1.15788805     -0.715448976     -0.606999993       8767.33398      -1.51687753    
   1.15591598     -0.714210987     -0.303485006       8767.33398      -1.51687753    
   1.23120904     -0.575251997     -0.303514004       15445.8936      -1.51303077    
   1.23237598     -0.576093972       0.00000000       15445.8936      -1.51303077    
   1.28947699     -0.428801000       0.00000000       15445.8936      -1.51303077    
   1.28844094     -0.428344995     -0.303512990       15445.8936      -1.51303077    
   1.28947699     -0.428801000       0.00000000       16177.9727      -1.51301026    
   1.33532202     -0.277671993       0.00000000       16177.9727      -1.51301026    
   1.33076501     -0.276203990     -0.303492010       16177.9727      -1.51301026    
   1.28844094     -0.428344995     -0.303512990       16177.9727      -1.51301026    
   1.33076501     -0.276203990     -0.303492010       9940.61719      -1.51669431    
   1.35229194     -0.119709998     -0.303514004       9940.61719      -1.51669431    
   1.35321999     -0.119608998     -0.606999993       9940.61719      -1.51669431    
   1.33549094     -0.277112991     -0.606999993       9940.61719      -1.51669431    
   1.33076501     -0.276203990     -0.303492010       9664.14844      -1.51687896    
   1.33549094     -0.277112991     -0.606999993       9664.14844      -1.51687896    
   1.28952503     -0.428642988     -0.606999993       9664.14844      -1.51687896    
   1.28844094     -0.428344995     -0.303512990       9664.14844      -1.51687896    
   1.33076501     -0.276203990     -0.303492010       16522.9727      -1.51307213    
   1.33532202     -0.277671993       0.00000000       16522.9727      -1.51307213    
   1.35319102     -0.119900003       0.00000000       16522.9727      -1.51307213    
   1.35229194     -0.119709998     -0.303514004       16522.9727      -1.51307213    
   1.35319102     -0.119900003       0.00000000       16697.2949      -1.51308239    
   1.36124396       3.81390005E-02   0.00000000       16697.2949      -1.51308239    
   1.35858905       3.79349999E-02 -0.303501010       16697.2949      -1.51308239    
   1.35229194     -0.119709998     -0.303514004       16697.2949      -1.51308239    
   1.35858905       3.79349999E-02 -0.303501010       10054.3799      -1.51673067    
   1.34464097      0.195331007     -0.303496003       10054.3799      -1.51673067    
   1.34573400      0.195616007     -0.606999993       10054.3799      -1.51673067    
   1.36126804       3.78950015E-02 -0.606999993       10054.3799      -1.51673067    
   1.35858905       3.79349999E-02 -0.303501010       10044.6465      -1.51675475    
   1.36126804       3.78950015E-02 -0.606999993       10044.6465      -1.51675475    
   1.35321999     -0.119608998     -0.606999993       10044.6465      -1.51675475    
   1.35229194     -0.119709998     -0.303514004       10044.6465      -1.51675475    
   1.35858905       3.79349999E-02 -0.303501010       16795.5098      -1.51295412    
   1.36124396       3.81390005E-02   0.00000000       16795.5098      -1.51295412    
   1.34575403      0.195406005       0.00000000       16795.5098      -1.51295412    
   1.34464097      0.195331007     -0.303496003       16795.5098      -1.51295412    
   1.34575403      0.195406005       0.00000000       16553.6934      -1.51295376    
   1.31339800      0.349945009       0.00000000       16553.6934      -1.51295376    
   1.31216300      0.349725991     -0.303487003       16553.6934      -1.51295376    
   1.34464097      0.195331007     -0.303496003       16553.6934      -1.51295376    
   1.31216300      0.349725991     -0.303487003       9599.81250      -1.51671553    
   1.26341999      0.500032008     -0.303494006       9599.81250      -1.51671553    
   1.26736605      0.501691997     -0.606999993       9599.81250      -1.51671553    
   1.31333196      0.350163996     -0.606999993       9599.81250      -1.51671553    
   1.31216300      0.349725991     -0.303487003       9891.46777      -1.51670682    
   1.31333196      0.350163996     -0.606999993       9891.46777      -1.51670682    
   1.34573400      0.195616007     -0.606999993       9891.46777      -1.51670682    
   1.34464097      0.195331007     -0.303496003       9891.46777      -1.51670682    
   1.31216300      0.349725991     -0.303487003       16239.0195      -1.51288986    
   1.31339800      0.349945009       0.00000000       16239.0195      -1.51288986    
   1.26751196      0.501209974       0.00000000       16239.0195      -1.51288986    
   1.26341999      0.500032008     -0.303494006       16239.0195      -1.51288986    
   1.26751196      0.501209974       0.00000000       15449.4150      -1.51301277    
   1.19658697      0.643051028       0.00000000       15449.4150      -1.51301277    
   1.19583094      0.642783999     -0.303505003       15449.4150      -1.51301277    
   1.26341999      0.500032008     -0.303494006       15449.4150      -1.51301277    
   1.19583094      0.642783999     -0.303505003       8605.07227      -1.51669550    
   1.11495602      0.778467000     -0.303483993       8605.07227      -1.51669550    
   1.11731696      0.779847026     -0.606999993       8605.07227      -1.51669550    
   1.19653296      0.643149972     -0.606999993       8605.07227      -1.51669550    
   1.19583094      0.642783999     -0.303505003       9156.96875      -1.51671457    
   1.19653296      0.643149972     -0.606999993       9156.96875      -1.51671457    
   1.26736605      0.501691997     -0.606999993       9156.96875      -1.51671457    
   1.26341999      0.500032008     -0.303494006       9156.96875      -1.51671457    
   1.19583094      0.642783999     -0.303505003       14308.9385      -1.51306343    
   1.19658697      0.643051028       0.00000000       14308.9385      -1.51306343    
   1.11705506      0.780165970       0.00000000       14308.9385      -1.51306343    
   1.11495602      0.778467000     -0.303483993       14308.9385      -1.51306343    
   1.11705506      0.780165970       0.00000000       13070.2441      -1.51309025    
   1.01674199      0.902397990       0.00000000       13070.2441      -1.51309025    
   1.01591504      0.901737988     -0.303478003       13070.2441      -1.51309025    
   1.11495602      0.778467000     -0.303483993       13070.2441      -1.51309025    
   1.01591504      0.901737988     -0.303478003       7056.90283      -1.51693547    
  0.904204011       1.01322901     -0.303456992       7056.90283      -1.51693547    
  0.905143023       1.01448905     -0.606999993       7056.90283      -1.51693547    
   1.01659799      0.902572989     -0.606999993       7056.90283      -1.51693547    
   1.01591504      0.901737988     -0.303478003       7889.32910      -1.51688838    
   1.01659799      0.902572989     -0.606999993       7889.32910      -1.51688838    
   1.11731696      0.779847026     -0.606999993       7889.32910      -1.51688838    
   1.11495602      0.778467000     -0.303483993       7889.32910      -1.51688838    
   1.01591504      0.901737988     -0.303478003       11582.1719      -1.51316798    
   1.01674199      0.902397990       0.00000000       11582.1719      -1.51316798    
  0.905318975       1.01434398       0.00000000       11582.1719      -1.51316798    
  0.904204011       1.01322901     -0.303456992       11582.1719      -1.51316798    
  0.905318975       1.01434398       0.00000000       10210.4170      -1.51315486    
  0.782918990       1.11479497       0.00000000       10210.4170      -1.51315486    
  0.780644000       1.11195600     -0.303485006       10210.4170      -1.51315486    
  0.904204011       1.01322901     -0.303456992       10210.4170      -1.51315486    
  0.780644000       1.11195600     -0.303485006       5210.60596      -1.51701748    
  0.645825028       1.19414902     -0.303514004       5210.60596      -1.51701748    
  0.646153986       1.19492805     -0.606999993       5210.60596      -1.51701748    
  0.782611012       1.11504900     -0.606999993       5210.60596      -1.51701748    
  0.780644000       1.11195600     -0.303485006       6168.30420      -1.51700783    
  0.782611012       1.11504900     -0.606999993       6168.30420      -1.51700783    
  0.905143023       1.01448905     -0.606999993       6168.30420      -1.51700783    
  0.904204011       1.01322901     -0.303456992       6168.30420      -1.51700783    
  0.780644000       1.11195600     -0.303485006       8638.49609      -1.51317394    
  0.782918990       1.11479497       0.00000000       8638.49609      -1.51317394    
  0.646345019       1.19482601       0.00000000       8638.49609      -1.51317394    
  0.645825028       1.19414902     -0.303514004       8638.49609      -1.51317394    
  0.646345019       1.19482601       0.00000000       6892.86914      -1.51325166    
  0.504974008       1.26637006       0.00000000       6892.86914      -1.51325166    
  0.503772974       1.26314998     -0.303521991       6892.86914      -1.51325166    
  0.645825028       1.19414902     -0.303514004       6892.86914      -1.51325166    
  0.503772974       1.26314998     -0.303521991       3126.67651      -1.51708817    
  0.353130996       1.31116498     -0.303510994       3126.67651      -1.51708817    
  0.353300005       1.31237996     -0.606999993       3126.67651      -1.51708817    
  0.505183995       1.26630700     -0.606999993       3126.67651      -1.51708817    
  0.503772974       1.26314998     -0.303521991       4177.87061      -1.51712525    
  0.505183995       1.26630700     -0.606999993       4177.87061      -1.51712525    
  0.646153986       1.19492805     -0.606999993       4177.87061      -1.51712525    
  0.645825028       1.19414902     -0.303514004       4177.87061      -1.51712525    
  0.503772974       1.26314998     -0.303521991       5160.95557      -1.51328778    
  0.504974008       1.26637006       0.00000000       5160.95557      -1.51328778    
  0.353493989       1.31232095       0.00000000       5160.95557      -1.51328778    
  0.353130996       1.31116498     -0.303510994       5160.95557      -1.51328778    
  0.353493989       1.31232095       0.00000000       3256.13232      -1.51350808    
  0.199064001       1.34539402       0.00000000       3256.13232      -1.51350808    
  0.198755994       1.34360003     -0.303496003       3256.13232      -1.51350808    
  0.353130996       1.31116498     -0.303510994       3256.13232      -1.51350808    
  0.198755994       1.34360003     -0.303496003       813.403320      -1.51853561    
   4.12769988E-02   1.35817802     -0.303508013       813.403320      -1.51853561    
   4.12410013E-02   1.36093795     -0.606999993       813.403320      -1.51853561    
  0.199025005       1.34539795     -0.606999993       813.403320      -1.51853561    
  0.198755994       1.34360003     -0.303496003       1995.78711      -1.51728976    
  0.199025005       1.34539795     -0.606999993       1995.78711      -1.51728976    
  0.353300005       1.31237996     -0.606999993       1995.78711      -1.51728976    
  0.353130996       1.31116498     -0.303510994       1995.78711      -1.51728976    
  0.198755994       1.34360003     -0.303496003       1355.45898      -1.51421940    
  0.199064001       1.34539402       0.00000000       1355.45898      -1.51421940    
   4.17769998E-02   1.36088502       0.00000000       1355.45898      -1.51421940    
   4.12769988E-02   1.35817802     -0.303508013       1355.45898      -1.51421940    
   4.17769998E-02   1.36088502       0.00000000       547.555481       1.63153934    
 -0.116410002       1.35353506       0.00000000       547.555481       1.63153934    
 -0.116471998       1.35271096     -0.303496987       547.555481       1.63153934    
   4.12769988E-02   1.35817802     -0.303508013       547.555481       1.63153934    
 -0.116471998       1.35271096     -0.303496987       1509.28528       1.62680340    
 -0.273027003       1.33229196     -0.303496003       1509.28528       1.62680340    
 -0.273876995       1.33647299     -0.606999993       1509.28528       1.62680340    
 -0.116722003       1.35350394     -0.606999993       1509.28528       1.62680340    
 -0.116471998       1.35271096     -0.303496987       332.368042       1.62856698    
 -0.116722003       1.35350394     -0.606999993       332.368042       1.62856698    
   4.12410013E-02   1.36093795     -0.606999993       332.368042       1.62856698    
   4.12769988E-02   1.35817802     -0.303508013       332.368042       1.62856698    
 -0.116471998       1.35271096     -0.303496987       2525.56812       1.62935901    
 -0.116410002       1.35353506       0.00000000       2525.56812       1.62935901    
 -0.274069011       1.33641505       0.00000000       2525.56812       1.62935901    
 -0.273027003       1.33229196     -0.303496003       2525.56812       1.62935901    
 -0.274069011       1.33641505       0.00000000       4348.61279       1.62898600    
 -0.425588995       1.29045200       0.00000000       4348.61279       1.62898600    
 -0.425258011       1.28953803     -0.303507000       4348.61279       1.62898600    
 -0.273027003       1.33229196     -0.303496003       4348.61279       1.62898600    
 -0.425258011       1.28953803     -0.303507000       3694.52319       1.62552440    
 -0.572302997       1.23206902     -0.303485990       3694.52319       1.62552440    
 -0.573064029       1.23399496     -0.606999993       3694.52319       1.62552440    
 -0.425651014       1.29043305     -0.606999993       3694.52319       1.62552440    
 -0.425258011       1.28953803     -0.303507000       2606.64185       1.62577713    
 -0.425651014       1.29043305     -0.606999993       2606.64185       1.62577713    
 -0.273876995       1.33647299     -0.606999993       2606.64185       1.62577713    
 -0.273027003       1.33229196     -0.303496003       2606.64185       1.62577713    
 -0.425258011       1.28953803     -0.303507000       6085.07178       1.62880218    
 -0.425588995       1.29045200       0.00000000       6085.07178       1.62880218    
 -0.573195994       1.23392498       0.00000000       6085.07178       1.62880218    
 -0.572302997       1.23206902     -0.303485990       6085.07178       1.62880218    
 -0.573195994       1.23392498       0.00000000       7750.70166       1.62870586    
 -0.712655008       1.15938199       0.00000000       7750.70166       1.62870586    
 -0.711889029       1.15749002     -0.303496003       7750.70166       1.62870586    
 -0.572302997       1.23206902     -0.303485990       7750.70166       1.62870586    
 -0.711889029       1.15749002     -0.303496003       5686.94775       1.62515259    
 -0.840825975       1.06629205     -0.303485990       5686.94775       1.62515259    
 -0.841368973       1.06682706     -0.606999993       5686.94775       1.62515259    
 -0.712980986       1.15920806     -0.606999993       5686.94775       1.62515259    
 -0.711889029       1.15749002     -0.303496003       4726.93896       1.62527299    
 -0.712980986       1.15920806     -0.606999993       4726.93896       1.62527299    
 -0.573064029       1.23399496     -0.606999993       4726.93896       1.62527299    
 -0.572302997       1.23206902     -0.303485990       4726.93896       1.62527299    
 -0.711889029       1.15749002     -0.303496003       9254.62793       1.62862957    
 -0.712655008       1.15938199       0.00000000       9254.62793       1.62862957    
 -0.841165006       1.06699395       0.00000000       9254.62793       1.62862957    
 -0.840825975       1.06629205     -0.303485990       9254.62793       1.62862957    
 -0.841165006       1.06699395       0.00000000       10852.2354       1.62867725    
 -0.963320017      0.966744006       0.00000000       10852.2354       1.62867725    
 -0.960084975      0.962615013     -0.303470999       10852.2354       1.62867725    
 -0.840825975       1.06629205     -0.303485990       10852.2354       1.62867725    
 -0.960084975      0.962615013     -0.303470999       7441.23389       1.62502837    
  -1.06383705      0.843237996     -0.303481996       7441.23389       1.62502837    
  -1.06481802      0.843816996     -0.606999993       7441.23389       1.62502837    
 -0.963873982      0.966289997     -0.606999993       7441.23389       1.62502837    
 -0.960084975      0.962615013     -0.303470999       6618.05078       1.62509263    
 -0.963873982      0.966289997     -0.606999993       6618.05078       1.62509263    
 -0.841368973       1.06682706     -0.606999993       6618.05078       1.62509263    
 -0.840825975       1.06629205     -0.303485990       6618.05078       1.62509263    
 -0.960084975      0.962615013     -0.303470999       12261.4697       1.62869692    
 -0.963320017      0.966744006       0.00000000       12261.4697       1.62869692    
  -1.06464398      0.844029009       0.00000000       12261.4697       1.62869692    
  -1.06383705      0.843237996     -0.303481996       12261.4697       1.62869692    
  -1.06464398      0.844029009       0.00000000       13550.8438       1.62868035    
  -1.15769398      0.715813994       0.00000000       13550.8438       1.62868035    
  -1.15564799      0.714680016     -0.303483993       13550.8438       1.62868035    
  -1.06383705      0.843237996     -0.303481996       13550.8438       1.62868035    
  -1.15564799      0.714680016     -0.303483993       8906.59766       1.62511814    
  -1.23108304      0.575536013     -0.303514004       8906.59766       1.62511814    
  -1.23232996      0.576179981     -0.606999993       8906.59766       1.62511814    
  -1.15756094      0.716063023     -0.606999993       8906.59766       1.62511814    
  -1.15564799      0.714680016     -0.303483993       8215.21582       1.62508309    
  -1.15756094      0.716063023     -0.606999993       8215.21582       1.62508309    
  -1.06481802      0.843816996     -0.606999993       8215.21582       1.62508309    
  -1.06383705      0.843237996     -0.303481996       8215.21582       1.62508309    
  -1.15564799      0.714680016     -0.303483993       14877.3184       1.62873018    
  -1.15769398      0.715813994       0.00000000       14877.3184       1.62873018    
  -1.23224795      0.576331973       0.00000000       14877.3184       1.62873018    
  -1.23108304      0.575536013     -0.303514004       14877.3184       1.62873018    
  -1.23224795      0.576331973       0.00000000       15818.5283       1.62872636    
  -1.28948605      0.428772002       0.00000000       15818.5283       1.62872636    
  -1.28842103      0.428404987     -0.303512990       15818.5283       1.62872636    
  -1.23108304      0.575536013     -0.303514004       15818.5283       1.62872636    
  -1.28842103      0.428404987     -0.303512990       9838.15039       1.62497246    
  -1.33082402      0.275959998     -0.303492010       9838.15039       1.62497246    
  -1.33550000      0.277083993     -0.606999993       9838.15039       1.62497246    