 VARIABLES="X" "Y" "Z" "abs(p) (Pa)" "angle(p) (rad)"
ZONE N=   2720,E =    2069, F=FEPOINT, ET=QUADRILATERAL
 -0.767116010      -1.12776399       0.00000000       4138.23730       1.76418626    
 -0.769354999      -1.12002099     -0.303523988       4138.23730       1.76418626    
 -0.896136999      -1.02028203     -0.303463012       4138.23730       1.76418626    
 -0.894908011      -1.02288902       0.00000000       4138.23730       1.76418626    
 -0.767116010      -1.12776399       0.00000000       4140.53027       1.76287818    
 -0.630888999      -1.20308697       0.00000000       4140.53027       1.76287818    
 -0.635528028      -1.19958198     -0.303541005       4140.53027       1.76287818    
 -0.769354999      -1.12002099     -0.303523988       4140.53027       1.76287818    
 -0.635528028      -1.19958198     -0.303541005       1914.64551       1.77081287    
 -0.495362997      -1.26606500     -0.303519011       1914.64551       1.77081287    
 -0.499298006      -1.26809204     -0.606999993       1914.64551       1.77081287    
 -0.640147984      -1.19813800     -0.606998026       1914.64551       1.77081287    
 -0.635528028      -1.19958198     -0.303541005       1913.21802       1.77187741    
 -0.640147984      -1.19813800     -0.606998026       1913.21802       1.77187741    
 -0.777105987      -1.11956596     -0.606999993       1913.21802       1.77187741    
 -0.769354999      -1.12002099     -0.303523988       1913.21802       1.77187741    
 -0.635528028      -1.19958198     -0.303541005       4189.99316       1.75867867    
 -0.630888999      -1.20308697       0.00000000       4189.99316       1.75867867    
 -0.494486004      -1.26955199       0.00000000       4189.99316       1.75867867    
 -0.495362997      -1.26606500     -0.303519011       4189.99316       1.75867867    
 -0.494486004      -1.26955199       0.00000000       4192.94531       1.75787199    
 -0.346311986      -1.31449997       0.00000000       4192.94531       1.75787199    
 -0.346753001      -1.31307304     -0.303510010       4192.94531       1.75787199    
 -0.495362997      -1.26606500     -0.303519011       4192.94531       1.75787199    
 -0.346753001      -1.31307304     -0.303510010       1911.37598       1.76908004    
 -0.193608001      -1.34425998     -0.303494990       1911.37598       1.76908004    
 -0.195028007      -1.34579206     -0.606999993       1911.37598       1.76908004    
 -0.348751009      -1.31376004     -0.606999993       1911.37598       1.76908004    
 -0.346753001      -1.31307304     -0.303510010       1914.83545       1.76990080    
 -0.348751009      -1.31376004     -0.606999993       1914.83545       1.76990080    
 -0.499298006      -1.26809204     -0.606999993       1914.83545       1.76990080    
 -0.495362997      -1.26606500     -0.303519011       1914.83545       1.76990080    
 -0.346753001      -1.31307304     -0.303510010       4199.05029       1.75726819    
 -0.346311986      -1.31449997       0.00000000       4199.05029       1.75726819    
 -0.193381995      -1.34595394       0.00000000       4199.05029       1.75726819    
 -0.193608001      -1.34425998     -0.303494990       4199.05029       1.75726819    
 -0.193381995      -1.34595394       0.00000000       4138.37695       1.75971937    
  -3.75179984E-02  -1.36130500       0.00000000       4138.37695       1.75971937    
  -3.73950005E-02  -1.35827899     -0.303512007       4138.37695       1.75971937    
 -0.193608001      -1.34425998     -0.303494990       4138.37695       1.75971937    
  -3.73950005E-02  -1.35827899     -0.303512007       1883.98657       1.76831865    
  0.119547002      -1.35239303     -0.303498000       1883.98657       1.76831865    
  0.119135000      -1.35326600     -0.606999993       1883.98657       1.76831865    
  -3.82840000E-02  -1.36122894     -0.606998980       1883.98657       1.76831865    
  -3.73950005E-02  -1.35827899     -0.303512007       1891.48694       1.76969099    
  -3.82840000E-02  -1.36122894     -0.606998980       1891.48694       1.76969099    
 -0.195028007      -1.34579206     -0.606999993       1891.48694       1.76969099    
 -0.193608001      -1.34425998     -0.303494990       1891.48694       1.76969099    
  -3.73950005E-02  -1.35827899     -0.303512007       4075.63989       1.75920284    
  -3.75179984E-02  -1.36130500       0.00000000       4075.63989       1.75920284    
  0.119788997      -1.35320199       0.00000000       4075.63989       1.75920284    
  0.119547002      -1.35239303     -0.303498000       4075.63989       1.75920284    
  0.119788997      -1.35320199       0.00000000       4004.76343       1.75919557    
  0.276576012      -1.33565402       0.00000000       4004.76343       1.75919557    
  0.275435001      -1.33191597     -0.303496003       4004.76343       1.75919557    
  0.119547002      -1.35239303     -0.303498000       4004.76343       1.75919557    
  0.275435001      -1.33191597     -0.303496003       1745.12671       1.77881742    
  0.427076995      -1.28898001     -0.303507000       1745.12671       1.77881742    
  0.427242011      -1.28995001     -0.606999993       1745.12671       1.77881742    
  0.275831014      -1.33588004     -0.606999993       1745.12671       1.77881742    
  0.275435001      -1.33191597     -0.303496003       1765.92456       1.77892649    
  0.275831014      -1.33588004     -0.606999993       1765.92456       1.77892649    
  0.119135000      -1.35326600     -0.606999993       1765.92456       1.77892649    
  0.119547002      -1.35239303     -0.303498000       1765.92456       1.77892649    
  0.275435001      -1.33191597     -0.303496003       3928.10742       1.75882471    
  0.276576012      -1.33565402       0.00000000       3928.10742       1.75882471    
  0.427509993      -1.28986895       0.00000000       3928.10742       1.75882471    
  0.427076995      -1.28898001     -0.303507000       3928.10742       1.75882471    
  0.427509993      -1.28986895       0.00000000       3842.62500       1.75816453    
  0.574636996      -1.23315501       0.00000000       3842.62500       1.75816453    
  0.573706985      -1.23136795     -0.303485990       3842.62500       1.75816453    
  0.427076995      -1.28898001     -0.303507000       3842.62500       1.75816453    
  0.573706985      -1.23136795     -0.303485990       1719.06885       1.77860808    
  0.712854981      -1.15688002     -0.303496987       1719.06885       1.77860808    
  0.713809013      -1.15876603     -0.606999993       1719.06885       1.77860808    
  0.574283004      -1.23334301     -0.606999993       1719.06885       1.77860808    
  0.573706985      -1.23136795     -0.303485990       1726.11377       1.77894211    
  0.574283004      -1.23334301     -0.606999993       1726.11377       1.77894211    
  0.427242011      -1.28995001     -0.606999993       1726.11377       1.77894211    
  0.427076995      -1.28898001     -0.303507000       1726.11377       1.77894211    
  0.573706985      -1.23136795     -0.303485990       3806.70312       1.75773764    
  0.574636996      -1.23315501       0.00000000       3806.70312       1.75773764    
  0.713741004      -1.15880203       0.00000000       3806.70312       1.75773764    
  0.712854981      -1.15688002     -0.303496987       3806.70312       1.75773764    
  0.713741004      -1.15880203       0.00000000       3786.79150       1.75799644    
  0.841937006      -1.06636095       0.00000000       3786.79150       1.75799644    
  0.841498017      -1.06573403     -0.303485990       3786.79150       1.75799644    
  0.712854981      -1.15688002     -0.303496987       3786.79150       1.75799644    
  0.841498017      -1.06573403     -0.303485990       1726.21265       1.77796280    
  0.960639000     -0.962104976     -0.303470999       1726.21265       1.77796280    
  0.964356005     -0.965893984     -0.606999993       1726.21265       1.77796280    
  0.841796994      -1.06647599     -0.606999993       1726.21265       1.77796280    
  0.841498017      -1.06573403     -0.303485990       1724.93982       1.77753484    
  0.841796994      -1.06647599     -0.606999993       1724.93982       1.77753484    
  0.713809013      -1.15876603     -0.606999993       1724.93982       1.77753484    
  0.712854981      -1.15688002     -0.303496987       1724.93982       1.77753484    
  0.841498017      -1.06573403     -0.303485990       3826.39868       1.75965476    
  0.841937006      -1.06636095       0.00000000       3826.39868       1.75965476    
  0.963932991     -0.966242015       0.00000000       3826.39868       1.75965476    
  0.960639000     -0.962104976     -0.303470999       3826.39868       1.75965476    
  0.963932991     -0.966242015       0.00000000       3845.57568       1.76058185    
   1.06506598     -0.843514979       0.00000000       3845.57568       1.76058185    
   1.06428695     -0.842682004     -0.303481996       3845.57568       1.76058185    
  0.960639000     -0.962104976     -0.303470999       3845.57568       1.76058185    
   1.06428695     -0.842682004     -0.303481996       1625.33215       1.79292381    
   1.15591598     -0.714210987     -0.303485006       1625.33215       1.79292381    
   1.15788805     -0.715448976     -0.606999993       1625.33215       1.79292381    
   1.06537795     -0.843134999     -0.606999993       1625.33215       1.79292381    
   1.06428695     -0.842682004     -0.303481996       1726.20325       1.77874207    
   1.06537795     -0.843134999     -0.606999993       1726.20325       1.77874207    
  0.964356005     -0.965893984     -0.606999993       1726.20325       1.77874207    
  0.960639000     -0.962104976     -0.303470999       1726.20325       1.77874207    
   1.06428695     -0.842682004     -0.303481996       3795.79199       1.76181817    
   1.06506598     -0.843514979       0.00000000       3795.79199       1.76181817    
   1.15792501     -0.715381980       0.00000000       3795.79199       1.76181817    
   1.15591598     -0.714210987     -0.303485006       3795.79199       1.76181817    
   1.15792501     -0.715381980       0.00000000       3814.71484       1.76328421    
   1.23237598     -0.576093972       0.00000000       3814.71484       1.76328421    
   1.23120904     -0.575251997     -0.303514004       3814.71484       1.76328421    
   1.15591598     -0.714210987     -0.303485006       3814.71484       1.76328421    
   1.23120904     -0.575251997     -0.303514004       1629.37427       1.79555535    
   1.28844094     -0.428344995     -0.303512990       1629.37427       1.79555535    
   1.28952503     -0.428642988     -0.606999993       1629.37427       1.79555535    
   1.23252702     -0.575810015     -0.606999993       1629.37427       1.79555535    
   1.23120904     -0.575251997     -0.303514004       1629.88171       1.79396462    
   1.23252702     -0.575810015     -0.606999993       1629.88171       1.79396462    
   1.15788805     -0.715448976     -0.606999993       1629.88171       1.79396462    
   1.15591598     -0.714210987     -0.303485006       1629.88171       1.79396462    
   1.23120904     -0.575251997     -0.303514004       3714.06763       1.77078700    
   1.23237598     -0.576093972       0.00000000       3714.06763       1.77078700    
   1.28947699     -0.428801000       0.00000000       3714.06763       1.77078700    
   1.28844094     -0.428344995     -0.303512990       3714.06763       1.77078700    
   1.28947699     -0.428801000       0.00000000       3776.94556       1.77111554    
   1.33532202     -0.277671993       0.00000000       3776.94556       1.77111554    
   1.33076501     -0.276203990     -0.303492010       3776.94556       1.77111554    
   1.28844094     -0.428344995     -0.303512990       3776.94556       1.77111554    
   1.33076501     -0.276203990     -0.303492010       1474.46948       1.82270646    
   1.35229194     -0.119709998     -0.303514004       1474.46948       1.82270646    
   1.35321999     -0.119608998     -0.606999993       1474.46948       1.82270646    
   1.33549094     -0.277112991     -0.606999993       1474.46948       1.82270646    
   1.33076501     -0.276203990     -0.303492010       1617.33423       1.79867804    
   1.33549094     -0.277112991     -0.606999993       1617.33423       1.79867804    
   1.28952503     -0.428642988     -0.606999993       1617.33423       1.79867804    
   1.28844094     -0.428344995     -0.303512990       1617.33423       1.79867804    
   1.33076501     -0.276203990     -0.303492010       3863.53809       1.76794100    
   1.33532202     -0.277671993       0.00000000       3863.53809       1.76794100    
   1.35319102     -0.119900003       0.00000000       3863.53809       1.76794100    
   1.35229194     -0.119709998     -0.303514004       3863.53809       1.76794100    
   1.35319102     -0.119900003       0.00000000       3823.22754       1.77071023    
   1.36124396       3.81390005E-02   0.00000000       3823.22754       1.77071023    
   1.35858905       3.79349999E-02 -0.303501010       3823.22754       1.77071023    
   1.35229194     -0.119709998     -0.303514004       3823.22754       1.77071023    
   1.35858905       3.79349999E-02 -0.303501010       1561.46948       1.81149960    
   1.34464097      0.195331007     -0.303496003       1561.46948       1.81149960    
   1.34573400      0.195616007     -0.606999993       1561.46948       1.81149960    
   1.36126804       3.78950015E-02 -0.606999993       1561.46948       1.81149960    
   1.35858905       3.79349999E-02 -0.303501010       1574.09326       1.80820215    
   1.36126804       3.78950015E-02 -0.606999993       1574.09326       1.80820215    
   1.35321999     -0.119608998     -0.606999993       1574.09326       1.80820215    
   1.35229194     -0.119709998     -0.303514004       1574.09326       1.80820215    
   1.35858905       3.79349999E-02 -0.303501010       3663.49365       1.78138459    
   1.36124396       3.81390005E-02   0.00000000       3663.49365       1.78138459    
   1.34575403      0.195406005       0.00000000       3663.49365       1.78138459    
   1.34464097      0.195331007     -0.303496003       3663.49365       1.78138459    
   1.34575403      0.195406005       0.00000000       3625.19238       1.78440225    
   1.31339800      0.349945009       0.00000000       3625.19238       1.78440225    
   1.31216300      0.349725991     -0.303487003       3625.19238       1.78440225    
   1.34464097      0.195331007     -0.303496003       3625.19238       1.78440225    
   1.31216300      0.349725991     -0.303487003       1554.92041       1.81327832    
   1.26341999      0.500032008     -0.303494006       1554.92041       1.81327832    
   1.26736605      0.501691997     -0.606999993       1554.92041       1.81327832    
   1.31333196      0.350163996     -0.606999993       1554.92041       1.81327832    
   1.31216300      0.349725991     -0.303487003       1546.84741       1.81456840    
   1.31333196      0.350163996     -0.606999993       1546.84741       1.81456840    
   1.34573400      0.195616007     -0.606999993       1546.84741       1.81456840    
   1.34464097      0.195331007     -0.303496003       1546.84741       1.81456840    
   1.31216300      0.349725991     -0.303487003       3601.05884       1.78737891    
   1.31339800      0.349945009       0.00000000       3601.05884       1.78737891    
   1.26751196      0.501209974       0.00000000       3601.05884       1.78737891    
   1.26341999      0.500032008     -0.303494006       3601.05884       1.78737891    
   1.26751196      0.501209974       0.00000000       3690.52319       1.78218687    
   1.19658697      0.643051028       0.00000000       3690.52319       1.78218687    
   1.19583094      0.642783999     -0.303505003       3690.52319       1.78218687    
   1.26341999      0.500032008     -0.303494006       3690.52319       1.78218687    
   1.19583094      0.642783999     -0.303505003       1567.62695       1.80909121    
   1.11495602      0.778467000     -0.303483993       1567.62695       1.80909121    
   1.11731696      0.779847026     -0.606999993       1567.62695       1.80909121    
   1.19653296      0.643149972     -0.606999993       1567.62695       1.80909121    
   1.19583094      0.642783999     -0.303505003       1530.13464       1.81647086    
   1.19653296      0.643149972     -0.606999993       1530.13464       1.81647086    
   1.26736605      0.501691997     -0.606999993       1530.13464       1.81647086    
   1.26341999      0.500032008     -0.303494006       1530.13464       1.81647086    
   1.19583094      0.642783999     -0.303505003       3586.41748       1.78564656    
   1.19658697      0.643051028       0.00000000       3586.41748       1.78564656    
   1.11705506      0.780165970       0.00000000       3586.41748       1.78564656    
   1.11495602      0.778467000     -0.303483993       3586.41748       1.78564656    
   1.11705506      0.780165970       0.00000000       3467.65942       1.78912008    
   1.01674199      0.902397990       0.00000000       3467.65942       1.78912008    
   1.01591504      0.901737988     -0.303478003       3467.65942       1.78912008    
   1.11495602      0.778467000     -0.303483993       3467.65942       1.78912008    
   1.01591504      0.901737988     -0.303478003       1618.69714       1.79718888    
  0.904204011       1.01322901     -0.303456992       1618.69714       1.79718888    
  0.905143023       1.01448905     -0.606999993       1618.69714       1.79718888    
   1.01659799      0.902572989     -0.606999993       1618.69714       1.79718888    
   1.01591504      0.901737988     -0.303478003       1654.23279       1.79439676    
   1.01659799      0.902572989     -0.606999993       1654.23279       1.79439676    
   1.11731696      0.779847026     -0.606999993       1654.23279       1.79439676    
   1.11495602      0.778467000     -0.303483993       1654.23279       1.79439676    
   1.01591504      0.901737988     -0.303478003       3336.31396       1.79285645    
   1.01674199      0.902397990       0.00000000       3336.31396       1.79285645    
  0.905318975       1.01434398       0.00000000       3336.31396       1.79285645    
  0.904204011       1.01322901     -0.303456992       3336.31396       1.79285645    
  0.905318975       1.01434398       0.00000000       3365.29370       1.79163885    
  0.782918990       1.11479497       0.00000000       3365.29370       1.79163885    
  0.780644000       1.11195600     -0.303485006       3365.29370       1.79163885    
  0.904204011       1.01322901     -0.303456992       3365.29370       1.79163885    
  0.780644000       1.11195600     -0.303485006       1570.55273       1.80249369    
  0.645825028       1.19414902     -0.303514004       1570.55273       1.80249369    
  0.646153986       1.19492805     -0.606999993       1570.55273       1.80249369    
  0.782611012       1.11504900     -0.606999993       1570.55273       1.80249369    
  0.780644000       1.11195600     -0.303485006       1590.95813       1.79990685    
  0.782611012       1.11504900     -0.606999993       1590.95813       1.79990685    
  0.905143023       1.01448905     -0.606999993       1590.95813       1.79990685    
  0.904204011       1.01322901     -0.303456992       1590.95813       1.79990685    
  0.780644000       1.11195600     -0.303485006       3289.44360       1.79600513    
  0.782918990       1.11479497       0.00000000       3289.44360       1.79600513    
  0.646345019       1.19482601       0.00000000       3289.44360       1.79600513    
  0.645825028       1.19414902     -0.303514004       3289.44360       1.79600513    
  0.646345019       1.19482601       0.00000000       3196.54907       1.80395329    
  0.504974008       1.26637006       0.00000000       3196.54907       1.80395329    
  0.503772974       1.26314998     -0.303521991       3196.54907       1.80395329    
  0.645825028       1.19414902     -0.303514004       3196.54907       1.80395329    
  0.503772974       1.26314998     -0.303521991       1564.33484       1.80490637    
  0.353130996       1.31116498     -0.303510994       1564.33484       1.80490637    
  0.353300005       1.31237996     -0.606999993       1564.33484       1.80490637    
  0.505183995       1.26630700     -0.606999993       1564.33484       1.80490637    
  0.503772974       1.26314998     -0.303521991       1562.01978       1.80429769    
  0.505183995       1.26630700     -0.606999993       1562.01978       1.80429769    
  0.646153986       1.19492805     -0.606999993       1562.01978       1.80429769    
  0.645825028       1.19414902     -0.303514004       1562.01978       1.80429769    
  0.503772974       1.26314998     -0.303521991       3168.14160       1.80678988    
  0.504974008       1.26637006       0.00000000       3168.14160       1.80678988    
  0.353493989       1.31232095       0.00000000       3168.14160       1.80678988    
  0.353130996       1.31116498     -0.303510994       3168.14160       1.80678988    
  0.353493989       1.31232095       0.00000000       3144.90894       1.80935884    
  0.199064001       1.34539402       0.00000000       3144.90894       1.80935884    
  0.198755994       1.34360003     -0.303496003       3144.90894       1.80935884    
  0.353130996       1.31116498     -0.303510994       3144.90894       1.80935884    
  0.198755994       1.34360003     -0.303496003       1497.17273       1.81918561    
   4.12769988E-02   1.35817802     -0.303508013       1497.17273       1.81918561    
   4.12410013E-02   1.36093795     -0.606999993       1497.17273       1.81918561    
  0.199025005       1.34539795     -0.606999993       1497.17273       1.81918561    
  0.198755994       1.34360003     -0.303496003       1562.63818       1.80669868    
  0.199025005       1.34539795     -0.606999993       1562.63818       1.80669868    
  0.353300005       1.31237996     -0.606999993       1562.63818       1.80669868    
  0.353130996       1.31116498     -0.303510994       1562.63818       1.80669868    
  0.198755994       1.34360003     -0.303496003       3167.05859       1.81142759    
  0.199064001       1.34539402       0.00000000       3167.05859       1.81142759    
   4.17769998E-02   1.36088502       0.00000000       3167.05859       1.81142759    
   4.12769988E-02   1.35817802     -0.303508013       3167.05859       1.81142759    
   4.17769998E-02   1.36088502       0.00000000       3215.42822       1.81188917    
 -0.116410002       1.35353506       0.00000000       3215.42822       1.81188917    
 -0.116471998       1.35271096     -0.303496987       3215.42822       1.81188917    
   4.12769988E-02   1.35817802     -0.303508013       3215.42822       1.81188917    
 -0.116471998       1.35271096     -0.303496987       1543.02844       1.81541884    
 -0.273027003       1.33229196     -0.303496003       1543.02844       1.81541884    
 -0.273876995       1.33647299     -0.606999993       1543.02844       1.81541884    
 -0.116722003       1.35350394     -0.606999993       1543.02844       1.81541884    
 -0.116471998       1.35271096     -0.303496987       1502.16260       1.82043731    
 -0.116722003       1.35350394     -0.606999993       1502.16260       1.82043731    
   4.12410013E-02   1.36093795     -0.606999993       1502.16260       1.82043731    
   4.12769988E-02   1.35817802     -0.303508013       1502.16260       1.82043731    
 -0.116471998       1.35271096     -0.303496987       3273.82593       1.81277037    
 -0.116410002       1.35353506       0.00000000       3273.82593       1.81277037    
 -0.274069011       1.33641505       0.00000000       3273.82593       1.81277037    
 -0.273027003       1.33229196     -0.303496003       3273.82593       1.81277037    
 -0.274069011       1.33641505       0.00000000       3273.90063       1.81302273    
 -0.425588995       1.29045200       0.00000000       3273.90063       1.81302273    
 -0.425258011       1.28953803     -0.303507000       3273.90063       1.81302273    
 -0.273027003       1.33229196     -0.303496003       3273.90063       1.81302273    
 -0.425258011       1.28953803     -0.303507000       1547.52112       1.81479204    
 -0.572302997       1.23206902     -0.303485990       1547.52112       1.81479204    
 -0.573064029       1.23399496     -0.606999993       1547.52112       1.81479204    
 -0.425651014       1.29043305     -0.606999993       1547.52112       1.81479204    
 -0.425258011       1.28953803     -0.303507000       1546.57983       1.81545281    
 -0.425651014       1.29043305     -0.606999993       1546.57983       1.81545281    
 -0.273876995       1.33647299     -0.606999993       1546.57983       1.81545281    
 -0.273027003       1.33229196     -0.303496003       1546.57983       1.81545281    
 -0.425258011       1.28953803     -0.303507000       3214.14966       1.81283998    
 -0.425588995       1.29045200       0.00000000       3214.14966       1.81283998    
 -0.573195994       1.23392498       0.00000000       3214.14966       1.81283998    
 -0.572302997       1.23206902     -0.303485990       3214.14966       1.81283998    
 -0.573195994       1.23392498       0.00000000       3183.59888       1.81224263    
 -0.712655008       1.15938199       0.00000000       3183.59888       1.81224263    
 -0.711889029       1.15749002     -0.303496003       3183.59888       1.81224263    
 -0.572302997       1.23206902     -0.303485990       3183.59888       1.81224263    
 -0.711889029       1.15749002     -0.303496003       1547.86279       1.81346536    
 -0.840825975       1.06629205     -0.303485990       1547.86279       1.81346536    
 -0.841368973       1.06682706     -0.606999993       1547.86279       1.81346536    
 -0.712980986       1.15920806     -0.606999993       1547.86279       1.81346536    
 -0.711889029       1.15749002     -0.303496003       1538.84680       1.81550241    
 -0.712980986       1.15920806     -0.606999993       1538.84680       1.81550241    
 -0.573064029       1.23399496     -0.606999993       1538.84680       1.81550241    
 -0.572302997       1.23206902     -0.303485990       1538.84680       1.81550241    
 -0.711889029       1.15749002     -0.303496003       3165.16724       1.80962586    
 -0.712655008       1.15938199       0.00000000       3165.16724       1.80962586    
 -0.841165006       1.06699395       0.00000000       3165.16724       1.80962586    
 -0.840825975       1.06629205     -0.303485990       3165.16724       1.80962586    
 -0.841165006       1.06699395       0.00000000       3219.91162       1.80669260    
 -0.963320017      0.966744006       0.00000000       3219.91162       1.80669260    
 -0.960084975      0.962615013     -0.303470999       3219.91162       1.80669260    
 -0.840825975       1.06629205     -0.303485990       3219.91162       1.80669260    
 -0.960084975      0.962615013     -0.303470999       1586.95142       1.80959570    
  -1.06383705      0.843237996     -0.303481996       1586.95142       1.80959570    
  -1.06481802      0.843816996     -0.606999993       1586.95142       1.80959570    
 -0.963873982      0.966289997     -0.606999993       1586.95142       1.80959570    
 -0.960084975      0.962615013     -0.303470999       1563.76440       1.81134939    
 -0.963873982      0.966289997     -0.606999993       1563.76440       1.81134939    
 -0.841368973       1.06682706     -0.606999993       1563.76440       1.81134939    
 -0.840825975       1.06629205     -0.303485990       1563.76440       1.81134939    
 -0.960084975      0.962615013     -0.303470999       3323.30444       1.80237663    
 -0.963320017      0.966744006       0.00000000       3323.30444       1.80237663    
  -1.06464398      0.844029009       0.00000000       3323.30444       1.80237663    
  -1.06383705      0.843237996     -0.303481996       3323.30444       1.80237663    
  -1.06464398      0.844029009       0.00000000       3432.88062       1.79838097    
  -1.15769398      0.715813994       0.00000000       3432.88062       1.79838097    
  -1.15564799      0.714680016     -0.303483993       3432.88062       1.79838097    
  -1.06383705      0.843237996     -0.303481996       3432.88062       1.79838097    
  -1.15564799      0.714680016     -0.303483993       1703.60510       1.79951739    
  -1.23108304      0.575536013     -0.303514004       1703.60510       1.79951739    
  -1.23232996      0.576179981     -0.606999993       1703.60510       1.79951739    
  -1.15756094      0.716063023     -0.606999993       1703.60510       1.79951739    
  -1.15564799      0.714680016     -0.303483993       1633.57080       1.80590093    
  -1.15756094      0.716063023     -0.606999993       1633.57080       1.80590093    
  -1.06481802      0.843816996     -0.606999993       1633.57080       1.80590093    
  -1.06383705      0.843237996     -0.303481996       1633.57080       1.80590093    
  -1.15564799      0.714680016     -0.303483993       3601.29541       1.79444647    
  -1.15769398      0.715813994       0.00000000       3601.29541       1.79444647    
  -1.23224795      0.576331973       0.00000000       3601.29541       1.79444647    
  -1.23108304      0.575536013     -0.303514004       3601.29541       1.79444647    
  -1.23224795      0.576331973       0.00000000       3708.27930       1.79073572    
  -1.28948605      0.428772002       0.00000000       3708.27930       1.79073572    
  -1.28842103      0.428404987     -0.303512990       3708.27930       1.79073572    
  -1.23108304      0.575536013     -0.303514004       3708.27930       1.79073572    
  -1.28842103      0.428404987     -0.303512990       1661.95190       1.81013489    
  -1.33082402      0.275959998     -0.303492010       1661.95190       1.81013489    
  -1.33550000      0.277083993     -0.606999993       1661.95190       1.81013489    