 VARIABLES="X" "Y" "Z" "abs(p) (Pa)" "angle(p) (rad)"
ZONE N=   2720,E =    2069, F=FEPOINT, ET=QUADRILATERAL
 -0.767116010      -1.12776399       0.00000000       5640.47412       1.94062722    
 -0.769354999      -1.12002099     -0.303523988       5640.47412       1.94062722    
 -0.896136999      -1.02028203     -0.303463012       5640.47412       1.94062722    
 -0.894908011      -1.02288902       0.00000000       5640.47412       1.94062722    
 -0.767116010      -1.12776399       0.00000000       5638.47900       1.94063580    
 -0.630888999      -1.20308697       0.00000000       5638.47900       1.94063580    
 -0.635528028      -1.19958198     -0.303541005       5638.47900       1.94063580    
 -0.769354999      -1.12002099     -0.303523988       5638.47900       1.94063580    
 -0.635528028      -1.19958198     -0.303541005       5506.18311       1.93635058    
 -0.495362997      -1.26606500     -0.303519011       5506.18311       1.93635058    
 -0.499298006      -1.26809204     -0.606999993       5506.18311       1.93635058    
 -0.640147984      -1.19813800     -0.606998026       5506.18311       1.93635058    
 -0.635528028      -1.19958198     -0.303541005       5507.22314       1.93633997    
 -0.640147984      -1.19813800     -0.606998026       5507.22314       1.93633997    
 -0.777105987      -1.11956596     -0.606999993       5507.22314       1.93633997    
 -0.769354999      -1.12002099     -0.303523988       5507.22314       1.93633997    
 -0.635528028      -1.19958198     -0.303541005       5634.49609       1.94055140    
 -0.630888999      -1.20308697       0.00000000       5634.49609       1.94055140    
 -0.494486004      -1.26955199       0.00000000       5634.49609       1.94055140    
 -0.495362997      -1.26606500     -0.303519011       5634.49609       1.94055140    
 -0.494486004      -1.26955199       0.00000000       5635.52881       1.94052947    
 -0.346311986      -1.31449997       0.00000000       5635.52881       1.94052947    
 -0.346753001      -1.31307304     -0.303510010       5635.52881       1.94052947    
 -0.495362997      -1.26606500     -0.303519011       5635.52881       1.94052947    
 -0.346753001      -1.31307304     -0.303510010       5504.25488       1.93641376    
 -0.193608001      -1.34425998     -0.303494990       5504.25488       1.93641376    
 -0.195028007      -1.34579206     -0.606999993       5504.25488       1.93641376    
 -0.348751009      -1.31376004     -0.606999993       5504.25488       1.93641376    
 -0.346753001      -1.31307304     -0.303510010       5505.76221       1.93634558    
 -0.348751009      -1.31376004     -0.606999993       5505.76221       1.93634558    
 -0.499298006      -1.26809204     -0.606999993       5505.76221       1.93634558    
 -0.495362997      -1.26606500     -0.303519011       5505.76221       1.93634558    
 -0.346753001      -1.31307304     -0.303510010       5637.14990       1.94053090    
 -0.346311986      -1.31449997       0.00000000       5637.14990       1.94053090    
 -0.193381995      -1.34595394       0.00000000       5637.14990       1.94053090    
 -0.193608001      -1.34425998     -0.303494990       5637.14990       1.94053090    
 -0.193381995      -1.34595394       0.00000000       5638.20117       1.94058609    
  -3.75179984E-02  -1.36130500       0.00000000       5638.20117       1.94058609    
  -3.73950005E-02  -1.35827899     -0.303512007       5638.20117       1.94058609    
 -0.193608001      -1.34425998     -0.303494990       5638.20117       1.94058609    
  -3.73950005E-02  -1.35827899     -0.303512007       5504.03857       1.93629813    
  0.119547002      -1.35239303     -0.303498000       5504.03857       1.93629813    
  0.119135000      -1.35326600     -0.606999993       5504.03857       1.93629813    
  -3.82840000E-02  -1.36122894     -0.606998980       5504.03857       1.93629813    
  -3.73950005E-02  -1.35827899     -0.303512007       5504.63086       1.93630075    
  -3.82840000E-02  -1.36122894     -0.606998980       5504.63086       1.93630075    
 -0.195028007      -1.34579206     -0.606999993       5504.63086       1.93630075    
 -0.193608001      -1.34425998     -0.303494990       5504.63086       1.93630075    
  -3.73950005E-02  -1.35827899     -0.303512007       5632.95996       1.94057369    
  -3.75179984E-02  -1.36130500       0.00000000       5632.95996       1.94057369    
  0.119788997      -1.35320199       0.00000000       5632.95996       1.94057369    
  0.119547002      -1.35239303     -0.303498000       5632.95996       1.94057369    
  0.119788997      -1.35320199       0.00000000       5629.71436       1.94050002    
  0.276576012      -1.33565402       0.00000000       5629.71436       1.94050002    
  0.275435001      -1.33191597     -0.303496003       5629.71436       1.94050002    
  0.119547002      -1.35239303     -0.303498000       5629.71436       1.94050002    
  0.275435001      -1.33191597     -0.303496003       5504.22314       1.93618238    
  0.427076995      -1.28898001     -0.303507000       5504.22314       1.93618238    
  0.427242011      -1.28995001     -0.606999993       5504.22314       1.93618238    
  0.275831014      -1.33588004     -0.606999993       5504.22314       1.93618238    
  0.275435001      -1.33191597     -0.303496003       5504.84668       1.93621826    
  0.275831014      -1.33588004     -0.606999993       5504.84668       1.93621826    
  0.119135000      -1.35326600     -0.606999993       5504.84668       1.93621826    
  0.119547002      -1.35239303     -0.303498000       5504.84668       1.93621826    
  0.275435001      -1.33191597     -0.303496003       5626.51172       1.94045889    
  0.276576012      -1.33565402       0.00000000       5626.51172       1.94045889    
  0.427509993      -1.28986895       0.00000000       5626.51172       1.94045889    
  0.427076995      -1.28898001     -0.303507000       5626.51172       1.94045889    
  0.427509993      -1.28986895       0.00000000       5621.27002       1.94047093    
  0.574636996      -1.23315501       0.00000000       5621.27002       1.94047093    
  0.573706985      -1.23136795     -0.303485990       5621.27002       1.94047093    
  0.427076995      -1.28898001     -0.303507000       5621.27002       1.94047093    
  0.573706985      -1.23136795     -0.303485990       5505.00537       1.93612874    
  0.712854981      -1.15688002     -0.303496987       5505.00537       1.93612874    
  0.713809013      -1.15876603     -0.606999993       5505.00537       1.93612874    
  0.574283004      -1.23334301     -0.606999993       5505.00537       1.93612874    
  0.573706985      -1.23136795     -0.303485990       5502.77539       1.93623745    
  0.574283004      -1.23334301     -0.606999993       5502.77539       1.93623745    
  0.427242011      -1.28995001     -0.606999993       5502.77539       1.93623745    
  0.427076995      -1.28898001     -0.303507000       5502.77539       1.93623745    
  0.573706985      -1.23136795     -0.303485990       5620.39600       1.94044375    
  0.574636996      -1.23315501       0.00000000       5620.39600       1.94044375    
  0.713741004      -1.15880203       0.00000000       5620.39600       1.94044375    
  0.712854981      -1.15688002     -0.303496987       5620.39600       1.94044375    
  0.713741004      -1.15880203       0.00000000       5620.96338       1.94042027    
  0.841937006      -1.06636095       0.00000000       5620.96338       1.94042027    
  0.841498017      -1.06573403     -0.303485990       5620.96338       1.94042027    
  0.712854981      -1.15688002     -0.303496987       5620.96338       1.94042027    
  0.841498017      -1.06573403     -0.303485990       5510.14746       1.93597281    
  0.960639000     -0.962104976     -0.303470999       5510.14746       1.93597281    
  0.964356005     -0.965893984     -0.606999993       5510.14746       1.93597281    
  0.841796994      -1.06647599     -0.606999993       5510.14746       1.93597281    
  0.841498017      -1.06573403     -0.303485990       5505.99854       1.93615246    
  0.841796994      -1.06647599     -0.606999993       5505.99854       1.93615246    
  0.713809013      -1.15876603     -0.606999993       5505.99854       1.93615246    
  0.712854981      -1.15688002     -0.303496987       5505.99854       1.93615246    
  0.841498017      -1.06573403     -0.303485990       5625.83740       1.94034791    
  0.841937006      -1.06636095       0.00000000       5625.83740       1.94034791    
  0.963932991     -0.966242015       0.00000000       5625.83740       1.94034791    
  0.960639000     -0.962104976     -0.303470999       5625.83740       1.94034791    
  0.963932991     -0.966242015       0.00000000       5629.29883       1.94029009    
   1.06506598     -0.843514979       0.00000000       5629.29883       1.94029009    
   1.06428695     -0.842682004     -0.303481996       5629.29883       1.94029009    
  0.960639000     -0.962104976     -0.303470999       5629.29883       1.94029009    
   1.06428695     -0.842682004     -0.303481996       5504.99170       1.93640304    
   1.15591598     -0.714210987     -0.303485006       5504.99170       1.93640304    
   1.15788805     -0.715448976     -0.606999993       5504.99170       1.93640304    
   1.06537795     -0.843134999     -0.606999993       5504.99170       1.93640304    
   1.06428695     -0.842682004     -0.303481996       5512.60400       1.93590474    
   1.06537795     -0.843134999     -0.606999993       5512.60400       1.93590474    
  0.964356005     -0.965893984     -0.606999993       5512.60400       1.93590474    
  0.960639000     -0.962104976     -0.303470999       5512.60400       1.93590474    
   1.06428695     -0.842682004     -0.303481996       5625.32861       1.94019508    
   1.06506598     -0.843514979       0.00000000       5625.32861       1.94019508    
   1.15792501     -0.715381980       0.00000000       5625.32861       1.94019508    
   1.15591598     -0.714210987     -0.303485006       5625.32861       1.94019508    
   1.15792501     -0.715381980       0.00000000       5634.31006       1.94007850    
   1.23237598     -0.576093972       0.00000000       5634.31006       1.94007850    
   1.23120904     -0.575251997     -0.303514004       5634.31006       1.94007850    
   1.15591598     -0.714210987     -0.303485006       5634.31006       1.94007850    
   1.23120904     -0.575251997     -0.303514004       5511.13916       1.93628502    
   1.28844094     -0.428344995     -0.303512990       5511.13916       1.93628502    
   1.28952503     -0.428642988     -0.606999993       5511.13916       1.93628502    
   1.23252702     -0.575810015     -0.606999993       5511.13916       1.93628502    
   1.23120904     -0.575251997     -0.303514004       5508.72998       1.93630159    
   1.23252702     -0.575810015     -0.606999993       5508.72998       1.93630159    
   1.15788805     -0.715448976     -0.606999993       5508.72998       1.93630159    
   1.15591598     -0.714210987     -0.303485006       5508.72998       1.93630159    
   1.23120904     -0.575251997     -0.303514004       5634.99365       1.94046903    
   1.23237598     -0.576093972       0.00000000       5634.99365       1.94046903    
   1.28947699     -0.428801000       0.00000000       5634.99365       1.94046903    
   1.28844094     -0.428344995     -0.303512990       5634.99365       1.94046903    
   1.28947699     -0.428801000       0.00000000       5643.38965       1.94050527    
   1.33532202     -0.277671993       0.00000000       5643.38965       1.94050527    
   1.33076501     -0.276203990     -0.303492010       5643.38965       1.94050527    
   1.28844094     -0.428344995     -0.303512990       5643.38965       1.94050527    
   1.33076501     -0.276203990     -0.303492010       5509.99902       1.93636513    
   1.35229194     -0.119709998     -0.303514004       5509.99902       1.93636513    
   1.35321999     -0.119608998     -0.606999993       5509.99902       1.93636513    
   1.33549094     -0.277112991     -0.606999993       5509.99902       1.93636513    
   1.33076501     -0.276203990     -0.303492010       5514.45605       1.93613863    
   1.33549094     -0.277112991     -0.606999993       5514.45605       1.93613863    
   1.28952503     -0.428642988     -0.606999993       5514.45605       1.93613863    
   1.28844094     -0.428344995     -0.303512990       5514.45605       1.93613863    
   1.33076501     -0.276203990     -0.303492010       5653.50537       1.94002116    
   1.33532202     -0.277671993       0.00000000       5653.50537       1.94002116    
   1.35319102     -0.119900003       0.00000000       5653.50537       1.94002116    
   1.35229194     -0.119709998     -0.303514004       5653.50537       1.94002116    
   1.35319102     -0.119900003       0.00000000       5657.01758       1.93993962    
   1.36124396       3.81390005E-02   0.00000000       5657.01758       1.93993962    
   1.35858905       3.79349999E-02 -0.303501010       5657.01758       1.93993962    
   1.35229194     -0.119709998     -0.303514004       5657.01758       1.93993962    
   1.35858905       3.79349999E-02 -0.303501010       5521.60596       1.93588090    
   1.34464097      0.195331007     -0.303496003       5521.60596       1.93588090    
   1.34573400      0.195616007     -0.606999993       5521.60596       1.93588090    
   1.36126804       3.78950015E-02 -0.606999993       5521.60596       1.93588090    
   1.35858905       3.79349999E-02 -0.303501010       5520.22510       1.93592238    
   1.36126804       3.78950015E-02 -0.606999993       5520.22510       1.93592238    
   1.35321999     -0.119608998     -0.606999993       5520.22510       1.93592238    
   1.35229194     -0.119709998     -0.303514004       5520.22510       1.93592238    
   1.35858905       3.79349999E-02 -0.303501010       5653.02783       1.94014597    
   1.36124396       3.81390005E-02   0.00000000       5653.02783       1.94014597    
   1.34575403      0.195406005       0.00000000       5653.02783       1.94014597    
   1.34464097      0.195331007     -0.303496003       5653.02783       1.94014597    
   1.34575403      0.195406005       0.00000000       5656.49512       1.94008613    
   1.31339800      0.349945009       0.00000000       5656.49512       1.94008613    
   1.31216300      0.349725991     -0.303487003       5656.49512       1.94008613    
   1.34464097      0.195331007     -0.303496003       5656.49512       1.94008613    
   1.31216300      0.349725991     -0.303487003       5526.82031       1.93581164    
   1.26341999      0.500032008     -0.303494006       5526.82031       1.93581164    
   1.26736605      0.501691997     -0.606999993       5526.82031       1.93581164    
   1.31333196      0.350163996     -0.606999993       5526.82031       1.93581164    
   1.31216300      0.349725991     -0.303487003       5522.24902       1.93590474    
   1.31333196      0.350163996     -0.606999993       5522.24902       1.93590474    
   1.34573400      0.195616007     -0.606999993       5522.24902       1.93590474    
   1.34464097      0.195331007     -0.303496003       5522.24902       1.93590474    
   1.31216300      0.349725991     -0.303487003       5661.10156       1.94005823    
   1.31339800      0.349945009       0.00000000       5661.10156       1.94005823    
   1.26751196      0.501209974       0.00000000       5661.10156       1.94005823    
   1.26341999      0.500032008     -0.303494006       5661.10156       1.94005823    
   1.26751196      0.501209974       0.00000000       5668.02686       1.93977523    
   1.19658697      0.643051028       0.00000000       5668.02686       1.93977523    
   1.19583094      0.642783999     -0.303505003       5668.02686       1.93977523    
   1.26341999      0.500032008     -0.303494006       5668.02686       1.93977523    
   1.19583094      0.642783999     -0.303505003       5522.83789       1.93576980    
   1.11495602      0.778467000     -0.303483993       5522.83789       1.93576980    
   1.11731696      0.779847026     -0.606999993       5522.83789       1.93576980    
   1.19653296      0.643149972     -0.606999993       5522.83789       1.93576980    
   1.19583094      0.642783999     -0.303505003       5526.84082       1.93579960    
   1.19653296      0.643149972     -0.606999993       5526.84082       1.93579960    
   1.26736605      0.501691997     -0.606999993       5526.84082       1.93579960    
   1.26341999      0.500032008     -0.303494006       5526.84082       1.93579960    
   1.19583094      0.642783999     -0.303505003       5660.21143       1.93976128    
   1.19658697      0.643051028       0.00000000       5660.21143       1.93976128    
   1.11705506      0.780165970       0.00000000       5660.21143       1.93976128    
   1.11495602      0.778467000     -0.303483993       5660.21143       1.93976128    
   1.11705506      0.780165970       0.00000000       5653.49268       1.93975139    
   1.01674199      0.902397990       0.00000000       5653.49268       1.93975139    
   1.01591504      0.901737988     -0.303478003       5653.49268       1.93975139    
   1.11495602      0.778467000     -0.303483993       5653.49268       1.93975139    
   1.01591504      0.901737988     -0.303478003       5523.67627       1.93556201    
  0.904204011       1.01322901     -0.303456992       5523.67627       1.93556201    
  0.905143023       1.01448905     -0.606999993       5523.67627       1.93556201    
   1.01659799      0.902572989     -0.606999993       5523.67627       1.93556201    
   1.01591504      0.901737988     -0.303478003       5526.46924       1.93550634    
   1.01659799      0.902572989     -0.606999993       5526.46924       1.93550634    
   1.11731696      0.779847026     -0.606999993       5526.46924       1.93550634    
   1.11495602      0.778467000     -0.303483993       5526.46924       1.93550634    
   1.01591504      0.901737988     -0.303478003       5646.97754       1.93975937    
   1.01674199      0.902397990       0.00000000       5646.97754       1.93975937    
  0.905318975       1.01434398       0.00000000       5646.97754       1.93975937    
  0.904204011       1.01322901     -0.303456992       5646.97754       1.93975937    
  0.905318975       1.01434398       0.00000000       5643.49463       1.93973839    
  0.782918990       1.11479497       0.00000000       5643.49463       1.93973839    
  0.780644000       1.11195600     -0.303485006       5643.49463       1.93973839    
  0.904204011       1.01322901     -0.303456992       5643.49463       1.93973839    
  0.780644000       1.11195600     -0.303485006       5522.18115       1.93548107    
  0.645825028       1.19414902     -0.303514004       5522.18115       1.93548107    
  0.646153986       1.19492805     -0.606999993       5522.18115       1.93548107    
  0.782611012       1.11504900     -0.606999993       5522.18115       1.93548107    
  0.780644000       1.11195600     -0.303485006       5523.45703       1.93546760    
  0.782611012       1.11504900     -0.606999993       5523.45703       1.93546760    
  0.905143023       1.01448905     -0.606999993       5523.45703       1.93546760    
  0.904204011       1.01322901     -0.303456992       5523.45703       1.93546760    
  0.780644000       1.11195600     -0.303485006       5639.74512       1.93977451    
  0.782918990       1.11479497       0.00000000       5639.74512       1.93977451    
  0.646345019       1.19482601       0.00000000       5639.74512       1.93977451    
  0.645825028       1.19414902     -0.303514004       5639.74512       1.93977451    
  0.646345019       1.19482601       0.00000000       5645.35742       1.93979251    
  0.504974008       1.26637006       0.00000000       5645.35742       1.93979251    
  0.503772974       1.26314998     -0.303521991       5645.35742       1.93979251    
  0.645825028       1.19414902     -0.303514004       5645.35742       1.93979251    
  0.503772974       1.26314998     -0.303521991       5524.42578       1.93540311    
  0.353130996       1.31116498     -0.303510994       5524.42578       1.93540311    
  0.353300005       1.31237996     -0.606999993       5524.42578       1.93540311    
  0.505183995       1.26630700     -0.606999993       5524.42578       1.93540311    
  0.503772974       1.26314998     -0.303521991       5523.14795       1.93543935    
  0.505183995       1.26630700     -0.606999993       5523.14795       1.93543935    
  0.646153986       1.19492805     -0.606999993       5523.14795       1.93543935    
  0.645825028       1.19414902     -0.303514004       5523.14795       1.93543935    
  0.503772974       1.26314998     -0.303521991       5645.87207       1.93978250    
  0.504974008       1.26637006       0.00000000       5645.87207       1.93978250    
  0.353493989       1.31232095       0.00000000       5645.87207       1.93978250    
  0.353130996       1.31116498     -0.303510994       5645.87207       1.93978250    
  0.353493989       1.31232095       0.00000000       5646.05127       1.93979502    
  0.199064001       1.34539402       0.00000000       5646.05127       1.93979502    
  0.198755994       1.34360003     -0.303496003       5646.05127       1.93979502    
  0.353130996       1.31116498     -0.303510994       5646.05127       1.93979502    
  0.198755994       1.34360003     -0.303496003       5528.43408       1.93548930    
   4.12769988E-02   1.35817802     -0.303508013       5528.43408       1.93548930    
   4.12410013E-02   1.36093795     -0.606999993       5528.43408       1.93548930    
  0.199025005       1.34539795     -0.606999993       5528.43408       1.93548930    
  0.198755994       1.34360003     -0.303496003       5523.82715       1.93549001    
  0.199025005       1.34539795     -0.606999993       5523.82715       1.93549001    
  0.353300005       1.31237996     -0.606999993       5523.82715       1.93549001    
  0.353130996       1.31116498     -0.303510994       5523.82715       1.93549001    
  0.198755994       1.34360003     -0.303496003       5646.93262       1.93982625    
  0.199064001       1.34539402       0.00000000       5646.93262       1.93982625    
   4.17769998E-02   1.36088502       0.00000000       5646.93262       1.93982625    
   4.12769988E-02   1.35817802     -0.303508013       5646.93262       1.93982625    
   4.17769998E-02   1.36088502       0.00000000       5653.88525       1.93982255    
 -0.116410002       1.35353506       0.00000000       5653.88525       1.93982255    
 -0.116471998       1.35271096     -0.303496987       5653.88525       1.93982255    
   4.12769988E-02   1.35817802     -0.303508013       5653.88525       1.93982255    
 -0.116471998       1.35271096     -0.303496987       5529.80225       1.93571591    
 -0.273027003       1.33229196     -0.303496003       5529.80225       1.93571591    
 -0.273876995       1.33647299     -0.606999993       5529.80225       1.93571591    
 -0.116722003       1.35350394     -0.606999993       5529.80225       1.93571591    
 -0.116471998       1.35271096     -0.303496987       5528.54590       1.93555701    
 -0.116722003       1.35350394     -0.606999993       5528.54590       1.93555701    
   4.12410013E-02   1.36093795     -0.606999993       5528.54590       1.93555701    
   4.12769988E-02   1.35817802     -0.303508013       5528.54590       1.93555701    
 -0.116471998       1.35271096     -0.303496987       5661.51318       1.93985152    
 -0.116410002       1.35353506       0.00000000       5661.51318       1.93985152    
 -0.274069011       1.33641505       0.00000000       5661.51318       1.93985152    
 -0.273027003       1.33229196     -0.303496003       5661.51318       1.93985152    
 -0.274069011       1.33641505       0.00000000       5662.33105       1.93988657    
 -0.425588995       1.29045200       0.00000000       5662.33105       1.93988657    
 -0.425258011       1.28953803     -0.303507000       5662.33105       1.93988657    
 -0.273027003       1.33229196     -0.303496003       5662.33105       1.93988657    
 -0.425258011       1.28953803     -0.303507000       5525.37061       1.93594790    
 -0.572302997       1.23206902     -0.303485990       5525.37061       1.93594790    
 -0.573064029       1.23399496     -0.606999993       5525.37061       1.93594790    
 -0.425651014       1.29043305     -0.606999993       5525.37061       1.93594790    
 -0.425258011       1.28953803     -0.303507000       5528.99854       1.93576896    
 -0.425651014       1.29043305     -0.606999993       5528.99854       1.93576896    
 -0.273876995       1.33647299     -0.606999993       5528.99854       1.93576896    
 -0.273027003       1.33229196     -0.303496003       5528.99854       1.93576896    
 -0.425258011       1.28953803     -0.303507000       5653.24414       1.93997586    
 -0.425588995       1.29045200       0.00000000       5653.24414       1.93997586    
 -0.573195994       1.23392498       0.00000000       5653.24414       1.93997586    
 -0.572302997       1.23206902     -0.303485990       5653.24414       1.93997586    
 -0.573195994       1.23392498       0.00000000       5645.66162       1.94008398    
 -0.712655008       1.15938199       0.00000000       5645.66162       1.94008398    
 -0.711889029       1.15749002     -0.303496003       5645.66162       1.94008398    
 -0.572302997       1.23206902     -0.303485990       5645.66162       1.94008398    
 -0.711889029       1.15749002     -0.303496003       5520.61035       1.93606317    
 -0.840825975       1.06629205     -0.303485990       5520.61035       1.93606317    
 -0.841368973       1.06682706     -0.606999993       5520.61035       1.93606317    
 -0.712980986       1.15920806     -0.606999993       5520.61035       1.93606317    
 -0.711889029       1.15749002     -0.303496003       5523.60010       1.93594098    
 -0.712980986       1.15920806     -0.606999993       5523.60010       1.93594098    
 -0.573064029       1.23399496     -0.606999993       5523.60010       1.93594098    
 -0.572302997       1.23206902     -0.303485990       5523.60010       1.93594098    
 -0.711889029       1.15749002     -0.303496003       5638.70605       1.94009411    
 -0.712655008       1.15938199       0.00000000       5638.70605       1.94009411    
 -0.841165006       1.06699395       0.00000000       5638.70605       1.94009411    
 -0.840825975       1.06629205     -0.303485990       5638.70605       1.94009411    
 -0.841165006       1.06699395       0.00000000       5636.30420       1.94019616    
 -0.963320017      0.966744006       0.00000000       5636.30420       1.94019616    
 -0.960084975      0.962615013     -0.303470999       5636.30420       1.94019616    
 -0.840825975       1.06629205     -0.303485990       5636.30420       1.94019616    
 -0.960084975      0.962615013     -0.303470999       5518.93066       1.93610501    
  -1.06383705      0.843237996     -0.303481996       5518.93066       1.93610501    
  -1.06481802      0.843816996     -0.606999993       5518.93066       1.93610501    
 -0.963873982      0.966289997     -0.606999993       5518.93066       1.93610501    
 -0.960084975      0.962615013     -0.303470999       5519.88916       1.93603814    
 -0.963873982      0.966289997     -0.606999993       5519.88916       1.93603814    
 -0.841368973       1.06682706     -0.606999993       5519.88916       1.93603814    
 -0.840825975       1.06629205     -0.303485990       5519.88916       1.93603814    
 -0.960084975      0.962615013     -0.303470999       5638.27783       1.94027877    
 -0.963320017      0.966744006       0.00000000       5638.27783       1.94027877    
  -1.06464398      0.844029009       0.00000000       5638.27783       1.94027877    
  -1.06383705      0.843237996     -0.303481996       5638.27783       1.94027877    
  -1.06464398      0.844029009       0.00000000       5639.65869       1.94026828    
  -1.15769398      0.715813994       0.00000000       5639.65869       1.94026828    
  -1.15564799      0.714680016     -0.303483993       5639.65869       1.94026828    
  -1.06383705      0.843237996     -0.303481996       5639.65869       1.94026828    
  -1.15564799      0.714680016     -0.303483993       5522.12939       1.93622506    
  -1.23108304      0.575536013     -0.303514004       5522.12939       1.93622506    
  -1.23232996      0.576179981     -0.606999993       5522.12939       1.93622506    
  -1.15756094      0.716063023     -0.606999993       5522.12939       1.93622506    
  -1.15564799      0.714680016     -0.303483993       5518.21240       1.93626428    
  -1.15756094      0.716063023     -0.606999993       5518.21240       1.93626428    
  -1.06481802      0.843816996     -0.606999993       5518.21240       1.93626428    
  -1.06383705      0.843237996     -0.303481996       5518.21240       1.93626428    
  -1.15564799      0.714680016     -0.303483993       5652.46680       1.94024026    
  -1.15769398      0.715813994       0.00000000       5652.46680       1.94024026    
  -1.23224795      0.576331973       0.00000000       5652.46680       1.94024026    
  -1.23108304      0.575536013     -0.303514004       5652.46680       1.94024026    
  -1.23224795      0.576331973       0.00000000       5660.04980       1.94024408    
  -1.28948605      0.428772002       0.00000000       5660.04980       1.94024408    
  -1.28842103      0.428404987     -0.303512990       5660.04980       1.94024408    
  -1.23108304      0.575536013     -0.303514004       5660.04980       1.94024408    
  -1.28842103      0.428404987     -0.303512990       5517.86182       1.93652642    
  -1.33082402      0.275959998     -0.303492010       5517.86182       1.93652642    
  -1.33550000      0.277083993     -0.606999993       5517.86182       1.93652642    