 VARIABLES="X" "Y" "Z" "abs(p) (Pa)" "angle(p) (rad)"
ZONE N=   2720,E =    2069, F=FEPOINT, ET=QUADRILATERAL
 -0.767116010      -1.12776399       0.00000000       747.257629      -1.43881440    
 -0.769354999      -1.12002099     -0.303523988       747.257629      -1.43881440    
 -0.896136999      -1.02028203     -0.303463012       747.257629      -1.43881440    
 -0.894908011      -1.02288902       0.00000000       747.257629      -1.43881440    
 -0.767116010      -1.12776399       0.00000000       746.823853      -1.43885720    
 -0.630888999      -1.20308697       0.00000000       746.823853      -1.43885720    
 -0.635528028      -1.19958198     -0.303541005       746.823853      -1.43885720    
 -0.769354999      -1.12002099     -0.303523988       746.823853      -1.43885720    
 -0.635528028      -1.19958198     -0.303541005       700.212708      -1.43474483    
 -0.495362997      -1.26606500     -0.303519011       700.212708      -1.43474483    
 -0.499298006      -1.26809204     -0.606999993       700.212708      -1.43474483    
 -0.640147984      -1.19813800     -0.606998026       700.212708      -1.43474483    
 -0.635528028      -1.19958198     -0.303541005       700.275635      -1.43466294    
 -0.640147984      -1.19813800     -0.606998026       700.275635      -1.43466294    
 -0.777105987      -1.11956596     -0.606999993       700.275635      -1.43466294    
 -0.769354999      -1.12002099     -0.303523988       700.275635      -1.43466294    
 -0.635528028      -1.19958198     -0.303541005       735.535645      -1.43701506    
 -0.630888999      -1.20308697       0.00000000       735.535645      -1.43701506    
 -0.494486004      -1.26955199       0.00000000       735.535645      -1.43701506    
 -0.495362997      -1.26606500     -0.303519011       735.535645      -1.43701506    
 -0.494486004      -1.26955199       0.00000000       736.354065      -1.43717921    
 -0.346311986      -1.31449997       0.00000000       736.354065      -1.43717921    
 -0.346753001      -1.31307304     -0.303510010       736.354065      -1.43717921    
 -0.495362997      -1.26606500     -0.303519011       736.354065      -1.43717921    
 -0.346753001      -1.31307304     -0.303510010       701.216064      -1.43506563    
 -0.193608001      -1.34425998     -0.303494990       701.216064      -1.43506563    
 -0.195028007      -1.34579206     -0.606999993       701.216064      -1.43506563    
 -0.348751009      -1.31376004     -0.606999993       701.216064      -1.43506563    
 -0.346753001      -1.31307304     -0.303510010       700.505859      -1.43486583    
 -0.348751009      -1.31376004     -0.606999993       700.505859      -1.43486583    
 -0.499298006      -1.26809204     -0.606999993       700.505859      -1.43486583    
 -0.495362997      -1.26606500     -0.303519011       700.505859      -1.43486583    
 -0.346753001      -1.31307304     -0.303510010       737.884888      -1.43743002    
 -0.346311986      -1.31449997       0.00000000       737.884888      -1.43743002    
 -0.193381995      -1.34595394       0.00000000       737.884888      -1.43743002    
 -0.193608001      -1.34425998     -0.303494990       737.884888      -1.43743002    
 -0.193381995      -1.34595394       0.00000000       749.943420      -1.43957222    
  -3.75179984E-02  -1.36130500       0.00000000       749.943420      -1.43957222    
  -3.73950005E-02  -1.35827899     -0.303512007       749.943420      -1.43957222    
 -0.193608001      -1.34425998     -0.303494990       749.943420      -1.43957222    
  -3.73950005E-02  -1.35827899     -0.303512007       704.337402      -1.43577850    
  0.119547002      -1.35239303     -0.303498000       704.337402      -1.43577850    
  0.119135000      -1.35326600     -0.606999993       704.337402      -1.43577850    
  -3.82840000E-02  -1.36122894     -0.606998980       704.337402      -1.43577850    
  -3.73950005E-02  -1.35827899     -0.303512007       701.066956      -1.43510783    
  -3.82840000E-02  -1.36122894     -0.606998980       701.066956      -1.43510783    
 -0.195028007      -1.34579206     -0.606999993       701.066956      -1.43510783    
 -0.193608001      -1.34425998     -0.303494990       701.066956      -1.43510783    
  -3.73950005E-02  -1.35827899     -0.303512007       750.170837      -1.43979132    
  -3.75179984E-02  -1.36130500       0.00000000       750.170837      -1.43979132    
  0.119788997      -1.35320199       0.00000000       750.170837      -1.43979132    
  0.119547002      -1.35239303     -0.303498000       750.170837      -1.43979132    
  0.119788997      -1.35320199       0.00000000       749.808533      -1.43985784    
  0.276576012      -1.33565402       0.00000000       749.808533      -1.43985784    
  0.275435001      -1.33191597     -0.303496003       749.808533      -1.43985784    
  0.119547002      -1.35239303     -0.303498000       749.808533      -1.43985784    
  0.275435001      -1.33191597     -0.303496003       709.811340      -1.43688011    
  0.427076995      -1.28898001     -0.303507000       709.811340      -1.43688011    
  0.427242011      -1.28995001     -0.606999993       709.811340      -1.43688011    
  0.275831014      -1.33588004     -0.606999993       709.811340      -1.43688011    
  0.275435001      -1.33191597     -0.303496003       708.498474      -1.43660247    
  0.275831014      -1.33588004     -0.606999993       708.498474      -1.43660247    
  0.119135000      -1.35326600     -0.606999993       708.498474      -1.43660247    
  0.119547002      -1.35239303     -0.303498000       708.498474      -1.43660247    
  0.275435001      -1.33191597     -0.303496003       750.569336      -1.44010854    
  0.276576012      -1.33565402       0.00000000       750.569336      -1.44010854    
  0.427509993      -1.28986895       0.00000000       750.569336      -1.44010854    
  0.427076995      -1.28898001     -0.303507000       750.569336      -1.44010854    
  0.427509993      -1.28986895       0.00000000       752.460876      -1.44058514    
  0.574636996      -1.23315501       0.00000000       752.460876      -1.44058514    
  0.573706985      -1.23136795     -0.303485990       752.460876      -1.44058514    
  0.427076995      -1.28898001     -0.303507000       752.460876      -1.44058514    
  0.573706985      -1.23136795     -0.303485990       715.941467      -1.43797970    
  0.712854981      -1.15688002     -0.303496987       715.941467      -1.43797970    
  0.713809013      -1.15876603     -0.606999993       715.941467      -1.43797970    
  0.574283004      -1.23334301     -0.606999993       715.941467      -1.43797970    
  0.573706985      -1.23136795     -0.303485990       711.626770      -1.43722034    
  0.574283004      -1.23334301     -0.606999993       711.626770      -1.43722034    
  0.427242011      -1.28995001     -0.606999993       711.626770      -1.43722034    
  0.427076995      -1.28898001     -0.303507000       711.626770      -1.43722034    
  0.573706985      -1.23136795     -0.303485990       756.338623      -1.44126332    
  0.574636996      -1.23315501       0.00000000       756.338623      -1.44126332    
  0.713741004      -1.15880203       0.00000000       756.338623      -1.44126332    
  0.712854981      -1.15688002     -0.303496987       756.338623      -1.44126332    
  0.713741004      -1.15880203       0.00000000       758.534363      -1.44158745    
  0.841937006      -1.06636095       0.00000000       758.534363      -1.44158745    
  0.841498017      -1.06573403     -0.303485990       758.534363      -1.44158745    
  0.712854981      -1.15688002     -0.303496987       758.534363      -1.44158745    
  0.841498017      -1.06573403     -0.303485990       722.575256      -1.43900061    
  0.960639000     -0.962104976     -0.303470999       722.575256      -1.43900061    
  0.964356005     -0.965893984     -0.606999993       722.575256      -1.43900061    
  0.841796994      -1.06647599     -0.606999993       722.575256      -1.43900061    
  0.841498017      -1.06573403     -0.303485990       719.594055      -1.43856573    
  0.841796994      -1.06647599     -0.606999993       719.594055      -1.43856573    
  0.713809013      -1.15876603     -0.606999993       719.594055      -1.43856573    
  0.712854981      -1.15688002     -0.303496987       719.594055      -1.43856573    
  0.841498017      -1.06573403     -0.303485990       753.663086      -1.44054258    
  0.841937006      -1.06636095       0.00000000       753.663086      -1.44054258    
  0.963932991     -0.966242015       0.00000000       753.663086      -1.44054258    
  0.960639000     -0.962104976     -0.303470999       753.663086      -1.44054258    
  0.963932991     -0.966242015       0.00000000       756.429077      -1.44086528    
   1.06506598     -0.843514979       0.00000000       756.429077      -1.44086528    
   1.06428695     -0.842682004     -0.303481996       756.429077      -1.44086528    
  0.960639000     -0.962104976     -0.303470999       756.429077      -1.44086528    
   1.06428695     -0.842682004     -0.303481996       714.664612      -1.43731999    
   1.15591598     -0.714210987     -0.303485006       714.664612      -1.43731999    
   1.15788805     -0.715448976     -0.606999993       714.664612      -1.43731999    
   1.06537795     -0.843134999     -0.606999993       714.664612      -1.43731999    
   1.06428695     -0.842682004     -0.303481996       725.665039      -1.43944120    
   1.06537795     -0.843134999     -0.606999993       725.665039      -1.43944120    
  0.964356005     -0.965893984     -0.606999993       725.665039      -1.43944120    
  0.960639000     -0.962104976     -0.303470999       725.665039      -1.43944120    
   1.06428695     -0.842682004     -0.303481996       758.035400      -1.44123590    
   1.06506598     -0.843514979       0.00000000       758.035400      -1.44123590    
   1.15792501     -0.715381980       0.00000000       758.035400      -1.44123590    
   1.15591598     -0.714210987     -0.303485006       758.035400      -1.44123590    
   1.15792501     -0.715381980       0.00000000       761.804260      -1.44155860    
   1.23237598     -0.576093972       0.00000000       761.804260      -1.44155860    
   1.23120904     -0.575251997     -0.303514004       761.804260      -1.44155860    
   1.15591598     -0.714210987     -0.303485006       761.804260      -1.44155860    
   1.23120904     -0.575251997     -0.303514004       721.416565      -1.43822658    
   1.28844094     -0.428344995     -0.303512990       721.416565      -1.43822658    
   1.28952503     -0.428642988     -0.606999993       721.416565      -1.43822658    
   1.23252702     -0.575810015     -0.606999993       721.416565      -1.43822658    
   1.23120904     -0.575251997     -0.303514004       718.079224      -1.43778515    
   1.23252702     -0.575810015     -0.606999993       718.079224      -1.43778515    
   1.15788805     -0.715448976     -0.606999993       718.079224      -1.43778515    
   1.15591598     -0.714210987     -0.303485006       718.079224      -1.43778515    
   1.23120904     -0.575251997     -0.303514004       749.380554      -1.43908036    
   1.23237598     -0.576093972       0.00000000       749.380554      -1.43908036    
   1.28947699     -0.428801000       0.00000000       749.380554      -1.43908036    
   1.28844094     -0.428344995     -0.303512990       749.380554      -1.43908036    
   1.28947699     -0.428801000       0.00000000       761.850952      -1.44086266    
   1.33532202     -0.277671993       0.00000000       761.850952      -1.44086266    
   1.33076501     -0.276203990     -0.303492010       761.850952      -1.44086266    
   1.28844094     -0.428344995     -0.303512990       761.850952      -1.44086266    
   1.33076501     -0.276203990     -0.303492010       710.663818      -1.43594682    
   1.35229194     -0.119709998     -0.303514004       710.663818      -1.43594682    
   1.35321999     -0.119608998     -0.606999993       710.663818      -1.43594682    
   1.33549094     -0.277112991     -0.606999993       710.663818      -1.43594682    
   1.33076501     -0.276203990     -0.303492010       722.186707      -1.43821228    
   1.33549094     -0.277112991     -0.606999993       722.186707      -1.43821228    
   1.28952503     -0.428642988     -0.606999993       722.186707      -1.43821228    
   1.28844094     -0.428344995     -0.303512990       722.186707      -1.43821228    
   1.33076501     -0.276203990     -0.303492010       779.263733      -1.44359934    
   1.33532202     -0.277671993       0.00000000       779.263733      -1.44359934    
   1.35319102     -0.119900003       0.00000000       779.263733      -1.44359934    
   1.35229194     -0.119709998     -0.303514004       779.263733      -1.44359934    
   1.35319102     -0.119900003       0.00000000       781.966431      -1.44385552    
   1.36124396       3.81390005E-02   0.00000000       781.966431      -1.44385552    
   1.35858905       3.79349999E-02 -0.303501010       781.966431      -1.44385552    
   1.35229194     -0.119709998     -0.303514004       781.966431      -1.44385552    
   1.35858905       3.79349999E-02 -0.303501010       728.605164      -1.43888080    
   1.34464097      0.195331007     -0.303496003       728.605164      -1.43888080    
   1.34573400      0.195616007     -0.606999993       728.605164      -1.43888080    
   1.36126804       3.78950015E-02 -0.606999993       728.605164      -1.43888080    
   1.35858905       3.79349999E-02 -0.303501010       728.450317      -1.43901443    
   1.36126804       3.78950015E-02 -0.606999993       728.450317      -1.43901443    
   1.35321999     -0.119608998     -0.606999993       728.450317      -1.43901443    
   1.35229194     -0.119709998     -0.303514004       728.450317      -1.43901443    
   1.35858905       3.79349999E-02 -0.303501010       769.742676      -1.44172645    
   1.36124396       3.81390005E-02   0.00000000       769.742676      -1.44172645    
   1.34575403      0.195406005       0.00000000       769.742676      -1.44172645    
   1.34464097      0.195331007     -0.303496003       769.742676      -1.44172645    
   1.34575403      0.195406005       0.00000000       772.583923      -1.44201505    
   1.31339800      0.349945009       0.00000000       772.583923      -1.44201505    
   1.31216300      0.349725991     -0.303487003       772.583923      -1.44201505    
   1.34464097      0.195331007     -0.303496003       772.583923      -1.44201505    
   1.31216300      0.349725991     -0.303487003       741.383606      -1.44079077    
   1.26341999      0.500032008     -0.303494006       741.383606      -1.44079077    
   1.26736605      0.501691997     -0.606999993       741.383606      -1.44079077    
   1.31333196      0.350163996     -0.606999993       741.383606      -1.44079077    
   1.31216300      0.349725991     -0.303487003       730.887024      -1.43913686    
   1.31333196      0.350163996     -0.606999993       730.887024      -1.43913686    
   1.34573400      0.195616007     -0.606999993       730.887024      -1.43913686    
   1.34464097      0.195331007     -0.303496003       730.887024      -1.43913686    
   1.31216300      0.349725991     -0.303487003       775.595886      -1.44227815    
   1.31339800      0.349945009       0.00000000       775.595886      -1.44227815    
   1.26751196      0.501209974       0.00000000       775.595886      -1.44227815    
   1.26341999      0.500032008     -0.303494006       775.595886      -1.44227815    
   1.26751196      0.501209974       0.00000000       792.026123      -1.44478953    
   1.19658697      0.643051028       0.00000000       792.026123      -1.44478953    
   1.19583094      0.642783999     -0.303505003       792.026123      -1.44478953    
   1.26341999      0.500032008     -0.303494006       792.026123      -1.44478953    
   1.19583094      0.642783999     -0.303505003       734.002014      -1.43935418    
   1.11495602      0.778467000     -0.303483993       734.002014      -1.43935418    
   1.11731696      0.779847026     -0.606999993       734.002014      -1.43935418    
   1.19653296      0.643149972     -0.606999993       734.002014      -1.43935418    
   1.19583094      0.642783999     -0.303505003       743.434143      -1.44103193    
   1.19653296      0.643149972     -0.606999993       743.434143      -1.44103193    
   1.26736605      0.501691997     -0.606999993       743.434143      -1.44103193    
   1.26341999      0.500032008     -0.303494006       743.434143      -1.44103193    
   1.19583094      0.642783999     -0.303505003       792.129150      -1.44495165    
   1.19658697      0.643051028       0.00000000       792.129150      -1.44495165    
   1.11705506      0.780165970       0.00000000       792.129150      -1.44495165    
   1.11495602      0.778467000     -0.303483993       792.129150      -1.44495165    
   1.11705506      0.780165970       0.00000000       792.056580      -1.44506526    
   1.01674199      0.902397990       0.00000000       792.056580      -1.44506526    
   1.01591504      0.901737988     -0.303478003       792.056580      -1.44506526    
   1.11495602      0.778467000     -0.303483993       792.056580      -1.44506526    
   1.01591504      0.901737988     -0.303478003       744.727783      -1.44111717    
  0.904204011       1.01322901     -0.303456992       744.727783      -1.44111717    
  0.905143023       1.01448905     -0.606999993       744.727783      -1.44111717    
   1.01659799      0.902572989     -0.606999993       744.727783      -1.44111717    
   1.01591504      0.901737988     -0.303478003       744.282532      -1.44108224    
   1.01659799      0.902572989     -0.606999993       744.282532      -1.44108224    
   1.11731696      0.779847026     -0.606999993       744.282532      -1.44108224    
   1.11495602      0.778467000     -0.303483993       744.282532      -1.44108224    
   1.01591504      0.901737988     -0.303478003       791.795654      -1.44514489    
   1.01674199      0.902397990       0.00000000       791.795654      -1.44514489    
  0.905318975       1.01434398       0.00000000       791.795654      -1.44514489    
  0.904204011       1.01322901     -0.303456992       791.795654      -1.44514489    
  0.905318975       1.01434398       0.00000000       781.052490      -1.44341505    
  0.782918990       1.11479497       0.00000000       781.052490      -1.44341505    
  0.780644000       1.11195600     -0.303485006       781.052490      -1.44341505    
  0.904204011       1.01322901     -0.303456992       781.052490      -1.44341505    
  0.780644000       1.11195600     -0.303485006       745.252808      -1.44111526    
  0.645825028       1.19414902     -0.303514004       745.252808      -1.44111526    
  0.646153986       1.19492805     -0.606999993       745.252808      -1.44111526    
  0.782611012       1.11504900     -0.606999993       745.252808      -1.44111526    
  0.780644000       1.11195600     -0.303485006       744.999756      -1.44112098    
  0.782611012       1.11504900     -0.606999993       744.999756      -1.44112098    
  0.905143023       1.01448905     -0.606999993       744.999756      -1.44112098    
  0.904204011       1.01322901     -0.303456992       744.999756      -1.44112098    
  0.780644000       1.11195600     -0.303485006       775.819946      -1.44257236    
  0.782918990       1.11479497       0.00000000       775.819946      -1.44257236    
  0.646345019       1.19482601       0.00000000       775.819946      -1.44257236    
  0.645825028       1.19414902     -0.303514004       775.819946      -1.44257236    
  0.646345019       1.19482601       0.00000000       787.198242      -1.44421971    
  0.504974008       1.26637006       0.00000000       787.198242      -1.44421971    
  0.503772974       1.26314998     -0.303521991       787.198242      -1.44421971    
  0.645825028       1.19414902     -0.303514004       787.198242      -1.44421971    
  0.503772974       1.26314998     -0.303521991       750.039185      -1.44179034    
  0.353130996       1.31116498     -0.303510994       750.039185      -1.44179034    
  0.353300005       1.31237996     -0.606999993       750.039185      -1.44179034    
  0.505183995       1.26630700     -0.606999993       750.039185      -1.44179034    
  0.503772974       1.26314998     -0.303521991       747.730469      -1.44146824    
  0.505183995       1.26630700     -0.606999993       747.730469      -1.44146824    
  0.646153986       1.19492805     -0.606999993       747.730469      -1.44146824    
  0.645825028       1.19414902     -0.303514004       747.730469      -1.44146824    
  0.503772974       1.26314998     -0.303521991       787.082336      -1.44414830    
  0.504974008       1.26637006       0.00000000       787.082336      -1.44414830    
  0.353493989       1.31232095       0.00000000       787.082336      -1.44414830    
  0.353130996       1.31116498     -0.303510994       787.082336      -1.44414830    
  0.353493989       1.31232095       0.00000000       786.651917      -1.44403434    
  0.199064001       1.34539402       0.00000000       786.651917      -1.44403434    
  0.198755994       1.34360003     -0.303496003       786.651917      -1.44403434    
  0.353130996       1.31116498     -0.303510994       786.651917      -1.44403434    
  0.198755994       1.34360003     -0.303496003       760.086243      -1.44329762    
   4.12769988E-02   1.35817802     -0.303508013       760.086243      -1.44329762    
   4.12410013E-02   1.36093795     -0.606999993       760.086243      -1.44329762    
  0.199025005       1.34539795     -0.606999993       760.086243      -1.44329762    
  0.198755994       1.34360003     -0.303496003       749.793701      -1.44168925    
  0.199025005       1.34539795     -0.606999993       749.793701      -1.44168925    
  0.353300005       1.31237996     -0.606999993       749.793701      -1.44168925    
  0.353130996       1.31116498     -0.303510994       749.793701      -1.44168925    
  0.198755994       1.34360003     -0.303496003       785.782043      -1.44382846    
  0.199064001       1.34539402       0.00000000       785.782043      -1.44382846    
   4.17769998E-02   1.36088502       0.00000000       785.782043      -1.44382846    
   4.12769988E-02   1.35817802     -0.303508013       785.782043      -1.44382846    
   4.17769998E-02   1.36088502       0.00000000       789.864868      -1.44427741    
 -0.116410002       1.35353506       0.00000000       789.864868      -1.44427741    
 -0.116471998       1.35271096     -0.303496987       789.864868      -1.44427741    
   4.12769988E-02   1.35817802     -0.303508013       789.864868      -1.44427741    
 -0.116471998       1.35271096     -0.303496987       764.368530      -1.44388425    
 -0.273027003       1.33229196     -0.303496003       764.368530      -1.44388425    
 -0.273876995       1.33647299     -0.606999993       764.368530      -1.44388425    
 -0.116722003       1.35350394     -0.606999993       764.368530      -1.44388425    
 -0.116471998       1.35271096     -0.303496987       758.800598      -1.44303787    
 -0.116722003       1.35350394     -0.606999993       758.800598      -1.44303787    
   4.12410013E-02   1.36093795     -0.606999993       758.800598      -1.44303787    
   4.12769988E-02   1.35817802     -0.303508013       758.800598      -1.44303787    
 -0.116471998       1.35271096     -0.303496987       789.389954      -1.44394851    
 -0.116410002       1.35353506       0.00000000       789.389954      -1.44394851    
 -0.274069011       1.33641505       0.00000000       789.389954      -1.44394851    
 -0.273027003       1.33229196     -0.303496003       789.389954      -1.44394851    
 -0.274069011       1.33641505       0.00000000       787.197815      -1.44357705    
 -0.425588995       1.29045200       0.00000000       787.197815      -1.44357705    
 -0.425258011       1.28953803     -0.303507000       787.197815      -1.44357705    
 -0.273027003       1.33229196     -0.303496003       787.197815      -1.44357705    
 -0.425258011       1.28953803     -0.303507000       757.637024      -1.44284177    
 -0.572302997       1.23206902     -0.303485990       757.637024      -1.44284177    
 -0.573064029       1.23399496     -0.606999993       757.637024      -1.44284177    
 -0.425651014       1.29043305     -0.606999993       757.637024      -1.44284177    
 -0.425258011       1.28953803     -0.303507000       761.431396      -1.44341111    
 -0.425651014       1.29043305     -0.606999993       761.431396      -1.44341111    
 -0.273876995       1.33647299     -0.606999993       761.431396      -1.44341111    
 -0.273027003       1.33229196     -0.303496003       761.431396      -1.44341111    
 -0.425258011       1.28953803     -0.303507000       780.772949      -1.44281352    
 -0.425588995       1.29045200       0.00000000       780.772949      -1.44281352    
 -0.573195994       1.23392498       0.00000000       780.772949      -1.44281352    
 -0.572302997       1.23206902     -0.303485990       780.772949      -1.44281352    
 -0.573195994       1.23392498       0.00000000       774.394531      -1.44200075    
 -0.712655008       1.15938199       0.00000000       774.394531      -1.44200075    
 -0.711889029       1.15749002     -0.303496003       774.394531      -1.44200075    
 -0.572302997       1.23206902     -0.303485990       774.394531      -1.44200075    
 -0.711889029       1.15749002     -0.303496003       748.286682      -1.44144511    
 -0.840825975       1.06629205     -0.303485990       748.286682      -1.44144511    
 -0.841368973       1.06682706     -0.606999993       748.286682      -1.44144511    
 -0.712980986       1.15920806     -0.606999993       748.286682      -1.44144511    
 -0.711889029       1.15749002     -0.303496003       752.440613      -1.44206178    
 -0.712980986       1.15920806     -0.606999993       752.440613      -1.44206178    
 -0.573064029       1.23399496     -0.606999993       752.440613      -1.44206178    
 -0.572302997       1.23206902     -0.303485990       752.440613      -1.44206178    
 -0.711889029       1.15749002     -0.303496003       773.631958      -1.44216812    
 -0.712655008       1.15938199       0.00000000       773.631958      -1.44216812    
 -0.841165006       1.06699395       0.00000000       773.631958      -1.44216812    
 -0.840825975       1.06629205     -0.303485990       773.631958      -1.44216812    
 -0.841165006       1.06699395       0.00000000       769.890625      -1.44163585    
 -0.963320017      0.966744006       0.00000000       769.890625      -1.44163585    
 -0.960084975      0.962615013     -0.303470999       769.890625      -1.44163585    
 -0.840825975       1.06629205     -0.303485990       769.890625      -1.44163585    
 -0.960084975      0.962615013     -0.303470999       736.384888      -1.43954170    
  -1.06383705      0.843237996     -0.303481996       736.384888      -1.43954170    
  -1.06481802      0.843816996     -0.606999993       736.384888      -1.43954170    
 -0.963873982      0.966289997     -0.606999993       736.384888      -1.43954170    
 -0.960084975      0.962615013     -0.303470999       742.041260      -1.44046605    
 -0.963873982      0.966289997     -0.606999993       742.041260      -1.44046605    
 -0.841368973       1.06682706     -0.606999993       742.041260      -1.44046605    
 -0.840825975       1.06629205     -0.303485990       742.041260      -1.44046605    
 -0.960084975      0.962615013     -0.303470999       768.174744      -1.44132316    
 -0.963320017      0.966744006       0.00000000       768.174744      -1.44132316    
  -1.06464398      0.844029009       0.00000000       768.174744      -1.44132316    
  -1.06383705      0.843237996     -0.303481996       768.174744      -1.44132316    
  -1.06464398      0.844029009       0.00000000       765.353149      -1.44089043    
  -1.15769398      0.715813994       0.00000000       765.353149      -1.44089043    
  -1.15564799      0.714680016     -0.303483993       765.353149      -1.44089043    
  -1.06383705      0.843237996     -0.303481996       765.353149      -1.44089043    
  -1.15564799      0.714680016     -0.303483993       735.657166      -1.43946695    
  -1.23108304      0.575536013     -0.303514004       735.657166      -1.43946695    
  -1.23232996      0.576179981     -0.606999993       735.657166      -1.43946695    
  -1.15756094      0.716063023     -0.606999993       735.657166      -1.43946695    
  -1.15564799      0.714680016     -0.303483993       733.259094      -1.43902528    
  -1.15756094      0.716063023     -0.606999993       733.259094      -1.43902528    
  -1.06481802      0.843816996     -0.606999993       733.259094      -1.43902528    
  -1.06383705      0.843237996     -0.303481996       733.259094      -1.43902528    
  -1.15564799      0.714680016     -0.303483993       764.829102      -1.44049454    
  -1.15769398      0.715813994       0.00000000       764.829102      -1.44049454    
  -1.23224795      0.576331973       0.00000000       764.829102      -1.44049454    
  -1.23108304      0.575536013     -0.303514004       764.829102      -1.44049454    
  -1.23224795      0.576331973       0.00000000       763.721802      -1.44015992    
  -1.28948605      0.428772002       0.00000000       763.721802      -1.44015992    
  -1.28842103      0.428404987     -0.303512990       763.721802      -1.44015992    
  -1.23108304      0.575536013     -0.303514004       763.721802      -1.44015992    
  -1.28842103      0.428404987     -0.303512990       718.038574      -1.43643928    
  -1.33082402      0.275959998     -0.303492010       718.038574      -1.43643928    
  -1.33550000      0.277083993     -0.606999993       718.038574      -1.43643928    