 VARIABLES="X" "Y" "Z" "abs(p) (Pa)" "angle(p) (rad)"
ZONE N=   2720,E =    2069, F=FEPOINT, ET=QUADRILATERAL
 -0.767116010      -1.12776399       0.00000000       1186.52405      -1.57866943    
 -0.769354999      -1.12002099     -0.303523988       1186.52405      -1.57866943    
 -0.896136999      -1.02028203     -0.303463012       1186.52405      -1.57866943    
 -0.894908011      -1.02288902       0.00000000       1186.52405      -1.57866943    
 -0.767116010      -1.12776399       0.00000000       1284.07349      -1.57831788    
 -0.630888999      -1.20308697       0.00000000       1284.07349      -1.57831788    
 -0.635528028      -1.19958198     -0.303541005       1284.07349      -1.57831788    
 -0.769354999      -1.12002099     -0.303523988       1284.07349      -1.57831788    
 -0.635528028      -1.19958198     -0.303541005       1234.58557      -1.57929552    
 -0.495362997      -1.26606500     -0.303519011       1234.58557      -1.57929552    
 -0.499298006      -1.26809204     -0.606999993       1234.58557      -1.57929552    
 -0.640147984      -1.19813800     -0.606998026       1234.58557      -1.57929552    
 -0.635528028      -1.19958198     -0.303541005       1159.09680      -1.57959449    
 -0.640147984      -1.19813800     -0.606998026       1159.09680      -1.57959449    
 -0.777105987      -1.11956596     -0.606999993       1159.09680      -1.57959449    
 -0.769354999      -1.12002099     -0.303523988       1159.09680      -1.57959449    
 -0.635528028      -1.19958198     -0.303541005       1356.22949      -1.57809544    
 -0.630888999      -1.20308697       0.00000000       1356.22949      -1.57809544    
 -0.494486004      -1.26955199       0.00000000       1356.22949      -1.57809544    
 -0.495362997      -1.26606500     -0.303519011       1356.22949      -1.57809544    
 -0.494486004      -1.26955199       0.00000000       1417.98645      -1.57791281    
 -0.346311986      -1.31449997       0.00000000       1417.98645      -1.57791281    
 -0.346753001      -1.31307304     -0.303510010       1417.98645      -1.57791281    
 -0.495362997      -1.26606500     -0.303519011       1417.98645      -1.57791281    
 -0.346753001      -1.31307304     -0.303510010       1334.47546      -1.57892799    
 -0.193608001      -1.34425998     -0.303494990       1334.47546      -1.57892799    
 -0.195028007      -1.34579206     -0.606999993       1334.47546      -1.57892799    
 -0.348751009      -1.31376004     -0.606999993       1334.47546      -1.57892799    
 -0.346753001      -1.31307304     -0.303510010       1291.88013      -1.57908630    
 -0.348751009      -1.31376004     -0.606999993       1291.88013      -1.57908630    
 -0.499298006      -1.26809204     -0.606999993       1291.88013      -1.57908630    
 -0.495362997      -1.26606500     -0.303519011       1291.88013      -1.57908630    
 -0.346753001      -1.31307304     -0.303510010       1464.23730      -1.57777405    
 -0.346311986      -1.31449997       0.00000000       1464.23730      -1.57777405    
 -0.193381995      -1.34595394       0.00000000       1464.23730      -1.57777405    
 -0.193608001      -1.34425998     -0.303494990       1464.23730      -1.57777405    
 -0.193381995      -1.34595394       0.00000000       1499.56299      -1.57765973    
  -3.75179984E-02  -1.36130500       0.00000000       1499.56299      -1.57765973    
  -3.73950005E-02  -1.35827899     -0.303512007       1499.56299      -1.57765973    
 -0.193608001      -1.34425998     -0.303494990       1499.56299      -1.57765973    
  -3.73950005E-02  -1.35827899     -0.303512007       1362.57581      -1.57880771    
  0.119547002      -1.35239303     -0.303498000       1362.57581      -1.57880771    
  0.119135000      -1.35326600     -0.606999993       1362.57581      -1.57880771    
  -3.82840000E-02  -1.36122894     -0.606998980       1362.57581      -1.57880771    
  -3.73950005E-02  -1.35827899     -0.303512007       1358.92139      -1.57883799    
  -3.82840000E-02  -1.36122894     -0.606998980       1358.92139      -1.57883799    
 -0.195028007      -1.34579206     -0.606999993       1358.92139      -1.57883799    
 -0.193608001      -1.34425998     -0.303494990       1358.92139      -1.57883799    
  -3.73950005E-02  -1.35827899     -0.303512007       1506.58215      -1.57762349    
  -3.75179984E-02  -1.36130500       0.00000000       1506.58215      -1.57762349    
  0.119788997      -1.35320199       0.00000000       1506.58215      -1.57762349    
  0.119547002      -1.35239303     -0.303498000       1506.58215      -1.57762349    
  0.119788997      -1.35320199       0.00000000       1493.75793      -1.57763696    
  0.276576012      -1.33565402       0.00000000       1493.75793      -1.57763696    
  0.275435001      -1.33191597     -0.303496003       1493.75793      -1.57763696    
  0.119547002      -1.35239303     -0.303498000       1493.75793      -1.57763696    
  0.275435001      -1.33191597     -0.303496003       1344.90161      -1.57876956    
  0.427076995      -1.28898001     -0.303507000       1344.90161      -1.57876956    
  0.427242011      -1.28995001     -0.606999993       1344.90161      -1.57876956    
  0.275831014      -1.33588004     -0.606999993       1344.90161      -1.57876956    
  0.275435001      -1.33191597     -0.303496003       1373.60022      -1.57871449    
  0.275831014      -1.33588004     -0.606999993       1373.60022      -1.57871449    
  0.119135000      -1.35326600     -0.606999993       1373.60022      -1.57871449    
  0.119547002      -1.35239303     -0.303498000       1373.60022      -1.57871449    
  0.275435001      -1.33191597     -0.303496003       1461.96057      -1.57769573    
  0.276576012      -1.33565402       0.00000000       1461.96057      -1.57769573    
  0.427509993      -1.28986895       0.00000000       1461.96057      -1.57769573    
  0.427076995      -1.28898001     -0.303507000       1461.96057      -1.57769573    
  0.427509993      -1.28986895       0.00000000       1410.19031      -1.57779765    
  0.574636996      -1.23315501       0.00000000       1410.19031      -1.57779765    
  0.573706985      -1.23136795     -0.303485990       1410.19031      -1.57779765    
  0.427076995      -1.28898001     -0.303507000       1410.19031      -1.57779765    
  0.573706985      -1.23136795     -0.303485990       1231.88708      -1.57906294    
  0.712854981      -1.15688002     -0.303496987       1231.88708      -1.57906294    
  0.713809013      -1.15876603     -0.606999993       1231.88708      -1.57906294    
  0.574283004      -1.23334301     -0.606999993       1231.88708      -1.57906294    
  0.573706985      -1.23136795     -0.303485990       1298.60779      -1.57887018    
  0.574283004      -1.23334301     -0.606999993       1298.60779      -1.57887018    
  0.427242011      -1.28995001     -0.606999993       1298.60779      -1.57887018    
  0.427076995      -1.28898001     -0.303507000       1298.60779      -1.57887018    
  0.573706985      -1.23136795     -0.303485990       1337.42139      -1.57797492    
  0.574636996      -1.23315501       0.00000000       1337.42139      -1.57797492    
  0.713741004      -1.15880203       0.00000000       1337.42139      -1.57797492    
  0.712854981      -1.15688002     -0.303496987       1337.42139      -1.57797492    
  0.713741004      -1.15880203       0.00000000       1250.42920      -1.57821214    
  0.841937006      -1.06636095       0.00000000       1250.42920      -1.57821214    
  0.841498017      -1.06573403     -0.303485990       1250.42920      -1.57821214    
  0.712854981      -1.15688002     -0.303496987       1250.42920      -1.57821214    
  0.841498017      -1.06573403     -0.303485990       1053.15686      -1.57970524    
  0.960639000     -0.962104976     -0.303470999       1053.15686      -1.57970524    
  0.964356005     -0.965893984     -0.606999993       1053.15686      -1.57970524    
  0.841796994      -1.06647599     -0.606999993       1053.15686      -1.57970524    
  0.841498017      -1.06573403     -0.303485990       1151.26257      -1.57932091    
  0.841796994      -1.06647599     -0.606999993       1151.26257      -1.57932091    
  0.713809013      -1.15876603     -0.606999993       1151.26257      -1.57932091    
  0.712854981      -1.15688002     -0.303496987       1151.26257      -1.57932091    
  0.841498017      -1.06573403     -0.303485990       1157.96277      -1.57849717    
  0.841937006      -1.06636095       0.00000000       1157.96277      -1.57849717    
  0.963932991     -0.966242015       0.00000000       1157.96277      -1.57849717    
  0.960639000     -0.962104976     -0.303470999       1157.96277      -1.57849717    
  0.963932991     -0.966242015       0.00000000       1041.13904      -1.57896054    
   1.06506598     -0.843514979       0.00000000       1041.13904      -1.57896054    
   1.06428695     -0.842682004     -0.303481996       1041.13904      -1.57896054    
  0.960639000     -0.962104976     -0.303470999       1041.13904      -1.57896054    
   1.06428695     -0.842682004     -0.303481996       856.033508      -1.58059967    
   1.15591598     -0.714210987     -0.303485006       856.033508      -1.58059967    
   1.15788805     -0.715448976     -0.606999993       856.033508      -1.58059967    
   1.06537795     -0.843134999     -0.606999993       856.033508      -1.58059967    
   1.06428695     -0.842682004     -0.303481996       945.513550      -1.58021498    
   1.06537795     -0.843134999     -0.606999993       945.513550      -1.58021498    
  0.964356005     -0.965893984     -0.606999993       945.513550      -1.58021498    
  0.960639000     -0.962104976     -0.303470999       945.513550      -1.58021498    
   1.06428695     -0.842682004     -0.303481996       904.729370      -1.57965326    
   1.06506598     -0.843514979       0.00000000       904.729370      -1.57965326    
   1.15792501     -0.715381980       0.00000000       904.729370      -1.57965326    
   1.15591598     -0.714210987     -0.303485006       904.729370      -1.57965326    
   1.15792501     -0.715381980       0.00000000       758.048889      -1.58069575    
   1.23237598     -0.576093972       0.00000000       758.048889      -1.58069575    
   1.23120904     -0.575251997     -0.303514004       758.048889      -1.58069575    
   1.15591598     -0.714210987     -0.303485006       758.048889      -1.58069575    
   1.23120904     -0.575251997     -0.303514004       578.562073      -1.58323920    
   1.28844094     -0.428344995     -0.303512990       578.562073      -1.58323920    
   1.28952503     -0.428642988     -0.606999993       578.562073      -1.58323920    
   1.23252702     -0.575810015     -0.606999993       578.562073      -1.58323920    
   1.23120904     -0.575251997     -0.303514004       721.689636      -1.58162606    
   1.23252702     -0.575810015     -0.606999993       721.689636      -1.58162606    
   1.15788805     -0.715448976     -0.606999993       721.689636      -1.58162606    
   1.15591598     -0.714210987     -0.303485006       721.689636      -1.58162606    
   1.23120904     -0.575251997     -0.303514004       638.657043      -1.58176768    
   1.23237598     -0.576093972       0.00000000       638.657043      -1.58176768    
   1.28947699     -0.428801000       0.00000000       638.657043      -1.58176768    
   1.28844094     -0.428344995     -0.303512990       638.657043      -1.58176768    
   1.28947699     -0.428801000       0.00000000       456.668518      -1.58481777    
   1.33532202     -0.277671993       0.00000000       456.668518      -1.58481777    
   1.33076501     -0.276203990     -0.303492010       456.668518      -1.58481777    
   1.28844094     -0.428344995     -0.303512990       456.668518      -1.58481777    
   1.33076501     -0.276203990     -0.303492010       289.452698      -1.59122992    
   1.35229194     -0.119709998     -0.303514004       289.452698      -1.59122992    
   1.35321999     -0.119608998     -0.606999993       289.452698      -1.59122992    
   1.33549094     -0.277112991     -0.606999993       289.452698      -1.59122992    
   1.33076501     -0.276203990     -0.303492010       429.671234      -1.58605731    
   1.33549094     -0.277112991     -0.606999993       429.671234      -1.58605731    
   1.28952503     -0.428642988     -0.606999993       429.671234      -1.58605731    
   1.28844094     -0.428344995     -0.303512990       429.671234      -1.58605731    
   1.33076501     -0.276203990     -0.303492010       254.297043      -1.59356904    
   1.33532202     -0.277671993       0.00000000       254.297043      -1.59356904    
   1.35319102     -0.119900003       0.00000000       254.297043      -1.59356904    
   1.35229194     -0.119709998     -0.303514004       254.297043      -1.59356904    
   1.35319102     -0.119900003       0.00000000       78.7544327      -1.63674116    
   1.36124396       3.81390005E-02   0.00000000       78.7544327      -1.63674116    
   1.35858905       3.79349999E-02 -0.303501010       78.7544327      -1.63674116    
   1.35229194     -0.119709998     -0.303514004       78.7544327      -1.63674116    
   1.35858905       3.79349999E-02 -0.303501010       59.8580742       1.64670873    
   1.34464097      0.195331007     -0.303496003       59.8580742       1.64670873    
   1.34573400      0.195616007     -0.606999993       59.8580742       1.64670873    
   1.36126804       3.78950015E-02 -0.606999993       59.8580742       1.64670873    
   1.35858905       3.79349999E-02 -0.303501010       93.9983215      -1.62608433    
   1.36126804       3.78950015E-02 -0.606999993       93.9983215      -1.62608433    
   1.35321999     -0.119608998     -0.606999993       93.9983215      -1.62608433    
   1.35229194     -0.119709998     -0.303514004       93.9983215      -1.62608433    
   1.35858905       3.79349999E-02 -0.303501010       81.2268066       1.62757063    
   1.36124396       3.81390005E-02   0.00000000       81.2268066       1.62757063    
   1.34575403      0.195406005       0.00000000       81.2268066       1.62757063    
   1.34464097      0.195331007     -0.303496003       81.2268066       1.62757063    
   1.34575403      0.195406005       0.00000000       253.052826       1.58670962    
   1.31339800      0.349945009       0.00000000       253.052826       1.58670962    
   1.31216300      0.349725991     -0.303487003       253.052826       1.58670962    
   1.34464097      0.195331007     -0.303496003       253.052826       1.58670962    
   1.31216300      0.349725991     -0.303487003       382.943237       1.57917929    
   1.26341999      0.500032008     -0.303494006       382.943237       1.57917929    
   1.26736605      0.501691997     -0.606999993       382.943237       1.57917929    
   1.31333196      0.350163996     -0.606999993       382.943237       1.57917929    
   1.31216300      0.349725991     -0.303487003       215.493042       1.58880770    
   1.31333196      0.350163996     -0.606999993       215.493042       1.58880770    
   1.34573400      0.195616007     -0.606999993       215.493042       1.58880770    
   1.34464097      0.195331007     -0.303496003       215.493042       1.58880770    
   1.31216300      0.349725991     -0.303487003       421.923615       1.57897890    
   1.31339800      0.349945009       0.00000000       421.923615       1.57897890    
   1.26751196      0.501209974       0.00000000       421.923615       1.57897890    
   1.26341999      0.500032008     -0.303494006       421.923615       1.57897890    
   1.26751196      0.501209974       0.00000000       593.607239       1.57570875    
   1.19658697      0.643051028       0.00000000       593.607239       1.57570875    
   1.19583094      0.642783999     -0.303505003       593.607239       1.57570875    
   1.26341999      0.500032008     -0.303494006       593.607239       1.57570875    
   1.19583094      0.642783999     -0.303505003       676.922485       1.57376659    
   1.11495602      0.778467000     -0.303483993       676.922485       1.57376659    
   1.11731696      0.779847026     -0.606999993       676.922485       1.57376659    
   1.19653296      0.643149972     -0.606999993       676.922485       1.57376659    
   1.19583094      0.642783999     -0.303505003       527.509399       1.57573938    
   1.19653296      0.643149972     -0.606999993       527.509399       1.57573938    
   1.26736605      0.501691997     -0.606999993       527.509399       1.57573938    
   1.26341999      0.500032008     -0.303494006       527.509399       1.57573938    
   1.19583094      0.642783999     -0.303505003       748.787476       1.57400024    
   1.19658697      0.643051028       0.00000000       748.787476       1.57400024    
   1.11705506      0.780165970       0.00000000       748.787476       1.57400024    
   1.11495602      0.778467000     -0.303483993       748.787476       1.57400024    
   1.11705506      0.780165970       0.00000000       888.006287       1.57297349    
   1.01674199      0.902397990       0.00000000       888.006287       1.57297349    
   1.01591504      0.901737988     -0.303478003       888.006287       1.57297349    
   1.11495602      0.778467000     -0.303483993       888.006287       1.57297349    
   1.01591504      0.901737988     -0.303478003       932.472046       1.57186317    
  0.904204011       1.01322901     -0.303456992       932.472046       1.57186317    
  0.905143023       1.01448905     -0.606999993       932.472046       1.57186317    
   1.01659799      0.902572989     -0.606999993       932.472046       1.57186317    
   1.01591504      0.901737988     -0.303478003       814.384216       1.57261050    
   1.01659799      0.902572989     -0.606999993       814.384216       1.57261050    
   1.11731696      0.779847026     -0.606999993       814.384216       1.57261050    
   1.11495602      0.778467000     -0.303483993       814.384216       1.57261050    
   1.01591504      0.901737988     -0.303478003       1017.56195       1.57227743    
   1.01674199      0.902397990       0.00000000       1017.56195       1.57227743    
  0.905318975       1.01434398       0.00000000       1017.56195       1.57227743    
  0.904204011       1.01322901     -0.303456992       1017.56195       1.57227743    
  0.905318975       1.01434398       0.00000000       1140.64185       1.57177496    
  0.782918990       1.11479497       0.00000000       1140.64185       1.57177496    
  0.780644000       1.11195600     -0.303485006       1140.64185       1.57177496    
  0.904204011       1.01322901     -0.303456992       1140.64185       1.57177496    
  0.780644000       1.11195600     -0.303485006       1123.78015       1.57098150    
  0.645825028       1.19414902     -0.303514004       1123.78015       1.57098150    
  0.646153986       1.19492805     -0.606999993       1123.78015       1.57098150    
  0.782611012       1.11504900     -0.606999993       1123.78015       1.57098150    
  0.780644000       1.11195600     -0.303485006       1035.82214       1.57134140    
  0.782611012       1.11504900     -0.606999993       1035.82214       1.57134140    
  0.905143023       1.01448905     -0.606999993       1035.82214       1.57134140    
  0.904204011       1.01322901     -0.303456992       1035.82214       1.57134140    
  0.780644000       1.11195600     -0.303485006       1236.69507       1.57143939    
  0.782918990       1.11479497       0.00000000       1236.69507       1.57143939    
  0.646345019       1.19482601       0.00000000       1236.69507       1.57143939    
  0.645825028       1.19414902     -0.303514004       1236.69507       1.57143939    
  0.646345019       1.19482601       0.00000000       1309.46033       1.57120836    
  0.504974008       1.26637006       0.00000000       1309.46033       1.57120836    
  0.503772974       1.26314998     -0.303521991       1309.46033       1.57120836    
  0.645825028       1.19414902     -0.303514004       1309.46033       1.57120836    
  0.503772974       1.26314998     -0.303521991       1257.62378       1.57054269    
  0.353130996       1.31116498     -0.303510994       1257.62378       1.57054269    
  0.353300005       1.31237996     -0.606999993       1257.62378       1.57054269    
  0.505183995       1.26630700     -0.606999993       1257.62378       1.57054269    
  0.503772974       1.26314998     -0.303521991       1199.39795       1.57071722    
  0.505183995       1.26630700     -0.606999993       1199.39795       1.57071722    
  0.646153986       1.19492805     -0.606999993       1199.39795       1.57071722    
  0.645825028       1.19414902     -0.303514004       1199.39795       1.57071722    
  0.503772974       1.26314998     -0.303521991       1370.51221       1.57104647    
  0.504974008       1.26637006       0.00000000       1370.51221       1.57104647    
  0.353493989       1.31232095       0.00000000       1370.51221       1.57104647    
  0.353130996       1.31116498     -0.303510994       1370.51221       1.57104647    
  0.353493989       1.31232095       0.00000000       1415.52673       1.57094765    
  0.199064001       1.34539402       0.00000000       1415.52673       1.57094765    
  0.198755994       1.34360003     -0.303496003       1415.52673       1.57094765    
  0.353130996       1.31116498     -0.303510994       1415.52673       1.57094765    
  0.198755994       1.34360003     -0.303496003       1311.21448       1.57039297    
   4.12769988E-02   1.35817802     -0.303508013       1311.21448       1.57039297    
   4.12410013E-02   1.36093795     -0.606999993       1311.21448       1.57039297    
  0.199025005       1.34539795     -0.606999993       1311.21448       1.57039297    
  0.198755994       1.34360003     -0.303496003       1298.51953       1.57043898    
  0.199025005       1.34539795     -0.606999993       1298.51953       1.57043898    
  0.353300005       1.31237996     -0.606999993       1298.51953       1.57043898    
  0.353130996       1.31116498     -0.303510994       1298.51953       1.57043898    
  0.198755994       1.34360003     -0.303496003       1440.60754       1.57089865    
  0.199064001       1.34539402       0.00000000       1440.60754       1.57089865    
   4.17769998E-02   1.36088502       0.00000000       1440.60754       1.57089865    
   4.12769988E-02   1.35817802     -0.303508013       1440.60754       1.57089865    
   4.17769998E-02   1.36088502       0.00000000       1452.46509       1.57089520    
 -0.116410002       1.35353506       0.00000000       1452.46509       1.57089520    
 -0.116471998       1.35271096     -0.303496987       1452.46509       1.57089520    
   4.12769988E-02   1.35817802     -0.303508013       1452.46509       1.57089520    
 -0.116471998       1.35271096     -0.303496987       1320.88391       1.57043314    
 -0.273027003       1.33229196     -0.303496003       1320.88391       1.57043314    
 -0.273876995       1.33647299     -0.606999993       1320.88391       1.57043314    
 -0.116722003       1.35350394     -0.606999993       1320.88391       1.57043314    
 -0.116471998       1.35271096     -0.303496987       1316.61633       1.57040107    
 -0.116722003       1.35350394     -0.606999993       1316.61633       1.57040107    
   4.12410013E-02   1.36093795     -0.606999993       1316.61633       1.57040107    
   4.12769988E-02   1.35817802     -0.303508013       1316.61633       1.57040107    
 -0.116471998       1.35271096     -0.303496987       1438.43958       1.57094526    
 -0.116410002       1.35353506       0.00000000       1438.43958       1.57094526    
 -0.274069011       1.33641505       0.00000000       1438.43958       1.57094526    
 -0.273027003       1.33229196     -0.303496003       1438.43958       1.57094526    
 -0.274069011       1.33641505       0.00000000       1406.43164       1.57104445    
 -0.425588995       1.29045200       0.00000000       1406.43164       1.57104445    
 -0.425258011       1.28953803     -0.303507000       1406.43164       1.57104445    
 -0.273027003       1.33229196     -0.303496003       1406.43164       1.57104445    
 -0.425258011       1.28953803     -0.303507000       1247.71594       1.57072747    
 -0.572302997       1.23206902     -0.303485990       1247.71594       1.57072747    
 -0.573064029       1.23399496     -0.606999993       1247.71594       1.57072747    
 -0.425651014       1.29043305     -0.606999993       1247.71594       1.57072747    
 -0.425258011       1.28953803     -0.303507000       1292.58887       1.57054484    
 -0.425651014       1.29043305     -0.606999993       1292.58887       1.57054484    
 -0.273876995       1.33647299     -0.606999993       1292.58887       1.57054484    
 -0.273027003       1.33229196     -0.303496003       1292.58887       1.57054484    
 -0.425258011       1.28953803     -0.303507000       1353.72339       1.57121408    
 -0.425588995       1.29045200       0.00000000       1353.72339       1.57121408    
 -0.573195994       1.23392498       0.00000000       1353.72339       1.57121408    
 -0.572302997       1.23206902     -0.303485990       1353.72339       1.57121408    
 -0.573195994       1.23392498       0.00000000       1281.66418       1.57145107    
 -0.712655008       1.15938199       0.00000000       1281.66418       1.57145107    
 -0.711889029       1.15749002     -0.303496003       1281.66418       1.57145107    
 -0.572302997       1.23206902     -0.303485990       1281.66418       1.57145107    
 -0.711889029       1.15749002     -0.303496003       1107.35559       1.57132173    
 -0.840825975       1.06629205     -0.303485990       1107.35559       1.57132173    
 -0.841368973       1.06682706     -0.606999993       1107.35559       1.57132173    
 -0.712980986       1.15920806     -0.606999993       1107.35559       1.57132173    
 -0.711889029       1.15749002     -0.303496003       1184.33508       1.57097542    
 -0.712980986       1.15920806     -0.606999993       1184.33508       1.57097542    
 -0.573064029       1.23399496     -0.606999993       1184.33508       1.57097542    
 -0.572302997       1.23206902     -0.303485990       1184.33508       1.57097542    
 -0.711889029       1.15749002     -0.303496003       1196.03955       1.57177579    
 -0.712655008       1.15938199       0.00000000       1196.03955       1.57177579    
 -0.841165006       1.06699395       0.00000000       1196.03955       1.57177579    
 -0.840825975       1.06629205     -0.303485990       1196.03955       1.57177579    
 -0.841165006       1.06699395       0.00000000       1091.21899       1.57222021    
 -0.963320017      0.966744006       0.00000000       1091.21899       1.57222021    
 -0.960084975      0.962615013     -0.303470999       1091.21899       1.57222021    
 -0.840825975       1.06629205     -0.303485990       1091.21899       1.57222021    
 -0.960084975      0.962615013     -0.303470999       903.201660       1.57245123    
  -1.06383705      0.843237996     -0.303481996       903.201660       1.57245123    
  -1.06481802      0.843816996     -0.606999993       903.201660       1.57245123    
 -0.963873982      0.966289997     -0.606999993       903.201660       1.57245123    
 -0.960084975      0.962615013     -0.303470999       1010.44360       1.57180214    
 -0.963873982      0.966289997     -0.606999993       1010.44360       1.57180214    
 -0.841368973       1.06682706     -0.606999993       1010.44360       1.57180214    
 -0.840825975       1.06629205     -0.303485990       1010.44360       1.57180214    
 -0.960084975      0.962615013     -0.303470999       976.769165       1.57281446    
 -0.963320017      0.966744006       0.00000000       976.769165       1.57281446    
  -1.06464398      0.844029009       0.00000000       976.769165       1.57281446    
  -1.06383705      0.843237996     -0.303481996       976.769165       1.57281446    
  -1.06464398      0.844029009       0.00000000       843.246643       1.57370496    
  -1.15769398      0.715813994       0.00000000       843.246643       1.57370496    
  -1.15564799      0.714680016     -0.303483993       843.246643       1.57370496    
  -1.06383705      0.843237996     -0.303481996       843.246643       1.57370496    
  -1.15564799      0.714680016     -0.303483993       655.342590       1.57478595    
  -1.23108304      0.575536013     -0.303514004       655.342590       1.57478595    
  -1.23232996      0.576179981     -0.606999993       655.342590       1.57478595    
  -1.15756094      0.716063023     -0.606999993       655.342590       1.57478595    
  -1.15564799      0.714680016     -0.303483993       783.581787       1.57340014    
  -1.15756094      0.716063023     -0.606999993       783.581787       1.57340014    
  -1.06481802      0.843816996     -0.606999993       783.581787       1.57340014    
  -1.06383705      0.843237996     -0.303481996       783.581787       1.57340014    
  -1.15564799      0.714680016     -0.303483993       699.581482       1.57502496    
  -1.15769398      0.715813994       0.00000000       699.581482       1.57502496    
  -1.23224795      0.576331973       0.00000000       699.581482       1.57502496    
  -1.23108304      0.575536013     -0.303514004       699.581482       1.57502496    
  -1.23224795      0.576331973       0.00000000       545.987305       1.57720590    
  -1.28948605      0.428772002       0.00000000       545.987305       1.57720590    
  -1.28842103      0.428404987     -0.303512990       545.987305       1.57720590    
  -1.23108304      0.575536013     -0.303514004       545.987305       1.57720590    
  -1.28842103      0.428404987     -0.303512990       357.697388       1.58162582    
  -1.33082402      0.275959998     -0.303492010       357.697388       1.58162582    
  -1.33550000      0.277083993     -0.606999993       357.697388       1.58162582    