 VARIABLES="X" "Y" "Z" "abs(p) (Pa)" "angle(p) (rad)"
ZONE N=   2720,E =    2069, F=FEPOINT, ET=QUADRILATERAL
 -0.767116010      -1.12776399       0.00000000       1435.21423      -1.58372808    
 -0.769354999      -1.12002099     -0.303523988       1435.21423      -1.58372808    
 -0.896136999      -1.02028203     -0.303463012       1435.21423      -1.58372808    
 -0.894908011      -1.02288902       0.00000000       1435.21423      -1.58372808    
 -0.767116010      -1.12776399       0.00000000       1553.03296      -1.58327889    
 -0.630888999      -1.20308697       0.00000000       1553.03296      -1.58327889    
 -0.635528028      -1.19958198     -0.303541005       1553.03296      -1.58327889    
 -0.769354999      -1.12002099     -0.303523988       1553.03296      -1.58327889    
 -0.635528028      -1.19958198     -0.303541005       1492.24109      -1.58524442    
 -0.495362997      -1.26606500     -0.303519011       1492.24109      -1.58524442    
 -0.499298006      -1.26809204     -0.606999993       1492.24109      -1.58524442    
 -0.640147984      -1.19813800     -0.606998026       1492.24109      -1.58524442    
 -0.635528028      -1.19958198     -0.303541005       1401.11694      -1.58563590    
 -0.640147984      -1.19813800     -0.606998026       1401.11694      -1.58563590    
 -0.777105987      -1.11956596     -0.606999993       1401.11694      -1.58563590    
 -0.769354999      -1.12002099     -0.303523988       1401.11694      -1.58563590    
 -0.635528028      -1.19958198     -0.303541005       1640.19177      -1.58300340    
 -0.630888999      -1.20308697       0.00000000       1640.19177      -1.58300340    
 -0.494486004      -1.26955199       0.00000000       1640.19177      -1.58300340    
 -0.495362997      -1.26606500     -0.303519011       1640.19177      -1.58300340    
 -0.494486004      -1.26955199       0.00000000       1714.79980      -1.58275890    
 -0.346311986      -1.31449997       0.00000000       1714.79980      -1.58275890    
 -0.346753001      -1.31307304     -0.303510010       1714.79980      -1.58275890    
 -0.495362997      -1.26606500     -0.303519011       1714.79980      -1.58275890    
 -0.346753001      -1.31307304     -0.303510010       1612.84180      -1.58474398    
 -0.193608001      -1.34425998     -0.303494990       1612.84180      -1.58474398    
 -0.195028007      -1.34579206     -0.606999993       1612.84180      -1.58474398    
 -0.348751009      -1.31376004     -0.606999993       1612.84180      -1.58474398    
 -0.346753001      -1.31307304     -0.303510010       1561.40686      -1.58496499    
 -0.348751009      -1.31376004     -0.606999993       1561.40686      -1.58496499    
 -0.499298006      -1.26809204     -0.606999993       1561.40686      -1.58496499    
 -0.495362997      -1.26606500     -0.303519011       1561.40686      -1.58496499    
 -0.346753001      -1.31307304     -0.303510010       1770.68018      -1.58256638    
 -0.346311986      -1.31449997       0.00000000       1770.68018      -1.58256638    
 -0.193381995      -1.34595394       0.00000000       1770.68018      -1.58256638    
 -0.193608001      -1.34425998     -0.303494990       1770.68018      -1.58256638    
 -0.193381995      -1.34595394       0.00000000       1813.33740      -1.58239722    
  -3.75179984E-02  -1.36130500       0.00000000       1813.33740      -1.58239722    
  -3.73950005E-02  -1.35827899     -0.303512007       1813.33740      -1.58239722    
 -0.193608001      -1.34425998     -0.303494990       1813.33740      -1.58239722    
  -3.73950005E-02  -1.35827899     -0.303512007       1646.76587      -1.58455455    
  0.119547002      -1.35239303     -0.303498000       1646.76587      -1.58455455    
  0.119135000      -1.35326600     -0.606999993       1646.76587      -1.58455455    
  -3.82840000E-02  -1.36122894     -0.606998980       1646.76587      -1.58455455    
  -3.73950005E-02  -1.35827899     -0.303512007       1642.36133      -1.58461213    
  -3.82840000E-02  -1.36122894     -0.606998980       1642.36133      -1.58461213    
 -0.195028007      -1.34579206     -0.606999993       1642.36133      -1.58461213    
 -0.193608001      -1.34425998     -0.303494990       1642.36133      -1.58461213    
  -3.73950005E-02  -1.35827899     -0.303512007       1821.75916      -1.58233297    
  -3.75179984E-02  -1.36130500       0.00000000       1821.75916      -1.58233297    
  0.119788997      -1.35320199       0.00000000       1821.75916      -1.58233297    
  0.119547002      -1.35239303     -0.303498000       1821.75916      -1.58233297    
  0.119788997      -1.35320199       0.00000000       1806.24438      -1.58233368    
  0.276576012      -1.33565402       0.00000000       1806.24438      -1.58233368    
  0.275435001      -1.33191597     -0.303496003       1806.24438      -1.58233368    
  0.119547002      -1.35239303     -0.303498000       1806.24438      -1.58233368    
  0.275435001      -1.33191597     -0.303496003       1625.41675      -1.58442211    
  0.427076995      -1.28898001     -0.303507000       1625.41675      -1.58442211    
  0.427242011      -1.28995001     -0.606999993       1625.41675      -1.58442211    
  0.275831014      -1.33588004     -0.606999993       1625.41675      -1.58442211    
  0.275435001      -1.33191597     -0.303496003       1660.05859      -1.58437920    
  0.275831014      -1.33588004     -0.606999993       1660.05859      -1.58437920    
  0.119135000      -1.35326600     -0.606999993       1660.05859      -1.58437920    
  0.119547002      -1.35239303     -0.303498000       1660.05859      -1.58437920    
  0.275435001      -1.33191597     -0.303496003       1767.81531      -1.58238745    
  0.276576012      -1.33565402       0.00000000       1767.81531      -1.58238745    
  0.427509993      -1.28986895       0.00000000       1767.81531      -1.58238745    
  0.427076995      -1.28898001     -0.303507000       1767.81531      -1.58238745    
  0.427509993      -1.28986895       0.00000000       1705.25500      -1.58248532    
  0.574636996      -1.23315501       0.00000000       1705.25500      -1.58248532    
  0.573706985      -1.23136795     -0.303485990       1705.25500      -1.58248532    
  0.427076995      -1.28898001     -0.303507000       1705.25500      -1.58248532    
  0.573706985      -1.23136795     -0.303485990       1489.03967      -1.58472228    
  0.712854981      -1.15688002     -0.303496987       1489.03967      -1.58472228    
  0.713809013      -1.15876603     -0.606999993       1489.03967      -1.58472228    
  0.574283004      -1.23334301     -0.606999993       1489.03967      -1.58472228    
  0.573706985      -1.23136795     -0.303485990       1569.55103      -1.58450985    
  0.574283004      -1.23334301     -0.606999993       1569.55103      -1.58450985    
  0.427242011      -1.28995001     -0.606999993       1569.55103      -1.58450985    
  0.427076995      -1.28898001     -0.303507000       1569.55103      -1.58450985    
  0.573706985      -1.23136795     -0.303485990       1617.37634      -1.58267832    
  0.574636996      -1.23315501       0.00000000       1617.37634      -1.58267832    
  0.713741004      -1.15880203       0.00000000       1617.37634      -1.58267832    
  0.712854981      -1.15688002     -0.303496987       1617.37634      -1.58267832    
  0.713741004      -1.15880203       0.00000000       1512.35315      -1.58293724    
  0.841937006      -1.06636095       0.00000000       1512.35315      -1.58293724    
  0.841498017      -1.06573403     -0.303485990       1512.35315      -1.58293724    
  0.712854981      -1.15688002     -0.303496987       1512.35315      -1.58293724    
  0.841498017      -1.06573403     -0.303485990       1273.33667      -1.58543360    
  0.960639000     -0.962104976     -0.303470999       1273.33667      -1.58543360    
  0.964356005     -0.965893984     -0.606999993       1273.33667      -1.58543360    
  0.841796994      -1.06647599     -0.606999993       1273.33667      -1.58543360    
  0.841498017      -1.06573403     -0.303485990       1391.74243      -1.58500183    
  0.841796994      -1.06647599     -0.606999993       1391.74243      -1.58500183    
  0.713809013      -1.15876603     -0.606999993       1391.74243      -1.58500183    
  0.712854981      -1.15688002     -0.303496987       1391.74243      -1.58500183    
  0.841498017      -1.06573403     -0.303485990       1400.74927      -1.58324039    
  0.841937006      -1.06636095       0.00000000       1400.74927      -1.58324039    
  0.963932991     -0.966242015       0.00000000       1400.74927      -1.58324039    
  0.960639000     -0.962104976     -0.303470999       1400.74927      -1.58324039    
  0.963932991     -0.966242015       0.00000000       1259.64893      -1.58376849    
   1.06506598     -0.843514979       0.00000000       1259.64893      -1.58376849    
   1.06428695     -0.842682004     -0.303481996       1259.64893      -1.58376849    
  0.960639000     -0.962104976     -0.303470999       1259.64893      -1.58376849    
   1.06428695     -0.842682004     -0.303481996       1035.42627      -1.58630061    
   1.15591598     -0.714210987     -0.303485006       1035.42627      -1.58630061    
   1.15788805     -0.715448976     -0.606999993       1035.42627      -1.58630061    
   1.06537795     -0.843134999     -0.606999993       1035.42627      -1.58630061    
   1.06428695     -0.842682004     -0.303481996       1143.42798      -1.58600831    
   1.06537795     -0.843134999     -0.606999993       1143.42798      -1.58600831    
  0.964356005     -0.965893984     -0.606999993       1143.42798      -1.58600831    
  0.960639000     -0.962104976     -0.303470999       1143.42798      -1.58600831    
   1.06428695     -0.842682004     -0.303481996       1094.82947      -1.58455944    
   1.06506598     -0.843514979       0.00000000       1094.82947      -1.58455944    
   1.15792501     -0.715381980       0.00000000       1094.82947      -1.58455944    
   1.15591598     -0.714210987     -0.303485006       1094.82947      -1.58455944    
   1.15792501     -0.715381980       0.00000000       917.687439      -1.58576882    
   1.23237598     -0.576093972       0.00000000       917.687439      -1.58576882    
   1.23120904     -0.575251997     -0.303514004       917.687439      -1.58576882    
   1.15591598     -0.714210987     -0.303485006       917.687439      -1.58576882    
   1.23120904     -0.575251997     -0.303514004       700.489868      -1.58926654    
   1.28844094     -0.428344995     -0.303512990       700.489868      -1.58926654    
   1.28952503     -0.428642988     -0.606999993       700.489868      -1.58926654    
   1.23252702     -0.575810015     -0.606999993       700.489868      -1.58926654    
   1.23120904     -0.575251997     -0.303514004       873.263184      -1.58745253    
   1.23252702     -0.575810015     -0.606999993       873.263184      -1.58745253    
   1.15788805     -0.715448976     -0.606999993       873.263184      -1.58745253    
   1.15591598     -0.714210987     -0.303485006       873.263184      -1.58745253    
   1.23120904     -0.575251997     -0.303514004       773.468018      -1.58686733    
   1.23237598     -0.576093972       0.00000000       773.468018      -1.58686733    
   1.28947699     -0.428801000       0.00000000       773.468018      -1.58686733    
   1.28844094     -0.428344995     -0.303512990       773.468018      -1.58686733    
   1.28947699     -0.428801000       0.00000000       553.643982      -1.59040844    
   1.33532202     -0.277671993       0.00000000       553.643982      -1.59040844    
   1.33076501     -0.276203990     -0.303492010       553.643982      -1.59040844    
   1.28844094     -0.428344995     -0.303512990       553.643982      -1.59040844    
   1.33076501     -0.276203990     -0.303492010       351.509827      -1.59805441    
   1.35229194     -0.119709998     -0.303514004       351.509827      -1.59805441    
   1.35321999     -0.119608998     -0.606999993       351.509827      -1.59805441    
   1.33549094     -0.277112991     -0.606999993       351.509827      -1.59805441    
   1.33076501     -0.276203990     -0.303492010       520.765442      -1.59241843    
   1.33549094     -0.277112991     -0.606999993       520.765442      -1.59241843    
   1.28952503     -0.428642988     -0.606999993       520.765442      -1.59241843    
   1.28844094     -0.428344995     -0.303512990       520.765442      -1.59241843    
   1.33076501     -0.276203990     -0.303492010       309.241241      -1.60072756    
   1.33532202     -0.277671993       0.00000000       309.241241      -1.60072756    
   1.35319102     -0.119900003       0.00000000       309.241241      -1.60072756    
   1.35229194     -0.119709998     -0.303514004       309.241241      -1.60072756    
   1.35319102     -0.119900003       0.00000000       97.3083801      -1.64982474    
   1.36124396       3.81390005E-02   0.00000000       97.3083801      -1.64982474    
   1.35858905       3.79349999E-02 -0.303501010       97.3083801      -1.64982474    
   1.35229194     -0.119709998     -0.303514004       97.3083801      -1.64982474    
   1.35858905       3.79349999E-02 -0.303501010       70.2218246       1.65618539    
   1.34464097      0.195331007     -0.303496003       70.2218246       1.65618539    
   1.34573400      0.195616007     -0.606999993       70.2218246       1.65618539    
   1.36126804       3.78950015E-02 -0.606999993       70.2218246       1.65618539    
   1.35858905       3.79349999E-02 -0.303501010       115.620941      -1.63747740    
   1.36126804       3.78950015E-02 -0.606999993       115.620941      -1.63747740    
   1.35321999     -0.119608998     -0.606999993       115.620941      -1.63747740    
   1.35229194     -0.119709998     -0.303514004       115.620941      -1.63747740    
   1.35858905       3.79349999E-02 -0.303501010       96.0152054       1.63503909    
   1.36124396       3.81390005E-02   0.00000000       96.0152054       1.63503909    
   1.34575403      0.195406005       0.00000000       96.0152054       1.63503909    
   1.34464097      0.195331007     -0.303496003       96.0152054       1.63503909    
   1.34575403      0.195406005       0.00000000       303.527771       1.58608913    
   1.31339800      0.349945009       0.00000000       303.527771       1.58608913    
   1.31216300      0.349725991     -0.303487003       303.527771       1.58608913    
   1.34464097      0.195331007     -0.303496003       303.527771       1.58608913    
   1.31216300      0.349725991     -0.303487003       460.145416       1.57627201    
   1.26341999      0.500032008     -0.303494006       460.145416       1.57627201    
   1.26736605      0.501691997     -0.606999993       460.145416       1.57627201    
   1.31333196      0.350163996     -0.606999993       460.145416       1.57627201    
   1.31216300      0.349725991     -0.303487003       258.025787       1.58736861    
   1.31333196      0.350163996     -0.606999993       258.025787       1.58736861    
   1.34573400      0.195616007     -0.606999993       258.025787       1.58736861    
   1.34464097      0.195331007     -0.303496003       258.025787       1.58736861    
   1.31216300      0.349725991     -0.303487003       507.506073       1.57699430    
   1.31339800      0.349945009       0.00000000       507.506073       1.57699430    
   1.26751196      0.501209974       0.00000000       507.506073       1.57699430    
   1.26341999      0.500032008     -0.303494006       507.506073       1.57699430    
   1.26751196      0.501209974       0.00000000       714.845520       1.57323349    
   1.19658697      0.643051028       0.00000000       714.845520       1.57323349    
   1.19583094      0.642783999     -0.303505003       714.845520       1.57323349    
   1.26341999      0.500032008     -0.303494006       714.845520       1.57323349    
   1.19583094      0.642783999     -0.303505003       815.013184       1.57004976    
   1.11495602      0.778467000     -0.303483993       815.013184       1.57004976    
   1.11731696      0.779847026     -0.606999993       815.013184       1.57004976    
   1.19653296      0.643149972     -0.606999993       815.013184       1.57004976    
   1.19583094      0.642783999     -0.303505003       634.652222       1.57228982    
   1.19653296      0.643149972     -0.606999993       634.652222       1.57228982    
   1.26736605      0.501691997     -0.606999993       634.652222       1.57228982    
   1.26341999      0.500032008     -0.303494006       634.652222       1.57228982    
   1.19583094      0.642783999     -0.303505003       902.252380       1.57122946    
   1.19658697      0.643051028       0.00000000       902.252380       1.57122946    
   1.11705506      0.780165970       0.00000000       902.252380       1.57122946    
   1.11495602      0.778467000     -0.303483993       902.252380       1.57122946    
   1.11705506      0.780165970       0.00000000       1070.41321       1.57002938    
   1.01674199      0.902397990       0.00000000       1070.41321       1.57002938    
   1.01591504      0.901737988     -0.303478003       1070.41321       1.57002938    
   1.11495602      0.778467000     -0.303483993       1070.41321       1.57002938    
   1.01591504      0.901737988     -0.303478003       1123.44519       1.56790054    
  0.904204011       1.01322901     -0.303456992       1123.44519       1.56790054    
  0.905143023       1.01448905     -0.606999993       1123.44519       1.56790054    
   1.01659799      0.902572989     -0.606999993       1123.44519       1.56790054    
   1.01591504      0.901737988     -0.303478003       980.923767       1.56875777    
   1.01659799      0.902572989     -0.606999993       980.923767       1.56875777    
   1.11731696      0.779847026     -0.606999993       980.923767       1.56875777    
   1.11495602      0.778467000     -0.303483993       980.923767       1.56875777    
   1.01591504      0.901737988     -0.303478003       1226.87500       1.56921971    
   1.01674199      0.902397990       0.00000000       1226.87500       1.56921971    
  0.905318975       1.01434398       0.00000000       1226.87500       1.56921971    
  0.904204011       1.01322901     -0.303456992       1226.87500       1.56921971    
  0.905318975       1.01434398       0.00000000       1375.52234       1.56864655    
  0.782918990       1.11479497       0.00000000       1375.52234       1.56864655    
  0.780644000       1.11195600     -0.303485006       1375.52234       1.56864655    
  0.904204011       1.01322901     -0.303456992       1375.52234       1.56864655    
  0.780644000       1.11195600     -0.303485006       1354.37817       1.56687903    
  0.645825028       1.19414902     -0.303514004       1354.37817       1.56687903    
  0.646153986       1.19492805     -0.606999993       1354.37817       1.56687903    
  0.782611012       1.11504900     -0.606999993       1354.37817       1.56687903    
  0.780644000       1.11195600     -0.303485006       1248.19116       1.56728923    
  0.782611012       1.11504900     -0.606999993       1248.19116       1.56728923    
  0.905143023       1.01448905     -0.606999993       1248.19116       1.56728923    
  0.904204011       1.01322901     -0.303456992       1248.19116       1.56728923    
  0.780644000       1.11195600     -0.303485006       1491.50574       1.56825125    
  0.782918990       1.11479497       0.00000000       1491.50574       1.56825125    
  0.646345019       1.19482601       0.00000000       1491.50574       1.56825125    
  0.645825028       1.19414902     -0.303514004       1491.50574       1.56825125    
  0.646345019       1.19482601       0.00000000       1579.42517       1.56797063    
  0.504974008       1.26637006       0.00000000       1579.42517       1.56797063    
  0.503772974       1.26314998     -0.303521991       1579.42517       1.56797063    
  0.645825028       1.19414902     -0.303514004       1579.42517       1.56797063    
  0.503772974       1.26314998     -0.303521991       1515.94446       1.56638896    
  0.353130996       1.31116498     -0.303510994       1515.94446       1.56638896    
  0.353300005       1.31237996     -0.606999993       1515.94446       1.56638896    
  0.505183995       1.26630700     -0.606999993       1515.94446       1.56638896    
  0.503772974       1.26314998     -0.303521991       1445.65295       1.56657839    
  0.505183995       1.26630700     -0.606999993       1445.65295       1.56657839    
  0.646153986       1.19492805     -0.606999993       1445.65295       1.56657839    
  0.645825028       1.19414902     -0.303514004       1445.65295       1.56657839    
  0.503772974       1.26314998     -0.303521991       1653.16370       1.56778920    
  0.504974008       1.26637006       0.00000000       1653.16370       1.56778920    
  0.353493989       1.31232095       0.00000000       1653.16370       1.56778920    
  0.353130996       1.31116498     -0.303510994       1653.16370       1.56778920    
  0.353493989       1.31232095       0.00000000       1707.51868       1.56768751    
  0.199064001       1.34539402       0.00000000       1707.51868       1.56768751    
  0.198755994       1.34360003     -0.303496003       1707.51868       1.56768751    
  0.353130996       1.31116498     -0.303510994       1707.51868       1.56768751    
  0.198755994       1.34360003     -0.303496003       1580.69458       1.56622696    
   4.12769988E-02   1.35817802     -0.303508013       1580.69458       1.56622696    
   4.12410013E-02   1.36093795     -0.606999993       1580.69458       1.56622696    
  0.199025005       1.34539795     -0.606999993       1580.69458       1.56622696    
  0.198755994       1.34360003     -0.303496003       1565.32849       1.56628895    
  0.199025005       1.34539795     -0.606999993       1565.32849       1.56628895    
  0.353300005       1.31237996     -0.606999993       1565.32849       1.56628895    
  0.353130996       1.31116498     -0.303510994       1565.32849       1.56628895    
  0.198755994       1.34360003     -0.303496003       1737.80786       1.56764364    
  0.199064001       1.34539402       0.00000000       1737.80786       1.56764364    
   4.17769998E-02   1.36088502       0.00000000       1737.80786       1.56764364    
   4.12769988E-02   1.35817802     -0.303508013       1737.80786       1.56764364    
   4.17769998E-02   1.36088502       0.00000000       1752.20349       1.56766558    
 -0.116410002       1.35353506       0.00000000       1752.20349       1.56766558    
 -0.116471998       1.35271096     -0.303496987       1752.20349       1.56766558    
   4.12769988E-02   1.35817802     -0.303508013       1752.20349       1.56766558    
 -0.116471998       1.35271096     -0.303496987       1592.41052       1.56634331    
 -0.273027003       1.33229196     -0.303496003       1592.41052       1.56634331    
 -0.273876995       1.33647299     -0.606999993       1592.41052       1.56634331    
 -0.116722003       1.35350394     -0.606999993       1592.41052       1.56634331    
 -0.116471998       1.35271096     -0.303496987       1587.24146       1.56625795    
 -0.116722003       1.35350394     -0.606999993       1587.24146       1.56625795    
   4.12410013E-02   1.36093795     -0.606999993       1587.24146       1.56625795    
   4.12769988E-02   1.35817802     -0.303508013       1587.24146       1.56625795    
 -0.116471998       1.35271096     -0.303496987       1735.36572       1.56773877    
 -0.116410002       1.35353506       0.00000000       1735.36572       1.56773877    
 -0.274069011       1.33641505       0.00000000       1735.36572       1.56773877    
 -0.273027003       1.33229196     -0.303496003       1735.36572       1.56773877    
 -0.274069011       1.33641505       0.00000000       1696.75903       1.56787753    
 -0.425588995       1.29045200       0.00000000       1696.75903       1.56787753    
 -0.425258011       1.28953803     -0.303507000       1696.75903       1.56787753    
 -0.273027003       1.33229196     -0.303496003       1696.75903       1.56787753    
 -0.425258011       1.28953803     -0.303507000       1504.11230       1.56676567    
 -0.572302997       1.23206902     -0.303485990       1504.11230       1.56676567    
 -0.573064029       1.23399496     -0.606999993       1504.11230       1.56676567    
 -0.425651014       1.29043305     -0.606999993       1504.11230       1.56676567    
 -0.425258011       1.28953803     -0.303507000       1558.26184       1.56650221    
 -0.425651014       1.29043305     -0.606999993       1558.26184       1.56650221    
 -0.273876995       1.33647299     -0.606999993       1558.26184       1.56650221    
 -0.273027003       1.33229196     -0.303496003       1558.26184       1.56650221    
 -0.425258011       1.28953803     -0.303507000       1633.05444       1.56811202    
 -0.425588995       1.29045200       0.00000000       1633.05444       1.56811202    
 -0.573195994       1.23392498       0.00000000       1633.05444       1.56811202    
 -0.572302997       1.23206902     -0.303485990       1633.05444       1.56811202    
 -0.573195994       1.23392498       0.00000000       1546.01160       1.56842673    
 -0.712655008       1.15938199       0.00000000       1546.01160       1.56842673    
 -0.711889029       1.15749002     -0.303496003       1546.01160       1.56842673    
 -0.572302997       1.23206902     -0.303485990       1546.01160       1.56842673    
 -0.711889029       1.15749002     -0.303496003       1334.70215       1.56756389    
 -0.840825975       1.06629205     -0.303485990       1334.70215       1.56756389    
 -0.841368973       1.06682706     -0.606999993       1334.70215       1.56756389    
 -0.712980986       1.15920806     -0.606999993       1334.70215       1.56756389    
 -0.711889029       1.15749002     -0.303496003       1427.60791       1.56709778    
 -0.712980986       1.15920806     -0.606999993       1427.60791       1.56709778    
 -0.573064029       1.23399496     -0.606999993       1427.60791       1.56709778    
 -0.572302997       1.23206902     -0.303485990       1427.60791       1.56709778    
 -0.711889029       1.15749002     -0.303496003       1442.56177       1.56885993    
 -0.712655008       1.15938199       0.00000000       1442.56177       1.56885993    
 -0.841165006       1.06699395       0.00000000       1442.56177       1.56885993    
 -0.840825975       1.06629205     -0.303485990       1442.56177       1.56885993    
 -0.841165006       1.06699395       0.00000000       1315.99243       1.56943536    
 -0.963320017      0.966744006       0.00000000       1315.99243       1.56943536    
 -0.960084975      0.962615013     -0.303470999       1315.99243       1.56943536    
 -0.840825975       1.06629205     -0.303485990       1315.99243       1.56943536    
 -0.960084975      0.962615013     -0.303470999       1088.30444       1.56902623    
  -1.06383705      0.843237996     -0.303481996       1088.30444       1.56902623    
  -1.06481802      0.843816996     -0.606999993       1088.30444       1.56902623    
 -0.963873982      0.966289997     -0.606999993       1088.30444       1.56902623    
 -0.960084975      0.962615013     -0.303470999       1217.72339       1.56818569    
 -0.963873982      0.966289997     -0.606999993       1217.72339       1.56818569    
 -0.841368973       1.06682706     -0.606999993       1217.72339       1.56818569    
 -0.840825975       1.06629205     -0.303485990       1217.72339       1.56818569    
 -0.960084975      0.962615013     -0.303470999       1177.75879       1.57020426    
 -0.963320017      0.966744006       0.00000000       1177.75879       1.57020426    
  -1.06464398      0.844029009       0.00000000       1177.75879       1.57020426    
  -1.06383705      0.843237996     -0.303481996       1177.75879       1.57020426    
  -1.06464398      0.844029009       0.00000000       1016.48914       1.57134891    
  -1.15769398      0.715813994       0.00000000       1016.48914       1.57134891    
  -1.15564799      0.714680016     -0.303483993       1016.48914       1.57134891    
  -1.06383705      0.843237996     -0.303481996       1016.48914       1.57134891    
  -1.15564799      0.714680016     -0.303483993       789.182129       1.57206380    
  -1.23108304      0.575536013     -0.303514004       789.182129       1.57206380    
  -1.23232996      0.576179981     -0.606999993       789.182129       1.57206380    
  -1.15756094      0.716063023     -0.606999993       789.182129       1.57206380    
  -1.15564799      0.714680016     -0.303483993       943.945801       1.57026422    
  -1.15756094      0.716063023     -0.606999993       943.945801       1.57026422    
  -1.06481802      0.843816996     -0.606999993       943.945801       1.57026422    
  -1.06383705      0.843237996     -0.303481996       943.945801       1.57026422    
  -1.15564799      0.714680016     -0.303483993       843.002869       1.57303059    
  -1.15769398      0.715813994       0.00000000       843.002869       1.57303059    
  -1.23224795      0.576331973       0.00000000       843.002869       1.57303059    
  -1.23108304      0.575536013     -0.303514004       843.002869       1.57303059    
  -1.23224795      0.576331973       0.00000000       657.530640       1.57580602    
  -1.28948605      0.428772002       0.00000000       657.530640       1.57580602    
  -1.28842103      0.428404987     -0.303512990       657.530640       1.57580602    
  -1.23108304      0.575536013     -0.303514004       657.530640       1.57580602    
  -1.28842103      0.428404987     -0.303512990       429.901733       1.58076406    
  -1.33082402      0.275959998     -0.303492010       429.901733       1.58076406    
  -1.33550000      0.277083993     -0.606999993       429.901733       1.58076406    