 VARIABLES="X" "Y" "Z" "abs(p) (Pa)" "angle(p) (rad)"
ZONE N=   2720,E =    2069, F=FEPOINT, ET=QUADRILATERAL
 -0.767116010      -1.12776399       0.00000000       5.58642817      -1.57238090    
 -0.769354999      -1.12002099     -0.303523988       5.58642817      -1.57238090    
 -0.896136999      -1.02028203     -0.303463012       5.58642817      -1.57238090    
 -0.894908011      -1.02288902       0.00000000       5.58642817      -1.57238090    
 -0.767116010      -1.12776399       0.00000000       5.95100975       1.57254791    
 -0.630888999      -1.20308697       0.00000000       5.95100975       1.57254791    
 -0.635528028      -1.19958198     -0.303541005       5.95100975       1.57254791    
 -0.769354999      -1.12002099     -0.303523988       5.95100975       1.57254791    
 -0.635528028      -1.19958198     -0.303541005       5.68560314      -1.57298851    
 -0.495362997      -1.26606500     -0.303519011       5.68560314      -1.57298851    
 -0.499298006      -1.26809204     -0.606999993       5.68560314      -1.57298851    
 -0.640147984      -1.19813800     -0.606998026       5.68560314      -1.57298851    
 -0.635528028      -1.19958198     -0.303541005       4.78998041       1.57305837    
 -0.640147984      -1.19813800     -0.606998026       4.78998041       1.57305837    
 -0.777105987      -1.11956596     -0.606999993       4.78998041       1.57305837    
 -0.769354999      -1.12002099     -0.303523988       4.78998041       1.57305837    
 -0.635528028      -1.19958198     -0.303541005       5.02457285      -1.57321584    
 -0.630888999      -1.20308697       0.00000000       5.02457285      -1.57321584    
 -0.494486004      -1.26955199       0.00000000       5.02457285      -1.57321584    
 -0.495362997      -1.26606500     -0.303519011       5.02457285      -1.57321584    
 -0.494486004      -1.26955199       0.00000000       4.62250137       1.57363868    
 -0.346311986      -1.31449997       0.00000000       4.62250137       1.57363868    
 -0.346753001      -1.31307304     -0.303510010       4.62250137       1.57363868    
 -0.495362997      -1.26606500     -0.303519011       4.62250137       1.57363868    
 -0.346753001      -1.31307304     -0.303510010      0.292801529      -1.62037611    
 -0.193608001      -1.34425998     -0.303494990      0.292801529      -1.62037611    
 -0.195028007      -1.34579206     -0.606999993      0.292801529      -1.62037611    
 -0.348751009      -1.31376004     -0.606999993      0.292801529      -1.62037611    
 -0.346753001      -1.31307304     -0.303510010       4.92126274       1.57357502    
 -0.348751009      -1.31376004     -0.606999993       4.92126274       1.57357502    
 -0.499298006      -1.26809204     -0.606999993       4.92126274       1.57357502    
 -0.495362997      -1.26606500     -0.303519011       4.92126274       1.57357502    
 -0.346753001      -1.31307304     -0.303510010      0.240373313      -1.62857652    
 -0.346311986      -1.31449997       0.00000000      0.240373313      -1.62857652    
 -0.193381995      -1.34595394       0.00000000      0.240373313      -1.62857652    
 -0.193608001      -1.34425998     -0.303494990      0.240373313      -1.62857652    
 -0.193381995      -1.34595394       0.00000000       3.16111636      -1.57518530    
  -3.75179984E-02  -1.36130500       0.00000000       3.16111636      -1.57518530    
  -3.73950005E-02  -1.35827899     -0.303512007       3.16111636      -1.57518530    
 -0.193608001      -1.34425998     -0.303494990       3.16111636      -1.57518530    
  -3.73950005E-02  -1.35827899     -0.303512007       2.75976920       1.57616866    
  0.119547002      -1.35239303     -0.303498000       2.75976920       1.57616866    
  0.119135000      -1.35326600     -0.606999993       2.75976920       1.57616866    
  -3.82840000E-02  -1.36122894     -0.606998980       2.75976920       1.57616866    
  -3.73950005E-02  -1.35827899     -0.303512007       2.80498362      -1.57612824    
  -3.82840000E-02  -1.36122894     -0.606998980       2.80498362      -1.57612824    
 -0.195028007      -1.34579206     -0.606999993       2.80498362      -1.57612824    
 -0.193608001      -1.34425998     -0.303494990       2.80498362      -1.57612824    
  -3.73950005E-02  -1.35827899     -0.303512007       2.54097891       1.57618058    
  -3.75179984E-02  -1.36130500       0.00000000       2.54097891       1.57618058    
  0.119788997      -1.35320199       0.00000000       2.54097891       1.57618058    
  0.119547002      -1.35239303     -0.303498000       2.54097891       1.57618058    
  0.119788997      -1.35320199       0.00000000       8.07336521      -1.57244968    
  0.276576012      -1.33565402       0.00000000       8.07336521      -1.57244968    
  0.275435001      -1.33191597     -0.303496003       8.07336521      -1.57244968    
  0.119547002      -1.35239303     -0.303498000       8.07336521      -1.57244968    
  0.275435001      -1.33191597     -0.303496003       7.19513083       1.57260847    
  0.427076995      -1.28898001     -0.303507000       7.19513083       1.57260847    
  0.427242011      -1.28995001     -0.606999993       7.19513083       1.57260847    
  0.275831014      -1.33588004     -0.606999993       7.19513083       1.57260847    
  0.275435001      -1.33191597     -0.303496003       7.85617256      -1.57257998    
  0.275831014      -1.33588004     -0.606999993       7.85617256      -1.57257998    
  0.119135000      -1.35326600     -0.606999993       7.85617256      -1.57257998    
  0.119547002      -1.35239303     -0.303498000       7.85617256      -1.57257998    
  0.275435001      -1.33191597     -0.303496003       7.21768570       1.57251525    
  0.276576012      -1.33565402       0.00000000       7.21768570       1.57251525    
  0.427509993      -1.28986895       0.00000000       7.21768570       1.57251525    
  0.427076995      -1.28898001     -0.303507000       7.21768570       1.57251525    
  0.427509993      -1.28986895       0.00000000       1.16583347      -1.58034182    
  0.574636996      -1.23315501       0.00000000       1.16583347      -1.58034182    
  0.573706985      -1.23136795     -0.303485990       1.16583347      -1.58034182    
  0.427076995      -1.28898001     -0.303507000       1.16583347      -1.58034182    
  0.573706985      -1.23136795     -0.303485990       1.03932261      -1.58033752    
  0.712854981      -1.15688002     -0.303496987       1.03932261      -1.58033752    
  0.713809013      -1.15876603     -0.606999993       1.03932261      -1.58033752    
  0.574283004      -1.23334301     -0.606999993       1.03932261      -1.58033752    
  0.573706985      -1.23136795     -0.303485990       1.23265696      -1.58024132    
  0.574283004      -1.23334301     -0.606999993       1.23265696      -1.58024132    
  0.427242011      -1.28995001     -0.606999993       1.23265696      -1.58024132    
  0.427076995      -1.28898001     -0.303507000       1.23265696      -1.58024132    
  0.573706985      -1.23136795     -0.303485990       1.13490117      -1.57922888    
  0.574636996      -1.23315501       0.00000000       1.13490117      -1.57922888    
  0.713741004      -1.15880203       0.00000000       1.13490117      -1.57922888    
  0.712854981      -1.15688002     -0.303496987       1.13490117      -1.57922888    
  0.713741004      -1.15880203       0.00000000       1.72671974       1.57531524    
  0.841937006      -1.06636095       0.00000000       1.72671974       1.57531524    
  0.841498017      -1.06573403     -0.303485990       1.72671974       1.57531524    
  0.712854981      -1.15688002     -0.303496987       1.72671974       1.57531524    
  0.841498017      -1.06573403     -0.303485990       7.55095863      -1.57155800    
  0.960639000     -0.962104976     -0.303470999       7.55095863      -1.57155800    
  0.964356005     -0.965893984     -0.606999993       7.55095863      -1.57155800    
  0.841796994      -1.06647599     -0.606999993       7.55095863      -1.57155800    
  0.841498017      -1.06573403     -0.303485990       1.88531315       1.57498050    
  0.841796994      -1.06647599     -0.606999993       1.88531315       1.57498050    
  0.713809013      -1.15876603     -0.606999993       1.88531315       1.57498050    
  0.712854981      -1.15688002     -0.303496987       1.88531315       1.57498050    
  0.841498017      -1.06573403     -0.303485990       7.67962313      -1.57157922    
  0.841937006      -1.06636095       0.00000000       7.67962313      -1.57157922    
  0.963932991     -0.966242015       0.00000000       7.67962313      -1.57157922    
  0.960639000     -0.962104976     -0.303470999       7.67962313      -1.57157922    
  0.963932991     -0.966242015       0.00000000       8.37587166       1.57128954    
   1.06506598     -0.843514979       0.00000000       8.37587166       1.57128954    
   1.06428695     -0.842682004     -0.303481996       8.37587166       1.57128954    
  0.960639000     -0.962104976     -0.303470999       8.37587166       1.57128954    
   1.06428695     -0.842682004     -0.303481996       2.38479590      -1.57146358    
   1.15591598     -0.714210987     -0.303485006       2.38479590      -1.57146358    
   1.15788805     -0.715448976     -0.606999993       2.38479590      -1.57146358    
   1.06537795     -0.843134999     -0.606999993       2.38479590      -1.57146358    
   1.06428695     -0.842682004     -0.303481996       8.19044495       1.57123530    
   1.06537795     -0.843134999     -0.606999993       8.19044495       1.57123530    
  0.964356005     -0.965893984     -0.606999993       8.19044495       1.57123530    
  0.960639000     -0.962104976     -0.303470999       8.19044495       1.57123530    
   1.06428695     -0.842682004     -0.303481996       2.24828506      -1.57181525    
   1.06506598     -0.843514979       0.00000000       2.24828506      -1.57181525    
   1.15792501     -0.715381980       0.00000000       2.24828506      -1.57181525    
   1.15591598     -0.714210987     -0.303485006       2.24828506      -1.57181525    
   1.15792501     -0.715381980       0.00000000      0.697986484       1.57153428    
   1.23237598     -0.576093972       0.00000000      0.697986484       1.57153428    
   1.23120904     -0.575251997     -0.303514004      0.697986484       1.57153428    
   1.15591598     -0.714210987     -0.303485006      0.697986484       1.57153428    
   1.23120904     -0.575251997     -0.303514004       2.10564518       1.56981003    
   1.28844094     -0.428344995     -0.303512990       2.10564518       1.56981003    
   1.28952503     -0.428642988     -0.606999993       2.10564518       1.56981003    
   1.23252702     -0.575810015     -0.606999993       2.10564518       1.56981003    
   1.23120904     -0.575251997     -0.303514004      0.622054160       1.57018268    
   1.23252702     -0.575810015     -0.606999993      0.622054160       1.57018268    
   1.15788805     -0.715448976     -0.606999993      0.622054160       1.57018268    
   1.15591598     -0.714210987     -0.303485006      0.622054160       1.57018268    
   1.23120904     -0.575251997     -0.303514004       2.09202766       1.57038796    
   1.23237598     -0.576093972       0.00000000       2.09202766       1.57038796    
   1.28947699     -0.428801000       0.00000000       2.09202766       1.57038796    
   1.28844094     -0.428344995     -0.303512990       2.09202766       1.57038796    
   1.28947699     -0.428801000       0.00000000       6.00865889      -1.57044721    
   1.33532202     -0.277671993       0.00000000       6.00865889      -1.57044721    
   1.33076501     -0.276203990     -0.303492010       6.00865889      -1.57044721    
   1.28844094     -0.428344995     -0.303512990       6.00865889      -1.57044721    
   1.33076501     -0.276203990     -0.303492010       6.52189064       1.57010853    
   1.35229194     -0.119709998     -0.303514004       6.52189064       1.57010853    
   1.35321999     -0.119608998     -0.606999993       6.52189064       1.57010853    
   1.33549094     -0.277112991     -0.606999993       6.52189064       1.57010853    
   1.33076501     -0.276203990     -0.303492010       6.00156975      -1.57022262    
   1.33549094     -0.277112991     -0.606999993       6.00156975      -1.57022262    
   1.28952503     -0.428642988     -0.606999993       6.00156975      -1.57022262    
   1.28844094     -0.428344995     -0.303512990       6.00156975      -1.57022262    
   1.33076501     -0.276203990     -0.303492010       6.67236614       1.57031739    
   1.33532202     -0.277671993       0.00000000       6.67236614       1.57031739    
   1.35319102     -0.119900003       0.00000000       6.67236614       1.57031739    
   1.35229194     -0.119709998     -0.303514004       6.67236614       1.57031739    
   1.35319102     -0.119900003       0.00000000       3.78318977      -1.56984150    
   1.36124396       3.81390005E-02   0.00000000       3.78318977      -1.56984150    
   1.35858905       3.79349999E-02 -0.303501010       3.78318977      -1.56984150    
   1.35229194     -0.119709998     -0.303514004       3.78318977      -1.56984150    
   1.35858905       3.79349999E-02 -0.303501010       2.33478260       1.56850755    
   1.34464097      0.195331007     -0.303496003       2.33478260       1.56850755    
   1.34573400      0.195616007     -0.606999993       2.33478260       1.56850755    
   1.36126804       3.78950015E-02 -0.606999993       2.33478260       1.56850755    
   1.35858905       3.79349999E-02 -0.303501010       3.90223789      -1.56947458    
   1.36126804       3.78950015E-02 -0.606999993       3.90223789      -1.56947458    
   1.35321999     -0.119608998     -0.606999993       3.90223789      -1.56947458    
   1.35229194     -0.119709998     -0.303514004       3.90223789      -1.56947458    
   1.35858905       3.79349999E-02 -0.303501010       2.47596097       1.56918800    
   1.36124396       3.81390005E-02   0.00000000       2.47596097       1.56918800    
   1.34575403      0.195406005       0.00000000       2.47596097       1.56918800    
   1.34464097      0.195331007     -0.303496003       2.47596097       1.56918800    
   1.34575403      0.195406005       0.00000000       1.40855253       1.56811309    
   1.31339800      0.349945009       0.00000000       1.40855253       1.56811309    
   1.31216300      0.349725991     -0.303487003       1.40855253       1.56811309    
   1.34464097      0.195331007     -0.303496003       1.40855253       1.56811309    
   1.31216300      0.349725991     -0.303487003       4.40740490      -1.56978881    
   1.26341999      0.500032008     -0.303494006       4.40740490      -1.56978881    
   1.26736605      0.501691997     -0.606999993       4.40740490      -1.56978881    
   1.31333196      0.350163996     -0.606999993       4.40740490      -1.56978881    
   1.31216300      0.349725991     -0.303487003       1.35278738       1.56706965    
   1.31333196      0.350163996     -0.606999993       1.35278738       1.56706965    
   1.34573400      0.195616007     -0.606999993       1.35278738       1.56706965    
   1.34464097      0.195331007     -0.303496003       1.35278738       1.56706965    
   1.31216300      0.349725991     -0.303487003       4.44685507      -1.57006145    
   1.31339800      0.349945009       0.00000000       4.44685507      -1.57006145    
   1.26751196      0.501209974       0.00000000       4.44685507      -1.57006145    
   1.26341999      0.500032008     -0.303494006       4.44685507      -1.57006145    
   1.26751196      0.501209974       0.00000000       4.68105507       1.57027173    
   1.19658697      0.643051028       0.00000000       4.68105507       1.57027173    
   1.19583094      0.642783999     -0.303505003       4.68105507       1.57027173    
   1.26341999      0.500032008     -0.303494006       4.68105507       1.57027173    
   1.19583094      0.642783999     -0.303505003       5.72481394      -1.57047105    
   1.11495602      0.778467000     -0.303483993       5.72481394      -1.57047105    
   1.11731696      0.779847026     -0.606999993       5.72481394      -1.57047105    
   1.19653296      0.643149972     -0.606999993       5.72481394      -1.57047105    
   1.19583094      0.642783999     -0.303505003       4.73872852       1.57006192    
   1.19653296      0.643149972     -0.606999993       4.73872852       1.57006192    
   1.26736605      0.501691997     -0.606999993       4.73872852       1.57006192    
   1.26341999      0.500032008     -0.303494006       4.73872852       1.57006192    
   1.19583094      0.642783999     -0.303505003       5.78778362      -1.57057500    
   1.19658697      0.643051028       0.00000000       5.78778362      -1.57057500    
   1.11705506      0.780165970       0.00000000       5.78778362      -1.57057500    
   1.11495602      0.778467000     -0.303483993       5.78778362      -1.57057500    
   1.11705506      0.780165970       0.00000000       4.69241095       1.57077587    
   1.01674199      0.902397990       0.00000000       4.69241095       1.57077587    
   1.01591504      0.901737988     -0.303478003       4.69241095       1.57077587    
   1.11495602      0.778467000     -0.303483993       4.69241095       1.57077587    
   1.01591504      0.901737988     -0.303478003      0.704871714       1.57246876    
  0.904204011       1.01322901     -0.303456992      0.704871714       1.57246876    
  0.905143023       1.01448905     -0.606999993      0.704871714       1.57246876    
   1.01659799      0.902572989     -0.606999993      0.704871714       1.57246876    
   1.01591504      0.901737988     -0.303478003       4.58152246       1.57070088    
   1.01659799      0.902572989     -0.606999993       4.58152246       1.57070088    
   1.11731696      0.779847026     -0.606999993       4.58152246       1.57070088    
   1.11495602      0.778467000     -0.303483993       4.58152246       1.57070088    
   1.01591504      0.901737988     -0.303478003      0.769825578       1.57245255    
   1.01674199      0.902397990       0.00000000      0.769825578       1.57245255    
  0.905318975       1.01434398       0.00000000      0.769825578       1.57245255    
  0.904204011       1.01322901     -0.303456992      0.769825578       1.57245255    
  0.905318975       1.01434398       0.00000000       3.23155642      -1.57172668    
  0.782918990       1.11479497       0.00000000       3.23155642      -1.57172668    
  0.780644000       1.11195600     -0.303485006       3.23155642      -1.57172668    
  0.904204011       1.01322901     -0.303456992       3.23155642      -1.57172668    
  0.780644000       1.11195600     -0.303485006       3.60404944       1.57201159    
  0.645825028       1.19414902     -0.303514004       3.60404944       1.57201159    
  0.646153986       1.19492805     -0.606999993       3.60404944       1.57201159    
  0.782611012       1.11504900     -0.606999993       3.60404944       1.57201159    
  0.780644000       1.11195600     -0.303485006       3.17558384      -1.57168460    
  0.782611012       1.11504900     -0.606999993       3.17558384      -1.57168460    
  0.905143023       1.01448905     -0.606999993       3.17558384      -1.57168460    
  0.904204011       1.01322901     -0.303456992       3.17558384      -1.57168460    
  0.780644000       1.11195600     -0.303485006       3.48042417       1.57201517    
  0.782918990       1.11479497       0.00000000       3.48042417       1.57201517    
  0.646345019       1.19482601       0.00000000       3.48042417       1.57201517    
  0.645825028       1.19414902     -0.303514004       3.48042417       1.57201517    
  0.646345019       1.19482601       0.00000000       7.00315237      -1.57155836    
  0.504974008       1.26637006       0.00000000       7.00315237      -1.57155836    
  0.503772974       1.26314998     -0.303521991       7.00315237      -1.57155836    
  0.645825028       1.19414902     -0.303514004       7.00315237      -1.57155836    
  0.503772974       1.26314998     -0.303521991       6.13389778       1.57196617    
  0.353130996       1.31116498     -0.303510994       6.13389778       1.57196617    
  0.353300005       1.31237996     -0.606999993       6.13389778       1.57196617    
  0.505183995       1.26630700     -0.606999993       6.13389778       1.57196617    
  0.503772974       1.26314998     -0.303521991       6.86064339      -1.57166088    
  0.505183995       1.26630700     -0.606999993       6.86064339      -1.57166088    
  0.646153986       1.19492805     -0.606999993       6.86064339      -1.57166088    
  0.645825028       1.19414902     -0.303514004       6.86064339      -1.57166088    
  0.503772974       1.26314998     -0.303521991       6.22855711       1.57181931    
  0.504974008       1.26637006       0.00000000       6.22855711       1.57181931    
  0.353493989       1.31232095       0.00000000       6.22855711       1.57181931    
  0.353130996       1.31116498     -0.303510994       6.22855711       1.57181931    
  0.353493989       1.31232095       0.00000000      0.686445355      -1.58140874    
  0.199064001       1.34539402       0.00000000      0.686445355      -1.58140874    
  0.198755994       1.34360003     -0.303496003      0.686445355      -1.58140874    
  0.353130996       1.31116498     -0.303510994      0.686445355      -1.58140874    
  0.198755994       1.34360003     -0.303496003       2.33891630      -1.57451224    
   4.12769988E-02   1.35817802     -0.303508013       2.33891630      -1.57451224    
   4.12410013E-02   1.36093795     -0.606999993       2.33891630      -1.57451224    
  0.199025005       1.34539795     -0.606999993       2.33891630      -1.57451224    
  0.198755994       1.34360003     -0.303496003      0.684391260      -1.58284032    
  0.199025005       1.34539795     -0.606999993      0.684391260      -1.58284032    
  0.353300005       1.31237996     -0.606999993      0.684391260      -1.58284032    
  0.353130996       1.31116498     -0.303510994      0.684391260      -1.58284032    
  0.198755994       1.34360003     -0.303496003       2.50473833      -1.57397223    
  0.199064001       1.34539402       0.00000000       2.50473833      -1.57397223    
   4.17769998E-02   1.36088502       0.00000000       2.50473833      -1.57397223    
   4.12769988E-02   1.35817802     -0.303508013       2.50473833      -1.57397223    
   4.17769998E-02   1.36088502       0.00000000       2.20012426       1.57452714    
 -0.116410002       1.35353506       0.00000000       2.20012426       1.57452714    
 -0.116471998       1.35271096     -0.303496987       2.20012426       1.57452714    
   4.12769988E-02   1.35817802     -0.303508013       2.20012426       1.57452714    
 -0.116471998       1.35271096     -0.303496987       7.81592894      -1.57194924    
 -0.273027003       1.33229196     -0.303496003       7.81592894      -1.57194924    
 -0.273876995       1.33647299     -0.606999993       7.81592894      -1.57194924    
 -0.116722003       1.35350394     -0.606999993       7.81592894      -1.57194924    
 -0.116471998       1.35271096     -0.303496987       2.51652551       1.57437801    
 -0.116722003       1.35350394     -0.606999993       2.51652551       1.57437801    
   4.12410013E-02   1.36093795     -0.606999993       2.51652551       1.57437801    
   4.12769988E-02   1.35817802     -0.303508013       2.51652551       1.57437801    
 -0.116471998       1.35271096     -0.303496987       8.09764957      -1.57182789    
 -0.116410002       1.35353506       0.00000000       8.09764957      -1.57182789    
 -0.274069011       1.33641505       0.00000000       8.09764957      -1.57182789    
 -0.273027003       1.33229196     -0.303496003       8.09764957      -1.57182789    
 -0.274069011       1.33641505       0.00000000       7.40274239       1.57186890    
 -0.425588995       1.29045200       0.00000000       7.40274239       1.57186890    
 -0.425258011       1.28953803     -0.303507000       7.40274239       1.57186890    
 -0.273027003       1.33229196     -0.303496003       7.40274239       1.57186890    
 -0.425258011       1.28953803     -0.303507000       1.38499594      -1.57636642    
 -0.572302997       1.23206902     -0.303485990       1.38499594      -1.57636642    
 -0.573064029       1.23399496     -0.606999993       1.38499594      -1.57636642    
 -0.425651014       1.29043305     -0.606999993       1.38499594      -1.57636642    
 -0.425258011       1.28953803     -0.303507000       7.31455135       1.57196951    
 -0.425651014       1.29043305     -0.606999993       7.31455135       1.57196951    
 -0.273876995       1.33647299     -0.606999993       7.31455135       1.57196951    
 -0.273027003       1.33229196     -0.303496003       7.31455135       1.57196951    
 -0.425258011       1.28953803     -0.303507000       1.31422734      -1.57629299    
 -0.425588995       1.29045200       0.00000000       1.31422734      -1.57629299    
 -0.573195994       1.23392498       0.00000000       1.31422734      -1.57629299    
 -0.572302997       1.23206902     -0.303485990       1.31422734      -1.57629299    
 -0.573195994       1.23392498       0.00000000      0.897713363      -1.57771611    
 -0.712655008       1.15938199       0.00000000      0.897713363      -1.57771611    
 -0.711889029       1.15749002     -0.303496003      0.897713363      -1.57771611    
 -0.572302997       1.23206902     -0.303485990      0.897713363      -1.57771611    
 -0.711889029       1.15749002     -0.303496003       1.90034497       1.57349539    
 -0.840825975       1.06629205     -0.303485990       1.90034497       1.57349539    
 -0.841368973       1.06682706     -0.606999993       1.90034497       1.57349539    
 -0.712980986       1.15920806     -0.606999993       1.90034497       1.57349539    
 -0.711889029       1.15749002     -0.303496003      0.851095557      -1.57855392    
 -0.712980986       1.15920806     -0.606999993      0.851095557      -1.57855392    
 -0.573064029       1.23399496     -0.606999993      0.851095557      -1.57855392    
 -0.572302997       1.23206902     -0.303485990      0.851095557      -1.57855392    
 -0.711889029       1.15749002     -0.303496003       1.73814547       1.57371008    
 -0.712655008       1.15938199       0.00000000       1.73814547       1.57371008    
 -0.841165006       1.06699395       0.00000000       1.73814547       1.57371008    
 -0.840825975       1.06629205     -0.303485990       1.73814547       1.57371008    
 -0.841165006       1.06699395       0.00000000       7.56753206      -1.57129467    
 -0.963320017      0.966744006       0.00000000       7.56753206      -1.57129467    
 -0.960084975      0.962615013     -0.303470999       7.56753206      -1.57129467    
 -0.840825975       1.06629205     -0.303485990       7.56753206      -1.57129467    
 -0.960084975      0.962615013     -0.303470999       8.17364597       1.57102489    
  -1.06383705      0.843237996     -0.303481996       8.17364597       1.57102489    
  -1.06481802      0.843816996     -0.606999993       8.17364597       1.57102489    
 -0.963873982      0.966289997     -0.606999993       8.17364597       1.57102489    
 -0.960084975      0.962615013     -0.303470999       7.46982861      -1.57127106    
 -0.963873982      0.966289997     -0.606999993       7.46982861      -1.57127106    
 -0.841368973       1.06682706     -0.606999993       7.46982861      -1.57127106    
 -0.840825975       1.06629205     -0.303485990       7.46982861      -1.57127106    
 -0.960084975      0.962615013     -0.303470999       8.33455181       1.57107258    
 -0.963320017      0.966744006       0.00000000       8.33455181       1.57107258    
  -1.06464398      0.844029009       0.00000000       8.33455181       1.57107258    
  -1.06383705      0.843237996     -0.303481996       8.33455181       1.57107258    
  -1.06464398      0.844029009       0.00000000       2.37779188      -1.57121134    
  -1.15769398      0.715813994       0.00000000       2.37779188      -1.57121134    
  -1.15564799      0.714680016     -0.303483993       2.37779188      -1.57121134    
  -1.06383705      0.843237996     -0.303481996       2.37779188      -1.57121134    
  -1.15564799      0.714680016     -0.303483993      0.680425227       1.56905019    
  -1.23108304      0.575536013     -0.303514004      0.680425227       1.56905019    
  -1.23232996      0.576179981     -0.606999993      0.680425227       1.56905019    
  -1.15756094      0.716063023     -0.606999993      0.680425227       1.56905019    
  -1.15564799      0.714680016     -0.303483993       2.52225041      -1.57088268    
  -1.15756094      0.716063023     -0.606999993       2.52225041      -1.57088268    
  -1.06481802      0.843816996     -0.606999993       2.52225041      -1.57088268    
  -1.06383705      0.843237996     -0.303481996       2.52225041      -1.57088268    
  -1.15564799      0.714680016     -0.303483993      0.741320312       1.57046008    
  -1.15769398      0.715813994       0.00000000      0.741320312       1.57046008    
  -1.23224795      0.576331973       0.00000000      0.741320312       1.57046008    
  -1.23108304      0.575536013     -0.303514004      0.741320312       1.57046008    
  -1.23224795      0.576331973       0.00000000       2.08624172       1.57019782    
  -1.28948605      0.428772002       0.00000000       2.08624172       1.57019782    
  -1.28842103      0.428404987     -0.303512990       2.08624172       1.57019782    
  -1.23108304      0.575536013     -0.303514004       2.08624172       1.57019782    
  -1.28842103      0.428404987     -0.303512990       5.96510696      -1.57022798    
  -1.33082402      0.275959998     -0.303492010       5.96510696      -1.57022798    
  -1.33550000      0.277083993     -0.606999993       5.96510696      -1.57022798    