 VARIABLES="X" "Y" "Z" "abs(p) (Pa)" "angle(p) (rad)"
ZONE N=   2720,E =    2069, F=FEPOINT, ET=QUADRILATERAL
 -0.767116010      -1.12776399       0.00000000       2533.63135      -1.59112990    
 -0.769354999      -1.12002099     -0.303523988       2533.63135      -1.59112990    
 -0.896136999      -1.02028203     -0.303463012       2533.63135      -1.59112990    
 -0.894908011      -1.02288902       0.00000000       2533.63135      -1.59112990    
 -0.767116010      -1.12776399       0.00000000       2133.38208      -1.59130847    
 -0.630888999      -1.20308697       0.00000000       2133.38208      -1.59130847    
 -0.635528028      -1.19958198     -0.303541005       2133.38208      -1.59130847    
 -0.769354999      -1.12002099     -0.303523988       2133.38208      -1.59130847    
 -0.635528028      -1.19958198     -0.303541005       1253.67297      -1.58929825    
 -0.495362997      -1.26606500     -0.303519011       1253.67297      -1.58929825    
 -0.499298006      -1.26809204     -0.606999993       1253.67297      -1.58929825    
 -0.640147984      -1.19813800     -0.606998026       1253.67297      -1.58929825    
 -0.635528028      -1.19958198     -0.303541005       1550.71667      -1.58941340    
 -0.640147984      -1.19813800     -0.606998026       1550.71667      -1.58941340    
 -0.777105987      -1.11956596     -0.606999993       1550.71667      -1.58941340    
 -0.769354999      -1.12002099     -0.303523988       1550.71667      -1.58941340    
 -0.635528028      -1.19958198     -0.303541005       1720.83594      -1.59093165    
 -0.630888999      -1.20308697       0.00000000       1720.83594      -1.59093165    
 -0.494486004      -1.26955199       0.00000000       1720.83594      -1.59093165    
 -0.495362997      -1.26606500     -0.303519011       1720.83594      -1.59093165    
 -0.494486004      -1.26955199       0.00000000       1282.98157      -1.59121490    
 -0.346311986      -1.31449997       0.00000000       1282.98157      -1.59121490    
 -0.346753001      -1.31307304     -0.303510010       1282.98157      -1.59121490    
 -0.495362997      -1.26606500     -0.303519011       1282.98157      -1.59121490    
 -0.346753001      -1.31307304     -0.303510010       604.827820      -1.58937156    
 -0.193608001      -1.34425998     -0.303494990       604.827820      -1.58937156    
 -0.195028007      -1.34579206     -0.606999993       604.827820      -1.58937156    
 -0.348751009      -1.31376004     -0.606999993       604.827820      -1.58937156    
 -0.346753001      -1.31307304     -0.303510010       931.833801      -1.58951080    
 -0.348751009      -1.31376004     -0.606999993       931.833801      -1.58951080    
 -0.499298006      -1.26809204     -0.606999993       931.833801      -1.58951080    
 -0.495362997      -1.26606500     -0.303519011       931.833801      -1.58951080    
 -0.346753001      -1.31307304     -0.303510010       832.509399      -1.59112561    
 -0.346311986      -1.31449997       0.00000000       832.509399      -1.59112561    
 -0.193381995      -1.34595394       0.00000000       832.509399      -1.59112561    
 -0.193608001      -1.34425998     -0.303494990       832.509399      -1.59112561    
 -0.193381995      -1.34595394       0.00000000       368.628632      -1.59249318    
  -3.75179984E-02  -1.36130500       0.00000000       368.628632      -1.59249318    
  -3.73950005E-02  -1.35827899     -0.303512007       368.628632      -1.59249318    
 -0.193608001      -1.34425998     -0.303494990       368.628632      -1.59249318    
  -3.73950005E-02  -1.35827899     -0.303512007       75.7310410       1.55283225    
  0.119547002      -1.35239303     -0.303498000       75.7310410       1.55283225    
  0.119135000      -1.35326600     -0.606999993       75.7310410       1.55283225    
  -3.82840000E-02  -1.36122894     -0.606998980       75.7310410       1.55283225    
  -3.73950005E-02  -1.35827899     -0.303512007       268.470215      -1.58898723    
  -3.82840000E-02  -1.36122894     -0.606998980       268.470215      -1.58898723    
 -0.195028007      -1.34579206     -0.606999993       268.470215      -1.58898723    
 -0.193608001      -1.34425998     -0.303494990       268.470215      -1.58898723    
  -3.73950005E-02  -1.35827899     -0.303512007       100.768440       1.55782449    
  -3.75179984E-02  -1.36130500       0.00000000       100.768440       1.55782449    
  0.119788997      -1.35320199       0.00000000       100.768440       1.55782449    
  0.119547002      -1.35239303     -0.303498000       100.768440       1.55782449    
  0.119788997      -1.35320199       0.00000000       563.908875       1.55128980    
  0.276576012      -1.33565402       0.00000000       563.908875       1.55128980    
  0.275435001      -1.33191597     -0.303496003       563.908875       1.55128980    
  0.119547002      -1.35239303     -0.303498000       563.908875       1.55128980    
  0.275435001      -1.33191597     -0.303496003       753.623169       1.55283964    
  0.427076995      -1.28898001     -0.303507000       753.623169       1.55283964    
  0.427242011      -1.28995001     -0.606999993       753.623169       1.55283964    
  0.275831014      -1.33588004     -0.606999993       753.623169       1.55283964    
  0.275435001      -1.33191597     -0.303496003       411.281738       1.55253279    
  0.275831014      -1.33588004     -0.606999993       411.281738       1.55253279    
  0.119135000      -1.35326600     -0.606999993       411.281738       1.55253279    
  0.119547002      -1.35239303     -0.303498000       411.281738       1.55253279    
  0.275435001      -1.33191597     -0.303496003       1028.80042       1.55142343    
  0.276576012      -1.33565402       0.00000000       1028.80042       1.55142343    
  0.427509993      -1.28986895       0.00000000       1028.80042       1.55142343    
  0.427076995      -1.28898001     -0.303507000       1028.80042       1.55142343    
  0.427509993      -1.28986895       0.00000000       1471.30652       1.55138123    
  0.574636996      -1.23315501       0.00000000       1471.30652       1.55138123    
  0.573706985      -1.23136795     -0.303485990       1471.30652       1.55138123    
  0.427076995      -1.28898001     -0.303507000       1471.30652       1.55138123    
  0.573706985      -1.23136795     -0.303485990       1386.00513       1.55247903    
  0.712854981      -1.15688002     -0.303496987       1386.00513       1.55247903    
  0.713809013      -1.15876603     -0.606999993       1386.00513       1.55247903    
  0.574283004      -1.23334301     -0.606999993       1386.00513       1.55247903    
  0.573706985      -1.23136795     -0.303485990       1074.99414       1.55256188    
  0.574283004      -1.23334301     -0.606999993       1074.99414       1.55256188    
  0.427242011      -1.28995001     -0.606999993       1074.99414       1.55256188    
  0.427076995      -1.28898001     -0.303507000       1074.99414       1.55256188    
  0.573706985      -1.23136795     -0.303485990       1902.20288       1.55135560    
  0.574636996      -1.23315501       0.00000000       1902.20288       1.55135560    
  0.713741004      -1.15880203       0.00000000       1902.20288       1.55135560    
  0.712854981      -1.15688002     -0.303496987       1902.20288       1.55135560    
  0.713741004      -1.15880203       0.00000000       2305.74683       1.55132711    
  0.841937006      -1.06636095       0.00000000       2305.74683       1.55132711    
  0.841498017      -1.06573403     -0.303485990       2305.74683       1.55132711    
  0.712854981      -1.15688002     -0.303496987       2305.74683       1.55132711    
  0.841498017      -1.06573403     -0.303485990       1944.03674       1.55229080    
  0.960639000     -0.962104976     -0.303470999       1944.03674       1.55229080    
  0.964356005     -0.965893984     -0.606999993       1944.03674       1.55229080    
  0.841796994      -1.06647599     -0.606999993       1944.03674       1.55229080    
  0.841498017      -1.06573403     -0.303485990       1680.07092       1.55251133    
  0.841796994      -1.06647599     -0.606999993       1680.07092       1.55251133    
  0.713809013      -1.15876603     -0.606999993       1680.07092       1.55251133    
  0.712854981      -1.15688002     -0.303496987       1680.07092       1.55251133    
  0.841498017      -1.06573403     -0.303485990       2676.33350       1.55083466    
  0.841937006      -1.06636095       0.00000000       2676.33350       1.55083466    
  0.963932991     -0.966242015       0.00000000       2676.33350       1.55083466    
  0.960639000     -0.962104976     -0.303470999       2676.33350       1.55083466    
  0.963932991     -0.966242015       0.00000000       3013.88940       1.55081403    
   1.06506598     -0.843514979       0.00000000       3013.88940       1.55081403    
   1.06428695     -0.842682004     -0.303481996       3013.88940       1.55081403    
  0.960639000     -0.962104976     -0.303470999       3013.88940       1.55081403    
   1.06428695     -0.842682004     -0.303481996       2406.38013       1.55219090    
   1.15591598     -0.714210987     -0.303485006       2406.38013       1.55219090    
   1.15788805     -0.715448976     -0.606999993       2406.38013       1.55219090    
   1.06537795     -0.843134999     -0.606999993       2406.38013       1.55219090    
   1.06428695     -0.842682004     -0.303481996       2192.74390       1.55234766    
   1.06537795     -0.843134999     -0.606999993       2192.74390       1.55234766    
  0.964356005     -0.965893984     -0.606999993       2192.74390       1.55234766    
  0.960639000     -0.962104976     -0.303470999       2192.74390       1.55234766    
   1.06428695     -0.842682004     -0.303481996       3291.30176       1.55078542    
   1.06506598     -0.843514979       0.00000000       3291.30176       1.55078542    
   1.15792501     -0.715381980       0.00000000       3291.30176       1.55078542    
   1.15591598     -0.714210987     -0.303485006       3291.30176       1.55078542    
   1.15792501     -0.715381980       0.00000000       3548.22778       1.55058730    
   1.23237598     -0.576093972       0.00000000       3548.22778       1.55058730    
   1.23120904     -0.575251997     -0.303514004       3548.22778       1.55058730    
   1.15591598     -0.714210987     -0.303485006       3548.22778       1.55058730    
   1.23120904     -0.575251997     -0.303514004       2740.13696       1.55215430    
   1.28844094     -0.428344995     -0.303512990       2740.13696       1.55215430    
   1.28952503     -0.428642988     -0.606999993       2740.13696       1.55215430    
   1.23252702     -0.575810015     -0.606999993       2740.13696       1.55215430    
   1.23120904     -0.575251997     -0.303514004       2590.34497       1.55213726    
   1.23252702     -0.575810015     -0.606999993       2590.34497       1.55213726    
   1.15788805     -0.715448976     -0.606999993       2590.34497       1.55213726    
   1.15591598     -0.714210987     -0.303485006       2590.34497       1.55213726    
   1.23120904     -0.575251997     -0.303514004       3764.15771       1.55051351    
   1.23237598     -0.576093972       0.00000000       3764.15771       1.55051351    
   1.28947699     -0.428801000       0.00000000       3764.15771       1.55051351    
   1.28844094     -0.428344995     -0.303512990       3764.15771       1.55051351    
   1.28947699     -0.428801000       0.00000000       3936.31250       1.55053067    
   1.33532202     -0.277671993       0.00000000       3936.31250       1.55053067    
   1.33076501     -0.276203990     -0.303492010       3936.31250       1.55053067    
   1.28844094     -0.428344995     -0.303512990       3936.31250       1.55053067    
   1.33076501     -0.276203990     -0.303492010       2924.51904       1.55200124    
   1.35229194     -0.119709998     -0.303514004       2924.51904       1.55200124    
   1.35321999     -0.119608998     -0.606999993       2924.51904       1.55200124    
   1.33549094     -0.277112991     -0.606999993       2924.51904       1.55200124    
   1.33076501     -0.276203990     -0.303492010       2850.80273       1.55212247    
   1.33549094     -0.277112991     -0.606999993       2850.80273       1.55212247    
   1.28952503     -0.428642988     -0.606999993       2850.80273       1.55212247    
   1.28844094     -0.428344995     -0.303512990       2850.80273       1.55212247    
   1.33076501     -0.276203990     -0.303492010       4040.60327       1.55067182    
   1.33532202     -0.277671993       0.00000000       4040.60327       1.55067182    
   1.35319102     -0.119900003       0.00000000       4040.60327       1.55067182    
   1.35229194     -0.119709998     -0.303514004       4040.60327       1.55067182    
   1.35319102     -0.119900003       0.00000000       4083.76001       1.55067205    
   1.36124396       3.81390005E-02   0.00000000       4083.76001       1.55067205    
   1.35858905       3.79349999E-02 -0.303501010       4083.76001       1.55067205    
   1.35229194     -0.119709998     -0.303514004       4083.76001       1.55067205    
   1.35858905       3.79349999E-02 -0.303501010       2949.10425       1.55202079    
   1.34464097      0.195331007     -0.303496003       2949.10425       1.55202079    
   1.34573400      0.195616007     -0.606999993       2949.10425       1.55202079    
   1.36126804       3.78950015E-02 -0.606999993       2949.10425       1.55202079    
   1.35858905       3.79349999E-02 -0.303501010       2957.34204       1.55207336    
   1.36126804       3.78950015E-02 -0.606999993       2957.34204       1.55207336    
   1.35321999     -0.119608998     -0.606999993       2957.34204       1.55207336    
   1.35229194     -0.119709998     -0.303514004       2957.34204       1.55207336    
   1.35858905       3.79349999E-02 -0.303501010       4075.06714       1.55047143    
   1.36124396       3.81390005E-02   0.00000000       4075.06714       1.55047143    
   1.34575403      0.195406005       0.00000000       4075.06714       1.55047143    
   1.34464097      0.195331007     -0.303496003       4075.06714       1.55047143    
   1.34575403      0.195406005       0.00000000       4008.06860       1.55043888    
   1.31339800      0.349945009       0.00000000       4008.06860       1.55043888    
   1.31216300      0.349725991     -0.303487003       4008.06860       1.55043888    
   1.34464097      0.195331007     -0.303496003       4008.06860       1.55043888    
   1.31216300      0.349725991     -0.303487003       2809.21680       1.55203450    
   1.26341999      0.500032008     -0.303494006       2809.21680       1.55203450    
   1.26736605      0.501691997     -0.606999993       2809.21680       1.55203450    
   1.31333196      0.350163996     -0.606999993       2809.21680       1.55203450    
   1.31216300      0.349725991     -0.303487003       2900.03271       1.55201662    
   1.31333196      0.350163996     -0.606999993       2900.03271       1.55201662    
   1.34573400      0.195616007     -0.606999993       2900.03271       1.55201662    
   1.34464097      0.195331007     -0.303496003       2900.03271       1.55201662    
   1.31216300      0.349725991     -0.303487003       3887.50317       1.55023348    
   1.31339800      0.349945009       0.00000000       3887.50317       1.55023348    
   1.26751196      0.501209974       0.00000000       3887.50317       1.55023348    
   1.26341999      0.500032008     -0.303494006       3887.50317       1.55023348    
   1.26751196      0.501209974       0.00000000       3716.90161       1.55040395    
   1.19658697      0.643051028       0.00000000       3716.90161       1.55040395    
   1.19583094      0.642783999     -0.303505003       3716.90161       1.55040395    
   1.26341999      0.500032008     -0.303494006       3716.90161       1.55040395    
   1.19583094      0.642783999     -0.303505003       2517.87500       1.55193794    
   1.11495602      0.778467000     -0.303483993       2517.87500       1.55193794    
   1.11731696      0.779847026     -0.606999993       2517.87500       1.55193794    
   1.19653296      0.643149972     -0.606999993       2517.87500       1.55193794    
   1.19583094      0.642783999     -0.303505003       2679.79688       1.55203128    
   1.19653296      0.643149972     -0.606999993       2679.79688       1.55203128    
   1.26736605      0.501691997     -0.606999993       2679.79688       1.55203128    
   1.26341999      0.500032008     -0.303494006       2679.79688       1.55203128    
   1.19583094      0.642783999     -0.303505003       3482.63696       1.55063009    
   1.19658697      0.643051028       0.00000000       3482.63696       1.55063009    
   1.11705506      0.780165970       0.00000000       3482.63696       1.55063009    
   1.11495602      0.778467000     -0.303483993       3482.63696       1.55063009    
   1.11705506      0.780165970       0.00000000       3192.19507       1.55068910    
   1.01674199      0.902397990       0.00000000       3192.19507       1.55068910    
   1.01591504      0.901737988     -0.303478003       3192.19507       1.55068910    
   1.11495602      0.778467000     -0.303483993       3192.19507       1.55068910    
   1.01591504      0.901737988     -0.303478003       2083.59399       1.55215180    
  0.904204011       1.01322901     -0.303456992       2083.59399       1.55215180    
  0.905143023       1.01448905     -0.606999993       2083.59399       1.55215180    
   1.01659799      0.902572989     -0.606999993       2083.59399       1.55215180    
   1.01591504      0.901737988     -0.303478003       2314.02319       1.55204940    
   1.01659799      0.902572989     -0.606999993       2314.02319       1.55204940    
   1.11731696      0.779847026     -0.606999993       2314.02319       1.55204940    
   1.11495602      0.778467000     -0.303483993       2314.02319       1.55204940    
   1.01591504      0.901737988     -0.303478003       2861.35938       1.55089307    
   1.01674199      0.902397990       0.00000000       2861.35938       1.55089307    
  0.905318975       1.01434398       0.00000000       2861.35938       1.55089307    
  0.904204011       1.01322901     -0.303456992       2861.35938       1.55089307    
  0.905318975       1.01434398       0.00000000       2513.22339       1.55074418    
  0.782918990       1.11479497       0.00000000       2513.22339       1.55074418    
  0.780644000       1.11195600     -0.303485006       2513.22339       1.55074418    
  0.904204011       1.01322901     -0.303456992       2513.22339       1.55074418    
  0.780644000       1.11195600     -0.303485006       1540.27881       1.55216110    
  0.645825028       1.19414902     -0.303514004       1540.27881       1.55216110    
  0.646153986       1.19492805     -0.606999993       1540.27881       1.55216110    
  0.782611012       1.11504900     -0.606999993       1540.27881       1.55216110    
  0.780644000       1.11195600     -0.303485006       1825.78186       1.55219662    
  0.782611012       1.11504900     -0.606999993       1825.78186       1.55219662    
  0.905143023       1.01448905     -0.606999993       1825.78186       1.55219662    
  0.904204011       1.01322901     -0.303456992       1825.78186       1.55219662    
  0.780644000       1.11195600     -0.303485006       2122.88892       1.55069888    
  0.782918990       1.11479497       0.00000000       2122.88892       1.55069888    
  0.646345019       1.19482601       0.00000000       2122.88892       1.55069888    
  0.645825028       1.19414902     -0.303514004       2122.88892       1.55069888    
  0.646345019       1.19482601       0.00000000       1708.23914       1.55103457    
  0.504974008       1.26637006       0.00000000       1708.23914       1.55103457    
  0.503772974       1.26314998     -0.303521991       1708.23914       1.55103457    
  0.645825028       1.19414902     -0.303514004       1708.23914       1.55103457    
  0.503772974       1.26314998     -0.303521991       915.375977       1.55200112    
  0.353130996       1.31116498     -0.303510994       915.375977       1.55200112    
  0.353300005       1.31237996     -0.606999993       915.375977       1.55200112    
  0.505183995       1.26630700     -0.606999993       915.375977       1.55200112    
  0.503772974       1.26314998     -0.303521991       1241.77148       1.55228591    
  0.505183995       1.26630700     -0.606999993       1241.77148       1.55228591    
  0.646153986       1.19492805     -0.606999993       1241.77148       1.55228591    
  0.645825028       1.19414902     -0.303514004       1241.77148       1.55228591    
  0.503772974       1.26314998     -0.303521991       1261.02124       1.55083334    
  0.504974008       1.26637006       0.00000000       1261.02124       1.55083334    
  0.353493989       1.31232095       0.00000000       1261.02124       1.55083334    
  0.353130996       1.31116498     -0.303510994       1261.02124       1.55083334    
  0.353493989       1.31232095       0.00000000       803.676575       1.55119693    
  0.199064001       1.34539402       0.00000000       803.676575       1.55119693    
  0.198755994       1.34360003     -0.303496003       803.676575       1.55119693    
  0.353130996       1.31116498     -0.303510994       803.676575       1.55119693    
  0.198755994       1.34360003     -0.303496003       247.902039       1.55393314    
   4.12769988E-02   1.35817802     -0.303508013       247.902039       1.55393314    
   4.12410013E-02   1.36093795     -0.606999993       247.902039       1.55393314    
  0.199025005       1.34539795     -0.606999993       247.902039       1.55393314    
  0.198755994       1.34360003     -0.303496003       586.242188       1.55211592    
  0.199025005       1.34539795     -0.606999993       586.242188       1.55211592    
  0.353300005       1.31237996     -0.606999993       586.242188       1.55211592    
  0.353130996       1.31116498     -0.303510994       586.242188       1.55211592    
  0.198755994       1.34360003     -0.303496003       335.891876       1.55196905    
  0.199064001       1.34539402       0.00000000       335.891876       1.55196905    
   4.17769998E-02   1.36088502       0.00000000       335.891876       1.55196905    
   4.12769988E-02   1.35817802     -0.303508013       335.891876       1.55196905    
   4.17769998E-02   1.36088502       0.00000000       136.573013      -1.59351337    
 -0.116410002       1.35353506       0.00000000       136.573013      -1.59351337    
 -0.116471998       1.35271096     -0.303496987       136.573013      -1.59351337    
   4.12769988E-02   1.35817802     -0.303508013       136.573013      -1.59351337    
 -0.116471998       1.35271096     -0.303496987       433.822205      -1.59113359    
 -0.273027003       1.33229196     -0.303496003       433.822205      -1.59113359    
 -0.273876995       1.33647299     -0.606999993       433.822205      -1.59113359    
 -0.116722003       1.35350394     -0.606999993       433.822205      -1.59113359    
 -0.116471998       1.35271096     -0.303496987       97.6916962      -1.59275866    
 -0.116722003       1.35350394     -0.606999993       97.6916962      -1.59275866    
   4.12410013E-02   1.36093795     -0.606999993       97.6916962      -1.59275866    
   4.12769988E-02   1.35817802     -0.303508013       97.6916962      -1.59275866    
 -0.116471998       1.35271096     -0.303496987       606.030090      -1.59206426    
 -0.116410002       1.35353506       0.00000000       606.030090      -1.59206426    
 -0.274069011       1.33641505       0.00000000       606.030090      -1.59206426    
 -0.273027003       1.33229196     -0.303496003       606.030090      -1.59206426    
 -0.274069011       1.33641505       0.00000000       1074.61511      -1.59119868    
 -0.425588995       1.29045200       0.00000000       1074.61511      -1.59119868    
 -0.425258011       1.28953803     -0.303507000       1074.61511      -1.59119868    
 -0.273027003       1.33229196     -0.303496003       1074.61511      -1.59119868    
 -0.425258011       1.28953803     -0.303507000       1099.11523      -1.58983743    
 -0.572302997       1.23206902     -0.303485990       1099.11523      -1.58983743    
 -0.573064029       1.23399496     -0.606999993       1099.11523      -1.58983743    
 -0.425651014       1.29043305     -0.606999993       1099.11523      -1.58983743    
 -0.425258011       1.28953803     -0.303507000       776.900208      -1.58993983    
 -0.425651014       1.29043305     -0.606999993       776.900208      -1.58993983    
 -0.273876995       1.33647299     -0.606999993       776.900208      -1.58993983    
 -0.273027003       1.33229196     -0.303496003       776.900208      -1.58993983    
 -0.425258011       1.28953803     -0.303507000       1518.02295      -1.59094560    
 -0.425588995       1.29045200       0.00000000       1518.02295      -1.59094560    
 -0.573195994       1.23392498       0.00000000       1518.02295      -1.59094560    
 -0.572302997       1.23206902     -0.303485990       1518.02295      -1.59094560    
 -0.573195994       1.23392498       0.00000000       1948.52368      -1.59074783    
 -0.712655008       1.15938199       0.00000000       1948.52368      -1.59074783    
 -0.711889029       1.15749002     -0.303496003       1948.52368      -1.59074783    
 -0.572302997       1.23206902     -0.303485990       1948.52368      -1.59074783    
 -0.711889029       1.15749002     -0.303496003       1705.01160      -1.58951378    
 -0.840825975       1.06629205     -0.303485990       1705.01160      -1.58951378    
 -0.841368973       1.06682706     -0.606999993       1705.01160      -1.58951378    
 -0.712980986       1.15920806     -0.606999993       1705.01160      -1.58951378    
 -0.711889029       1.15749002     -0.303496003       1410.65503      -1.58964860    
 -0.712980986       1.15920806     -0.606999993       1410.65503      -1.58964860    
 -0.573064029       1.23399496     -0.606999993       1410.65503      -1.58964860    
 -0.572302997       1.23206902     -0.303485990       1410.65503      -1.58964860    
 -0.711889029       1.15749002     -0.303496003       2344.48706      -1.59057164    
 -0.712655008       1.15938199       0.00000000       2344.48706      -1.59057164    
 -0.841165006       1.06699395       0.00000000       2344.48706      -1.59057164    
 -0.840825975       1.06629205     -0.303485990       2344.48706      -1.59057164    
 -0.841165006       1.06699395       0.00000000       2710.56128      -1.59079993    
 -0.963320017      0.966744006       0.00000000       2710.56128      -1.59079993    
 -0.960084975      0.962615013     -0.303470999       2710.56128      -1.59079993    
 -0.840825975       1.06629205     -0.303485990       2710.56128      -1.59079993    
 -0.960084975      0.962615013     -0.303470999       2222.78442      -1.58948326    
  -1.06383705      0.843237996     -0.303481996       2222.78442      -1.58948326    
  -1.06481802      0.843816996     -0.606999993       2222.78442      -1.58948326    
 -0.963873982      0.966289997     -0.606999993       2222.78442      -1.58948326    
 -0.960084975      0.962615013     -0.303470999       1971.93640      -1.58958364    
 -0.963873982      0.966289997     -0.606999993       1971.93640      -1.58958364    
 -0.841368973       1.06682706     -0.606999993       1971.93640      -1.58958364    
 -0.840825975       1.06629205     -0.303485990       1971.93640      -1.58958364    
 -0.960084975      0.962615013     -0.303470999       3054.60889      -1.59082425    
 -0.963320017      0.966744006       0.00000000       3054.60889      -1.59082425    
  -1.06464398      0.844029009       0.00000000       3054.60889      -1.59082425    
  -1.06383705      0.843237996     -0.303481996       3054.60889      -1.59082425    
  -1.06464398      0.844029009       0.00000000       3353.48291      -1.59092140    
  -1.15769398      0.715813994       0.00000000       3353.48291      -1.59092140    
  -1.15564799      0.714680016     -0.303483993       3353.48291      -1.59092140    
  -1.06383705      0.843237996     -0.303481996       3353.48291      -1.59092140    
  -1.15564799      0.714680016     -0.303483993       2625.08911      -1.58965588    
  -1.23108304      0.575536013     -0.303514004       2625.08911      -1.58965588    
  -1.23232996      0.576179981     -0.606999993       2625.08911      -1.58965588    
  -1.15756094      0.716063023     -0.606999993       2625.08911      -1.58965588    
  -1.15564799      0.714680016     -0.303483993       2437.84937      -1.58956933    
  -1.15756094      0.716063023     -0.606999993       2437.84937      -1.58956933    
  -1.06481802      0.843816996     -0.606999993       2437.84937      -1.58956933    
  -1.06383705      0.843237996     -0.303481996       2437.84937      -1.58956933    
  -1.15564799      0.714680016     -0.303483993       3630.12549      -1.59115171    
  -1.15769398      0.715813994       0.00000000       3630.12549      -1.59115171    
  -1.23224795      0.576331973       0.00000000       3630.12549      -1.59115171    
  -1.23108304      0.575536013     -0.303514004       3630.12549      -1.59115171    
  -1.23224795      0.576331973       0.00000000       3840.88843      -1.59123766    
  -1.28948605      0.428772002       0.00000000       3840.88843      -1.59123766    
  -1.28842103      0.428404987     -0.303512990       3840.88843      -1.59123766    
  -1.23108304      0.575536013     -0.303514004       3840.88843      -1.59123766    
  -1.28842103      0.428404987     -0.303512990       2881.63843      -1.58965766    
  -1.33082402      0.275959998     -0.303492010       2881.63843      -1.58965766    
  -1.33550000      0.277083993     -0.606999993       2881.63843      -1.58965766    