 VARIABLES="X" "Y" "Z" "abs(p) (Pa)" "angle(p) (rad)"
ZONE N=   2720,E =    2069, F=FEPOINT, ET=QUADRILATERAL
 -0.767116010      -1.12776399       0.00000000       2.15117311       1.03349817    
 -0.769354999      -1.12002099     -0.303523988       2.15117311       1.03349817    
 -0.896136999      -1.02028203     -0.303463012       2.15117311       1.03349817    
 -0.894908011      -1.02288902       0.00000000       2.15117311       1.03349817    
 -0.767116010      -1.12776399       0.00000000       2.23549104       1.05582774    
 -0.630888999      -1.20308697       0.00000000       2.23549104       1.05582774    
 -0.635528028      -1.19958198     -0.303541005       2.23549104       1.05582774    
 -0.769354999      -1.12002099     -0.303523988       2.23549104       1.05582774    
 -0.635528028      -1.19958198     -0.303541005       4.76620150       1.33777010    
 -0.495362997      -1.26606500     -0.303519011       4.76620150       1.33777010    
 -0.499298006      -1.26809204     -0.606999993       4.76620150       1.33777010    
 -0.640147984      -1.19813800     -0.606998026       4.76620150       1.33777010    
 -0.635528028      -1.19958198     -0.303541005       4.70371914       1.33461571    
 -0.640147984      -1.19813800     -0.606998026       4.70371914       1.33461571    
 -0.777105987      -1.11956596     -0.606999993       4.70371914       1.33461571    
 -0.769354999      -1.12002099     -0.303523988       4.70371914       1.33461571    
 -0.635528028      -1.19958198     -0.303541005       4.88260174       1.34335005    
 -0.630888999      -1.20308697       0.00000000       4.88260174       1.34335005    
 -0.494486004      -1.26955199       0.00000000       4.88260174       1.34335005    
 -0.495362997      -1.26606500     -0.303519011       4.88260174       1.34335005    
 -0.494486004      -1.26955199       0.00000000       4.87324905       1.34290671    
 -0.346311986      -1.31449997       0.00000000       4.87324905       1.34290671    
 -0.346753001      -1.31307304     -0.303510010       4.87324905       1.34290671    
 -0.495362997      -1.26606500     -0.303519011       4.87324905       1.34290671    
 -0.346753001      -1.31307304     -0.303510010       4.89315701       1.34392607    
 -0.193608001      -1.34425998     -0.303494990       4.89315701       1.34392607    
 -0.195028007      -1.34579206     -0.606999993       4.89315701       1.34392607    
 -0.348751009      -1.31376004     -0.606999993       4.89315701       1.34392607    
 -0.346753001      -1.31307304     -0.303510010       4.82141256       1.34048855    
 -0.348751009      -1.31376004     -0.606999993       4.82141256       1.34048855    
 -0.499298006      -1.26809204     -0.606999993       4.82141256       1.34048855    
 -0.495362997      -1.26606500     -0.303519011       4.82141256       1.34048855    
 -0.346753001      -1.31307304     -0.303510010       4.85371971       1.34197199    
 -0.346311986      -1.31449997       0.00000000       4.85371971       1.34197199    
 -0.193381995      -1.34595394       0.00000000       4.85371971       1.34197199    
 -0.193608001      -1.34425998     -0.303494990       4.85371971       1.34197199    
 -0.193381995      -1.34595394       0.00000000       2.27571344       1.06580305    
  -3.75179984E-02  -1.36130500       0.00000000       2.27571344       1.06580305    
  -3.73950005E-02  -1.35827899     -0.303512007       2.27571344       1.06580305    
 -0.193608001      -1.34425998     -0.303494990       2.27571344       1.06580305    
  -3.73950005E-02  -1.35827899     -0.303512007       4.84765053       1.34175897    
  0.119547002      -1.35239303     -0.303498000       4.84765053       1.34175897    
  0.119135000      -1.35326600     -0.606999993       4.84765053       1.34175897    
  -3.82840000E-02  -1.36122894     -0.606998980       4.84765053       1.34175897    
  -3.73950005E-02  -1.35827899     -0.303512007       4.47896338       1.32252479    
  -3.82840000E-02  -1.36122894     -0.606998980       4.47896338       1.32252479    
 -0.195028007      -1.34579206     -0.606999993       4.47896338       1.32252479    
 -0.193608001      -1.34425998     -0.303494990       4.47896338       1.32252479    
  -3.73950005E-02  -1.35827899     -0.303512007       2.29975224       1.07157707    
  -3.75179984E-02  -1.36130500       0.00000000       2.29975224       1.07157707    
  0.119788997      -1.35320199       0.00000000       2.29975224       1.07157707    
  0.119547002      -1.35239303     -0.303498000       2.29975224       1.07157707    
  0.119788997      -1.35320199       0.00000000       1.93831229      0.966713071    
  0.276576012      -1.33565402       0.00000000       1.93831229      0.966713071    
  0.275435001      -1.33191597     -0.303496003       1.93831229      0.966713071    
  0.119547002      -1.35239303     -0.303498000       1.93831229      0.966713071    
  0.275435001      -1.33191597     -0.303496003       1.51282442      0.756092727    
  0.427076995      -1.28898001     -0.303507000       1.51282442      0.756092727    
  0.427242011      -1.28995001     -0.606999993       1.51282442      0.756092727    
  0.275831014      -1.33588004     -0.606999993       1.51282442      0.756092727    
  0.275435001      -1.33191597     -0.303496003       1.45764112      0.715042651    
  0.275831014      -1.33588004     -0.606999993       1.45764112      0.715042651    
  0.119135000      -1.35326600     -0.606999993       1.45764112      0.715042651    
  0.119547002      -1.35239303     -0.303498000       1.45764112      0.715042651    
  0.275435001      -1.33191597     -0.303496003       1.98068357      0.981409013    
  0.276576012      -1.33565402       0.00000000       1.98068357      0.981409013    
  0.427509993      -1.28986895       0.00000000       1.98068357      0.981409013    
  0.427076995      -1.28898001     -0.303507000       1.98068357      0.981409013    
  0.427509993      -1.28986895       0.00000000       2.43044615       1.10068333    
  0.574636996      -1.23315501       0.00000000       2.43044615       1.10068333    
  0.573706985      -1.23136795     -0.303485990       2.43044615       1.10068333    
  0.427076995      -1.28898001     -0.303507000       2.43044615       1.10068333    
  0.573706985      -1.23136795     -0.303485990       1.74588430      0.888717413    
  0.712854981      -1.15688002     -0.303496987       1.74588430      0.888717413    
  0.713809013      -1.15876603     -0.606999993       1.74588430      0.888717413    
  0.574283004      -1.23334301     -0.606999993       1.74588430      0.888717413    
  0.573706985      -1.23136795     -0.303485990       1.56748950      0.792385578    
  0.574283004      -1.23334301     -0.606999993       1.56748950      0.792385578    
  0.427242011      -1.28995001     -0.606999993       1.56748950      0.792385578    
  0.427076995      -1.28898001     -0.303507000       1.56748950      0.792385578    
  0.573706985      -1.23136795     -0.303485990       2.77062964       1.16214716    
  0.574636996      -1.23315501       0.00000000       2.77062964       1.16214716    
  0.713741004      -1.15880203       0.00000000       2.77062964       1.16214716    
  0.712854981      -1.15688002     -0.303496987       2.77062964       1.16214716    
  0.713741004      -1.15880203       0.00000000       2.76705337       1.16158736    
  0.841937006      -1.06636095       0.00000000       2.76705337       1.16158736    
  0.841498017      -1.06573403     -0.303485990       2.76705337       1.16158736    
  0.712854981      -1.15688002     -0.303496987       2.76705337       1.16158736    
  0.841498017      -1.06573403     -0.303485990       2.18398809       1.04262817    
  0.960639000     -0.962104976     -0.303470999       2.18398809       1.04262817    
  0.964356005     -0.965893984     -0.606999993       2.18398809       1.04262817    
  0.841796994      -1.06647599     -0.606999993       2.18398809       1.04262817    
  0.841498017      -1.06573403     -0.303485990       2.16753411       1.03819633    
  0.841796994      -1.06647599     -0.606999993       2.16753411       1.03819633    
  0.713809013      -1.15876603     -0.606999993       2.16753411       1.03819633    
  0.712854981      -1.15688002     -0.303496987       2.16753411       1.03819633    
  0.841498017      -1.06573403     -0.303485990       1.79706717      0.911390603    
  0.841937006      -1.06636095       0.00000000       1.79706717      0.911390603    
  0.963932991     -0.966242015       0.00000000       1.79706717      0.911390603    
  0.960639000     -0.962104976     -0.303470999       1.79706717      0.911390603    
  0.963932991     -0.966242015       0.00000000       1.60079134      0.812388122    
   1.06506598     -0.843514979       0.00000000       1.60079134      0.812388122    
   1.06428695     -0.842682004     -0.303481996       1.60079134      0.812388122    
  0.960639000     -0.962104976     -0.303470999       1.60079134      0.812388122    
   1.06428695     -0.842682004     -0.303481996       2.44576788      -1.10401368    
   1.15591598     -0.714210987     -0.303485006       2.44576788      -1.10401368    
   1.15788805     -0.715448976     -0.606999993       2.44576788      -1.10401368    
   1.06537795     -0.843134999     -0.606999993       2.44576788      -1.10401368    
   1.06428695     -0.842682004     -0.303481996       2.13699126       1.02974319    
   1.06537795     -0.843134999     -0.606999993       2.13699126       1.02974319    
  0.964356005     -0.965893984     -0.606999993       2.13699126       1.02974319    
  0.960639000     -0.962104976     -0.303470999       2.13699126       1.02974319    
   1.06428695     -0.842682004     -0.303481996       1.52899694      0.766913593    
   1.06506598     -0.843514979       0.00000000       1.52899694      0.766913593    
   1.15792501     -0.715381980       0.00000000       1.52899694      0.766913593    
   1.15591598     -0.714210987     -0.303485006       1.52899694      0.766913593    
   1.15792501     -0.715381980       0.00000000       1.45562673      0.713063955    
   1.23237598     -0.576093972       0.00000000       1.45562673      0.713063955    
   1.23120904     -0.575251997     -0.303514004       1.45562673      0.713063955    
   1.15591598     -0.714210987     -0.303485006       1.45562673      0.713063955    
   1.23120904     -0.575251997     -0.303514004       2.61569238      -1.13648188    
   1.28844094     -0.428344995     -0.303512990       2.61569238      -1.13648188    
   1.28952503     -0.428642988     -0.606999993       2.61569238      -1.13648188    
   1.23252702     -0.575810015     -0.606999993       2.61569238      -1.13648188    
   1.23120904     -0.575251997     -0.303514004       2.50357270      -1.11561048    
   1.23252702     -0.575810015     -0.606999993       2.50357270      -1.11561048    
   1.15788805     -0.715448976     -0.606999993       2.50357270      -1.11561048    
   1.15591598     -0.714210987     -0.303485006       2.50357270      -1.11561048    
   1.23120904     -0.575251997     -0.303514004       3.43272901      -1.24429095    
   1.23237598     -0.576093972       0.00000000       3.43272901      -1.24429095    
   1.28947699     -0.428801000       0.00000000       3.43272901      -1.24429095    
   1.28844094     -0.428344995     -0.303512990       3.43272901      -1.24429095    
   1.28947699     -0.428801000       0.00000000       2.44496465      -1.10366988    
   1.33532202     -0.277671993       0.00000000       2.44496465      -1.10366988    
   1.33076501     -0.276203990     -0.303492010       2.44496465      -1.10366988    
   1.28844094     -0.428344995     -0.303512990       2.44496465      -1.10366988    
   1.33076501     -0.276203990     -0.303492010       8.49217415      -1.44082212    
   1.35229194     -0.119709998     -0.303514004       8.49217415      -1.44082212    
   1.35321999     -0.119608998     -0.606999993       8.49217415      -1.44082212    
   1.33549094     -0.277112991     -0.606999993       8.49217415      -1.44082212    
   1.33076501     -0.276203990     -0.303492010       3.05981517      -1.20283604    
   1.33549094     -0.277112991     -0.606999993       3.05981517      -1.20283604    
   1.28952503     -0.428642988     -0.606999993       3.05981517      -1.20283604    
   1.28844094     -0.428344995     -0.303512990       3.05981517      -1.20283604    
   1.33076501     -0.276203990     -0.303492010       2.03251648      0.998325884    
   1.33532202     -0.277671993       0.00000000       2.03251648      0.998325884    
   1.35319102     -0.119900003       0.00000000       2.03251648      0.998325884    
   1.35229194     -0.119709998     -0.303514004       2.03251648      0.998325884    
   1.35319102     -0.119900003       0.00000000       1.86691844      0.940029263    
   1.36124396       3.81390005E-02   0.00000000       1.86691844      0.940029263    
   1.35858905       3.79349999E-02 -0.303501010       1.86691844      0.940029263    
   1.35229194     -0.119709998     -0.303514004       1.86691844      0.940029263    
   1.35858905       3.79349999E-02 -0.303501010       4.92523384      -1.34541750    
   1.34464097      0.195331007     -0.303496003       4.92523384      -1.34541750    
   1.34573400      0.195616007     -0.606999993       4.92523384      -1.34541750    
   1.36126804       3.78950015E-02 -0.606999993       4.92523384      -1.34541750    
   1.35858905       3.79349999E-02 -0.303501010       4.60153818      -1.32925987    
   1.36126804       3.78950015E-02 -0.606999993       4.60153818      -1.32925987    
   1.35321999     -0.119608998     -0.606999993       4.60153818      -1.32925987    
   1.35229194     -0.119709998     -0.303514004       4.60153818      -1.32925987    
   1.35858905       3.79349999E-02 -0.303501010       4.34784126      -1.31476903    
   1.36124396       3.81390005E-02   0.00000000       4.34784126      -1.31476903    
   1.34575403      0.195406005       0.00000000       4.34784126      -1.31476903    
   1.34464097      0.195331007     -0.303496003       4.34784126      -1.31476903    
   1.34575403      0.195406005       0.00000000       4.40478706      -1.31815171    
   1.31339800      0.349945009       0.00000000       4.40478706      -1.31815171    
   1.31216300      0.349725991     -0.303487003       4.40478706      -1.31815171    
   1.34464097      0.195331007     -0.303496003       4.40478706      -1.31815171    
   1.31216300      0.349725991     -0.303487003       4.25730848      -1.30928349    
   1.26341999      0.500032008     -0.303494006       4.25730848      -1.30928349    
   1.26736605      0.501691997     -0.606999993       4.25730848      -1.30928349    
   1.31333196      0.350163996     -0.606999993       4.25730848      -1.30928349    
   1.31216300      0.349725991     -0.303487003       5.11604071      -1.35395908    
   1.31333196      0.350163996     -0.606999993       5.11604071      -1.35395908    
   1.34573400      0.195616007     -0.606999993       5.11604071      -1.35395908    
   1.34464097      0.195331007     -0.303496003       5.11604071      -1.35395908    
   1.31216300      0.349725991     -0.303487003       4.42006111      -1.31903994    
   1.31339800      0.349945009       0.00000000       4.42006111      -1.31903994    
   1.26751196      0.501209974       0.00000000       4.42006111      -1.31903994    
   1.26341999      0.500032008     -0.303494006       4.42006111      -1.31903994    
   1.26751196      0.501209974       0.00000000       1.56724453      0.791815937    
   1.19658697      0.643051028       0.00000000       1.56724453      0.791815937    
   1.19583094      0.642783999     -0.303505003       1.56724453      0.791815937    
   1.26341999      0.500032008     -0.303494006       1.56724453      0.791815937    
   1.19583094      0.642783999     -0.303505003       2.10964298      -1.02190614    
   1.11495602      0.778467000     -0.303483993       2.10964298      -1.02190614    
   1.11731696      0.779847026     -0.606999993       2.10964298      -1.02190614    
   1.19653296      0.643149972     -0.606999993       2.10964298      -1.02190614    
   1.19583094      0.642783999     -0.303505003       4.43426514      -1.31994843    
   1.19653296      0.643149972     -0.606999993       4.43426514      -1.31994843    
   1.26736605      0.501691997     -0.606999993       4.43426514      -1.31994843    
   1.26341999      0.500032008     -0.303494006       4.43426514      -1.31994843    
   1.19583094      0.642783999     -0.303505003       1.45597208      0.713246942    
   1.19658697      0.643051028       0.00000000       1.45597208      0.713246942    
   1.11705506      0.780165970       0.00000000       1.45597208      0.713246942    
   1.11495602      0.778467000     -0.303483993       1.45597208      0.713246942    
   1.11705506      0.780165970       0.00000000       1.34942830      0.616437733    
   1.01674199      0.902397990       0.00000000       1.34942830      0.616437733    
   1.01591504      0.901737988     -0.303478003       1.34942830      0.616437733    
   1.11495602      0.778467000     -0.303483993       1.34942830      0.616437733    
   1.01591504      0.901737988     -0.303478003       2.76845813       1.16191542    
  0.904204011       1.01322901     -0.303456992       2.76845813       1.16191542    
  0.905143023       1.01448905     -0.606999993       2.76845813       1.16191542    
   1.01659799      0.902572989     -0.606999993       2.76845813       1.16191542    
   1.01591504      0.901737988     -0.303478003       2.95311046       1.18885493    
   1.01659799      0.902572989     -0.606999993       2.95311046       1.18885493    
   1.11731696      0.779847026     -0.606999993       2.95311046       1.18885493    
   1.11495602      0.778467000     -0.303483993       2.95311046       1.18885493    
   1.01591504      0.901737988     -0.303478003       1.25457776      0.499918073    
   1.01674199      0.902397990       0.00000000       1.25457776      0.499918073    
  0.905318975       1.01434398       0.00000000       1.25457776      0.499918073    
  0.904204011       1.01322901     -0.303456992       1.25457776      0.499918073    
  0.905318975       1.01434398       0.00000000       3.36128235       1.23707366    
  0.782918990       1.11479497       0.00000000       3.36128235       1.23707366    
  0.780644000       1.11195600     -0.303485006       3.36128235       1.23707366    
  0.904204011       1.01322901     -0.303456992       3.36128235       1.23707366    
  0.780644000       1.11195600     -0.303485006       2.42705965       1.10009766    
  0.645825028       1.19414902     -0.303514004       2.42705965       1.10009766    
  0.646153986       1.19492805     -0.606999993       2.42705965       1.10009766    
  0.782611012       1.11504900     -0.606999993       2.42705965       1.10009766    
  0.780644000       1.11195600     -0.303485006       2.59175396       1.13217533    
  0.782611012       1.11504900     -0.606999993       2.59175396       1.13217533    
  0.905143023       1.01448905     -0.606999993       2.59175396       1.13217533    
  0.904204011       1.01322901     -0.303456992       2.59175396       1.13217533    
  0.780644000       1.11195600     -0.303485006       2.56640410       1.12739420    
  0.782918990       1.11479497       0.00000000       2.56640410       1.12739420    
  0.646345019       1.19482601       0.00000000       2.56640410       1.12739420    
  0.645825028       1.19414902     -0.303514004       2.56640410       1.12739420    
  0.646345019       1.19482601       0.00000000       1.19374216     -0.396671504    
  0.504974008       1.26637006       0.00000000       1.19374216     -0.396671504    
  0.503772974       1.26314998     -0.303521991       1.19374216     -0.396671504    
  0.645825028       1.19414902     -0.303514004       1.19374216     -0.396671504    
  0.503772974       1.26314998     -0.303521991       2.63284254       1.13948154    
  0.353130996       1.31116498     -0.303510994       2.63284254       1.13948154    
  0.353300005       1.31237996     -0.606999993       2.63284254       1.13948154    
  0.505183995       1.26630700     -0.606999993       2.63284254       1.13948154    
  0.503772974       1.26314998     -0.303521991       2.42721200       1.10012627    
  0.505183995       1.26630700     -0.606999993       2.42721200       1.10012627    
  0.646153986       1.19492805     -0.606999993       2.42721200       1.10012627    
  0.645825028       1.19414902     -0.303514004       2.42721200       1.10012627    
  0.503772974       1.26314998     -0.303521991       1.25639510     -0.502546072    
  0.504974008       1.26637006       0.00000000       1.25639510     -0.502546072    
  0.353493989       1.31232095       0.00000000       1.25639510     -0.502546072    
  0.353130996       1.31116498     -0.303510994       1.25639510     -0.502546072    
  0.353493989       1.31232095       0.00000000       1.31895697     -0.583046734    
  0.199064001       1.34539402       0.00000000       1.31895697     -0.583046734    
  0.198755994       1.34360003     -0.303496003       1.31895697     -0.583046734    
  0.353130996       1.31116498     -0.303510994       1.31895697     -0.583046734    
  0.198755994       1.34360003     -0.303496003       1.25707030     -0.504066706    
   4.12769988E-02   1.35817802     -0.303508013       1.25707030     -0.504066706    
   4.12410013E-02   1.36093795     -0.606999993       1.25707030     -0.504066706    
  0.199025005       1.34539795     -0.606999993       1.25707030     -0.504066706    
  0.198755994       1.34360003     -0.303496003       2.51218104       1.11725998    
  0.199025005       1.34539795     -0.606999993       2.51218104       1.11725998    
  0.353300005       1.31237996     -0.606999993       2.51218104       1.11725998    
  0.353130996       1.31116498     -0.303510994       2.51218104       1.11725998    
  0.198755994       1.34360003     -0.303496003       1.39515007     -0.661284268    
  0.199064001       1.34539402       0.00000000       1.39515007     -0.661284268    
   4.17769998E-02   1.36088502       0.00000000       1.39515007     -0.661284268    
   4.12769988E-02   1.35817802     -0.303508013       1.39515007     -0.661284268    
   4.17769998E-02   1.36088502       0.00000000       1.17835629     -0.364195555    
 -0.116410002       1.35353506       0.00000000       1.17835629     -0.364195555    
 -0.116471998       1.35271096     -0.303496987       1.17835629     -0.364195555    
   4.12769988E-02   1.35817802     -0.303508013       1.17835629     -0.364195555    
 -0.116471998       1.35271096     -0.303496987       1.19235480      0.394547701    
 -0.273027003       1.33229196     -0.303496003       1.19235480      0.394547701    
 -0.273876995       1.33647299     -0.606999993       1.19235480      0.394547701    
 -0.116722003       1.35350394     -0.606999993       1.19235480      0.394547701    
 -0.116471998       1.35271096     -0.303496987       1.34665167     -0.613952219    
 -0.116722003       1.35350394     -0.606999993       1.34665167     -0.613952219    
   4.12410013E-02   1.36093795     -0.606999993       1.34665167     -0.613952219    
   4.12769988E-02   1.35817802     -0.303508013       1.34665167     -0.613952219    
 -0.116471998       1.35271096     -0.303496987       1.19602263     -0.401128590    
 -0.116410002       1.35353506       0.00000000       1.19602263     -0.401128590    
 -0.274069011       1.33641505       0.00000000       1.19602263     -0.401128590    
 -0.273027003       1.33229196     -0.303496003       1.19602263     -0.401128590    
 -0.274069011       1.33641505       0.00000000       1.19661772     -0.402288407    
 -0.425588995       1.29045200       0.00000000       1.19661772     -0.402288407    
 -0.425258011       1.28953803     -0.303507000       1.19661772     -0.402288407    
 -0.273027003       1.33229196     -0.303496003       1.19661772     -0.402288407    
 -0.425258011       1.28953803     -0.303507000       1.20636606      0.421579123    
 -0.572302997       1.23206902     -0.303485990       1.20636606      0.421579123    
 -0.573064029       1.23399496     -0.606999993       1.20636606      0.421579123    
 -0.425651014       1.29043305     -0.606999993       1.20636606      0.421579123    
 -0.425258011       1.28953803     -0.303507000       1.18114054      0.371091664    
 -0.425651014       1.29043305     -0.606999993       1.18114054      0.371091664    
 -0.273876995       1.33647299     -0.606999993       1.18114054      0.371091664    
 -0.273027003       1.33229196     -0.303496003       1.18114054      0.371091664    
 -0.425258011       1.28953803     -0.303507000       1.22989559     -0.461793959    
 -0.425588995       1.29045200       0.00000000       1.22989559     -0.461793959    
 -0.573195994       1.23392498       0.00000000       1.22989559     -0.461793959    
 -0.572302997       1.23206902     -0.303485990       1.22989559     -0.461793959    
 -0.573195994       1.23392498       0.00000000       1.35465360     -0.621865749    
 -0.712655008       1.15938199       0.00000000       1.35465360     -0.621865749    
 -0.711889029       1.15749002     -0.303496003       1.35465360     -0.621865749    
 -0.572302997       1.23206902     -0.303485990       1.35465360     -0.621865749    
 -0.711889029       1.15749002     -0.303496003       1.16531456      0.334507346    
 -0.840825975       1.06629205     -0.303485990       1.16531456      0.334507346    
 -0.841368973       1.06682706     -0.606999993       1.16531456      0.334507346    
 -0.712980986       1.15920806     -0.606999993       1.16531456      0.334507346    
 -0.711889029       1.15749002     -0.303496003       1.11006606      0.129743636    
 -0.712980986       1.15920806     -0.606999993       1.11006606      0.129743636    
 -0.573064029       1.23399496     -0.606999993       1.11006606      0.129743636    
 -0.572302997       1.23206902     -0.303485990       1.11006606      0.129743636    
 -0.711889029       1.15749002     -0.303496003       1.15736377     -0.313254863    
 -0.712655008       1.15938199       0.00000000       1.15736377     -0.313254863    
 -0.841165006       1.06699395       0.00000000       1.15736377     -0.313254863    
 -0.840825975       1.06629205     -0.303485990       1.15736377     -0.313254863    
 -0.841165006       1.06699395       0.00000000       1.11290169     -0.146133646    
 -0.963320017      0.966744006       0.00000000       1.11290169     -0.146133646    
 -0.960084975      0.962615013     -0.303470999       1.11290169     -0.146133646    
 -0.840825975       1.06629205     -0.303485990       1.11290169     -0.146133646    
 -0.960084975      0.962615013     -0.303470999       1.22918200      0.461262941    
  -1.06383705      0.843237996     -0.303481996       1.22918200      0.461262941    
  -1.06481802      0.843816996     -0.606999993       1.22918200      0.461262941    
 -0.963873982      0.966289997     -0.606999993       1.22918200      0.461262941    
 -0.960084975      0.962615013     -0.303470999       1.22628963      0.456501484    
 -0.963873982      0.966289997     -0.606999993       1.22628963      0.456501484    
 -0.841368973       1.06682706     -0.606999993       1.22628963      0.456501484    
 -0.840825975       1.06629205     -0.303485990       1.22628963      0.456501484    
 -0.960084975      0.962615013     -0.303470999       1.23317146      0.467156857    
 -0.963320017      0.966744006       0.00000000       1.23317146      0.467156857    
  -1.06464398      0.844029009       0.00000000       1.23317146      0.467156857    
  -1.06383705      0.843237996     -0.303481996       1.23317146      0.467156857    
  -1.06464398      0.844029009       0.00000000       1.39008188      0.656602561    
  -1.15769398      0.715813994       0.00000000       1.39008188      0.656602561    
  -1.15564799      0.714680016     -0.303483993       1.39008188      0.656602561    
  -1.06383705      0.843237996     -0.303481996       1.39008188      0.656602561    
  -1.15564799      0.714680016     -0.303483993       2.42116976       1.09884620    
  -1.23108304      0.575536013     -0.303514004       2.42116976       1.09884620    
  -1.23232996      0.576179981     -0.606999993       2.42116976       1.09884620    
  -1.15756094      0.716063023     -0.606999993       2.42116976       1.09884620    
  -1.15564799      0.714680016     -0.303483993       1.46448994      0.720303297    
  -1.15756094      0.716063023     -0.606999993       1.46448994      0.720303297    
  -1.06481802      0.843816996     -0.606999993       1.46448994      0.720303297    
  -1.06383705      0.843237996     -0.303481996       1.46448994      0.720303297    
  -1.15564799      0.714680016     -0.303483993       1.56993783      0.793515682    
  -1.15769398      0.715813994       0.00000000       1.56993783      0.793515682    
  -1.23224795      0.576331973       0.00000000       1.56993783      0.793515682    
  -1.23108304      0.575536013     -0.303514004       1.56993783      0.793515682    
  -1.23224795      0.576331973       0.00000000       1.75647986      0.893276334    
  -1.28948605      0.428772002       0.00000000       1.75647986      0.893276334    
  -1.28842103      0.428404987     -0.303512990       1.75647986      0.893276334    
  -1.23108304      0.575536013     -0.303514004       1.75647986      0.893276334    
  -1.28842103      0.428404987     -0.303512990       2.31697392      -1.07575977    
  -1.33082402      0.275959998     -0.303492010       2.31697392      -1.07575977    
  -1.33550000      0.277083993     -0.606999993       2.31697392      -1.07575977    