 VARIABLES="X" "Y" "Z" "abs(p) (Pa)" "angle(p) (rad)"
ZONE N=   2720,E =    2069, F=FEPOINT, ET=QUADRILATERAL
 -0.767116010      -1.12776399       0.00000000       6770.54004      -1.48390496    
 -0.769354999      -1.12002099     -0.303523988       6770.54004      -1.48390496    
 -0.896136999      -1.02028203     -0.303463012       6770.54004      -1.48390496    
 -0.894908011      -1.02288902       0.00000000       6770.54004      -1.48390496    
 -0.767116010      -1.12776399       0.00000000       7329.78223      -1.48391068    
 -0.630888999      -1.20308697       0.00000000       7329.78223      -1.48391068    
 -0.635528028      -1.19958198     -0.303541005       7329.78223      -1.48391068    
 -0.769354999      -1.12002099     -0.303523988       7329.78223      -1.48391068    
 -0.635528028      -1.19958198     -0.303541005       7162.42725      -1.48595345    
 -0.495362997      -1.26606500     -0.303519011       7162.42725      -1.48595345    
 -0.499298006      -1.26809204     -0.606999993       7162.42725      -1.48595345    
 -0.640147984      -1.19813800     -0.606998026       7162.42725      -1.48595345    
 -0.635528028      -1.19958198     -0.303541005       6730.80811      -1.48598385    
 -0.640147984      -1.19813800     -0.606998026       6730.80811      -1.48598385    
 -0.777105987      -1.11956596     -0.606999993       6730.80811      -1.48598385    
 -0.769354999      -1.12002099     -0.303523988       6730.80811      -1.48598385    
 -0.635528028      -1.19958198     -0.303541005       7781.59033      -1.48394668    
 -0.630888999      -1.20308697       0.00000000       7781.59033      -1.48394668    
 -0.494486004      -1.26955199       0.00000000       7781.59033      -1.48394668    
 -0.495362997      -1.26606500     -0.303519011       7781.59033      -1.48394668    
 -0.494486004      -1.26955199       0.00000000       8140.78320      -1.48394108    
 -0.346311986      -1.31449997       0.00000000       8140.78320      -1.48394108    
 -0.346753001      -1.31307304     -0.303510010       8140.78320      -1.48394108    
 -0.495362997      -1.26606500     -0.303519011       8140.78320      -1.48394108    
 -0.346753001      -1.31307304     -0.303510010       7710.93555      -1.48595881    
 -0.193608001      -1.34425998     -0.303494990       7710.93555      -1.48595881    
 -0.195028007      -1.34579206     -0.606999993       7710.93555      -1.48595881    
 -0.348751009      -1.31376004     -0.606999993       7710.93555      -1.48595881    
 -0.346753001      -1.31307304     -0.303510010       7490.54004      -1.48597741    
 -0.348751009      -1.31376004     -0.606999993       7490.54004      -1.48597741    
 -0.499298006      -1.26809204     -0.606999993       7490.54004      -1.48597741    
 -0.495362997      -1.26606500     -0.303519011       7490.54004      -1.48597741    
 -0.346753001      -1.31307304     -0.303510010       8382.05273      -1.48398042    
 -0.346311986      -1.31449997       0.00000000       8382.05273      -1.48398042    
 -0.193381995      -1.34595394       0.00000000       8382.05273      -1.48398042    
 -0.193608001      -1.34425998     -0.303494990       8382.05273      -1.48398042    
 -0.193381995      -1.34595394       0.00000000       8520.85547      -1.48396575    
  -3.75179984E-02  -1.36130500       0.00000000       8520.85547      -1.48396575    
  -3.73950005E-02  -1.35827899     -0.303512007       8520.85547      -1.48396575    
 -0.193608001      -1.34425998     -0.303494990       8520.85547      -1.48396575    
  -3.73950005E-02  -1.35827899     -0.303512007       7855.33203      -1.48599958    
  0.119547002      -1.35239303     -0.303498000       7855.33203      -1.48599958    
  0.119135000      -1.35326600     -0.606999993       7855.33203      -1.48599958    
  -3.82840000E-02  -1.36122894     -0.606998980       7855.33203      -1.48599958    
  -3.73950005E-02  -1.35827899     -0.303512007       7843.84424      -1.48597646    
  -3.82840000E-02  -1.36122894     -0.606998980       7843.84424      -1.48597646    
 -0.195028007      -1.34579206     -0.606999993       7843.84424      -1.48597646    
 -0.193608001      -1.34425998     -0.303494990       7843.84424      -1.48597646    
  -3.73950005E-02  -1.35827899     -0.303512007       8509.74414      -1.48398030    
  -3.75179984E-02  -1.36130500       0.00000000       8509.74414      -1.48398030    
  0.119788997      -1.35320199       0.00000000       8509.74414      -1.48398030    
  0.119547002      -1.35239303     -0.303498000       8509.74414      -1.48398030    
  0.119788997      -1.35320199       0.00000000       8413.46777      -1.48394346    
  0.276576012      -1.33565402       0.00000000       8413.46777      -1.48394346    
  0.275435001      -1.33191597     -0.303496003       8413.46777      -1.48394346    
  0.119547002      -1.35239303     -0.303498000       8413.46777      -1.48394346    
  0.275435001      -1.33191597     -0.303496003       7602.75195      -1.48577273    
  0.427076995      -1.28898001     -0.303507000       7602.75195      -1.48577273    
  0.427242011      -1.28995001     -0.606999993       7602.75195      -1.48577273    
  0.275831014      -1.33588004     -0.606999993       7602.75195      -1.48577273    
  0.275435001      -1.33191597     -0.303496003       7791.29688      -1.48581004    
  0.275831014      -1.33588004     -0.606999993       7791.29688      -1.48581004    
  0.119135000      -1.35326600     -0.606999993       7791.29688      -1.48581004    
  0.119547002      -1.35239303     -0.303498000       7791.29688      -1.48581004    
  0.275435001      -1.33191597     -0.303496003       8198.06250      -1.48390985    
  0.276576012      -1.33565402       0.00000000       8198.06250      -1.48390985    
  0.427509993      -1.28986895       0.00000000       8198.06250      -1.48390985    
  0.427076995      -1.28898001     -0.303507000       8198.06250      -1.48390985    
  0.427509993      -1.28986895       0.00000000       7822.72363      -1.48394048    
  0.574636996      -1.23315501       0.00000000       7822.72363      -1.48394048    
  0.573706985      -1.23136795     -0.303485990       7822.72363      -1.48394048    
  0.427076995      -1.28898001     -0.303507000       7822.72363      -1.48394048    
  0.573706985      -1.23136795     -0.303485990       6910.68896      -1.48574030    
  0.712854981      -1.15688002     -0.303496987       6910.68896      -1.48574030    
  0.713809013      -1.15876603     -0.606999993       6910.68896      -1.48574030    
  0.574283004      -1.23334301     -0.606999993       6910.68896      -1.48574030    
  0.573706985      -1.23136795     -0.303485990       7294.08008      -1.48574233    
  0.574283004      -1.23334301     -0.606999993       7294.08008      -1.48574233    
  0.427242011      -1.28995001     -0.606999993       7294.08008      -1.48574233    
  0.427076995      -1.28898001     -0.303507000       7294.08008      -1.48574233    
  0.573706985      -1.23136795     -0.303485990       7380.79785      -1.48395669    
  0.574636996      -1.23315501       0.00000000       7380.79785      -1.48395669    
  0.713741004      -1.15880203       0.00000000       7380.79785      -1.48395669    
  0.712854981      -1.15688002     -0.303496987       7380.79785      -1.48395669    
  0.713741004      -1.15880203       0.00000000       6850.25977      -1.48393571    
  0.841937006      -1.06636095       0.00000000       6850.25977      -1.48393571    
  0.841498017      -1.06573403     -0.303485990       6850.25977      -1.48393571    
  0.712854981      -1.15688002     -0.303496987       6850.25977      -1.48393571    
  0.841498017      -1.06573403     -0.303485990       5868.57861      -1.48569226    
  0.960639000     -0.962104976     -0.303470999       5868.57861      -1.48569226    
  0.964356005     -0.965893984     -0.606999993       5868.57861      -1.48569226    
  0.841796994      -1.06647599     -0.606999993       5868.57861      -1.48569226    
  0.841498017      -1.06573403     -0.303485990       6427.02979      -1.48568749    
  0.841796994      -1.06647599     -0.606999993       6427.02979      -1.48568749    
  0.713809013      -1.15876603     -0.606999993       6427.02979      -1.48568749    
  0.712854981      -1.15688002     -0.303496987       6427.02979      -1.48568749    
  0.841498017      -1.06573403     -0.303485990       6296.94873      -1.48358703    
  0.841937006      -1.06636095       0.00000000       6296.94873      -1.48358703    
  0.963932991     -0.966242015       0.00000000       6296.94873      -1.48358703    
  0.960639000     -0.962104976     -0.303470999       6296.94873      -1.48358703    
  0.963932991     -0.966242015       0.00000000       5636.97705      -1.48344469    
   1.06506598     -0.843514979       0.00000000       5636.97705      -1.48344469    
   1.06428695     -0.842682004     -0.303481996       5636.97705      -1.48344469    
  0.960639000     -0.962104976     -0.303470999       5636.97705      -1.48344469    
   1.06428695     -0.842682004     -0.303481996       4494.67871      -1.48492372    
   1.15591598     -0.714210987     -0.303485006       4494.67871      -1.48492372    
   1.15788805     -0.715448976     -0.606999993       4494.67871      -1.48492372    
   1.06537795     -0.843134999     -0.606999993       4494.67871      -1.48492372    
   1.06428695     -0.842682004     -0.303481996       5236.90381      -1.48555899    
   1.06537795     -0.843134999     -0.606999993       5236.90381      -1.48555899    
  0.964356005     -0.965893984     -0.606999993       5236.90381      -1.48555899    
  0.960639000     -0.962104976     -0.303470999       5236.90381      -1.48555899    
   1.06428695     -0.842682004     -0.303481996       4829.01709      -1.48339927    
   1.06506598     -0.843514979       0.00000000       4829.01709      -1.48339927    
   1.15792501     -0.715381980       0.00000000       4829.01709      -1.48339927    
   1.15591598     -0.714210987     -0.303485006       4829.01709      -1.48339927    
   1.15792501     -0.715381980       0.00000000       4017.27051      -1.48321831    
   1.23237598     -0.576093972       0.00000000       4017.27051      -1.48321831    
   1.23120904     -0.575251997     -0.303514004       4017.27051      -1.48321831    
   1.15591598     -0.714210987     -0.303485006       4017.27051      -1.48321831    
   1.23120904     -0.575251997     -0.303514004       2899.16772      -1.48428881    
   1.28844094     -0.428344995     -0.303512990       2899.16772      -1.48428881    
   1.28952503     -0.428642988     -0.606999993       2899.16772      -1.48428881    
   1.23252702     -0.575810015     -0.606999993       2899.16772      -1.48428881    
   1.23120904     -0.575251997     -0.303514004       3727.22021      -1.48467898    
   1.23252702     -0.575810015     -0.606999993       3727.22021      -1.48467898    
   1.15788805     -0.715448976     -0.606999993       3727.22021      -1.48467898    
   1.15591598     -0.714210987     -0.303485006       3727.22021      -1.48467898    
   1.23120904     -0.575251997     -0.303514004       3126.18408      -1.48211074    
   1.23237598     -0.576093972       0.00000000       3126.18408      -1.48211074    
   1.28947699     -0.428801000       0.00000000       3126.18408      -1.48211074    
   1.28844094     -0.428344995     -0.303512990       3126.18408      -1.48211074    
   1.28947699     -0.428801000       0.00000000       2171.56641      -1.48203909    
   1.33532202     -0.277671993       0.00000000       2171.56641      -1.48203909    
   1.33076501     -0.276203990     -0.303492010       2171.56641      -1.48203909    
   1.28844094     -0.428344995     -0.303512990       2171.56641      -1.48203909    
   1.33076501     -0.276203990     -0.303492010       1128.32056      -1.48089898    
   1.35229194     -0.119709998     -0.303514004       1128.32056      -1.48089898    
   1.35321999     -0.119608998     -0.606999993       1128.32056      -1.48089898    
   1.33549094     -0.277112991     -0.606999993       1128.32056      -1.48089898    
   1.33076501     -0.276203990     -0.303492010       2027.89172      -1.48365510    
   1.33549094     -0.277112991     -0.606999993       2027.89172      -1.48365510    
   1.28952503     -0.428642988     -0.606999993       2027.89172      -1.48365510    
   1.28844094     -0.428344995     -0.303512990       2027.89172      -1.48365510    
   1.33076501     -0.276203990     -0.303492010       1230.33667      -1.48270166    
   1.33532202     -0.277671993       0.00000000       1230.33667      -1.48270166    
   1.35319102     -0.119900003       0.00000000       1230.33667      -1.48270166    
   1.35229194     -0.119709998     -0.303514004       1230.33667      -1.48270166    
   1.35319102     -0.119900003       0.00000000       221.638718      -1.47775662    
   1.36124396       3.81390005E-02   0.00000000       221.638718      -1.47775662    
   1.35858905       3.79349999E-02 -0.303501010       221.638718      -1.47775662    
   1.35229194     -0.119709998     -0.303514004       221.638718      -1.47775662    
   1.35858905       3.79349999E-02 -0.303501010       694.763062       1.65125072    
   1.34464097      0.195331007     -0.303496003       694.763062       1.65125072    
   1.34573400      0.195616007     -0.606999993       694.763062       1.65125072    
   1.36126804       3.78950015E-02 -0.606999993       694.763062       1.65125072    
   1.35858905       3.79349999E-02 -0.303501010       215.321365      -1.47359097    
   1.36126804       3.78950015E-02 -0.606999993       215.321365      -1.47359097    
   1.35321999     -0.119608998     -0.606999993       215.321365      -1.47359097    
   1.35229194     -0.119709998     -0.303514004       215.321365      -1.47359097    
   1.35858905       3.79349999E-02 -0.303501010       778.318665       1.65495944    
   1.36124396       3.81390005E-02   0.00000000       778.318665       1.65495944    
   1.34575403      0.195406005       0.00000000       778.318665       1.65495944    
   1.34464097      0.195331007     -0.303496003       778.318665       1.65495944    
   1.34575403      0.195406005       0.00000000       1763.73535       1.65647542    
   1.31339800      0.349945009       0.00000000       1763.73535       1.65647542    
   1.31216300      0.349725991     -0.303487003       1763.73535       1.65647542    
   1.34464097      0.195331007     -0.303496003       1763.73535       1.65647542    
   1.31216300      0.349725991     -0.303487003       2512.79272       1.65505099    
   1.26341999      0.500032008     -0.303494006       2512.79272       1.65505099    
   1.26736605      0.501691997     -0.606999993       2512.79272       1.65505099    
   1.31333196      0.350163996     -0.606999993       2512.79272       1.65505099    
   1.31216300      0.349725991     -0.303487003       1602.23230       1.65371192    
   1.31333196      0.350163996     -0.606999993       1602.23230       1.65371192    
   1.34573400      0.195616007     -0.606999993       1602.23230       1.65371192    
   1.34464097      0.195331007     -0.303496003       1602.23230       1.65371192    
   1.31216300      0.349725991     -0.303487003       2737.69360       1.65696502    
   1.31339800      0.349945009       0.00000000       2737.69360       1.65696502    
   1.26751196      0.501209974       0.00000000       2737.69360       1.65696502    
   1.26341999      0.500032008     -0.303494006       2737.69360       1.65696502    
   1.26751196      0.501209974       0.00000000       3623.85181       1.65725088    
   1.19658697      0.643051028       0.00000000       3623.85181       1.65725088    
   1.19583094      0.642783999     -0.303505003       3623.85181       1.65725088    
   1.26341999      0.500032008     -0.303494006       3623.85181       1.65725088    
   1.19583094      0.642783999     -0.303505003       4166.81592       1.65526938    
   1.11495602      0.778467000     -0.303483993       4166.81592       1.65526938    
   1.11731696      0.779847026     -0.606999993       4166.81592       1.65526938    
   1.19653296      0.643149972     -0.606999993       4166.81592       1.65526938    
   1.19583094      0.642783999     -0.303505003       3352.69141       1.65508807    
   1.19653296      0.643149972     -0.606999993       3352.69141       1.65508807    
   1.26736605      0.501691997     -0.606999993       3352.69141       1.65508807    
   1.26341999      0.500032008     -0.303494006       3352.69141       1.65508807    
   1.19583094      0.642783999     -0.303505003       4490.50879       1.65731251    
   1.19658697      0.643051028       0.00000000       4490.50879       1.65731251    
   1.11705506      0.780165970       0.00000000       4490.50879       1.65731251    
   1.11495602      0.778467000     -0.303483993       4490.50879       1.65731251    
   1.11705506      0.780165970       0.00000000       5270.55420       1.65732694    
   1.01674199      0.902397990       0.00000000       5270.55420       1.65732694    
   1.01591504      0.901737988     -0.303478003       5270.55420       1.65732694    
   1.11495602      0.778467000     -0.303483993       5270.55420       1.65732694    
   1.01591504      0.901737988     -0.303478003       5574.80713       1.65543306    
  0.904204011       1.01322901     -0.303456992       5574.80713       1.65543306    
  0.905143023       1.01448905     -0.606999993       5574.80713       1.65543306    
   1.01659799      0.902572989     -0.606999993       5574.80713       1.65543306    
   1.01591504      0.901737988     -0.303478003       4898.76807       1.65541184    
   1.01659799      0.902572989     -0.606999993       4898.76807       1.65541184    
   1.11731696      0.779847026     -0.606999993       4898.76807       1.65541184    
   1.11495602      0.778467000     -0.303483993       4898.76807       1.65541184    
   1.01591504      0.901737988     -0.303478003       5980.89648       1.65733194    
   1.01674199      0.902397990       0.00000000       5980.89648       1.65733194    
  0.905318975       1.01434398       0.00000000       5980.89648       1.65733194    
  0.904204011       1.01322901     -0.303456992       5980.89648       1.65733194    
  0.905318975       1.01434398       0.00000000       6655.12109       1.65738308    
  0.782918990       1.11479497       0.00000000       6655.12109       1.65738308    
  0.780644000       1.11195600     -0.303485006       6655.12109       1.65738308    
  0.904204011       1.01322901     -0.303456992       6655.12109       1.65738308    
  0.780644000       1.11195600     -0.303485006       6708.02979       1.65540087    
  0.645825028       1.19414902     -0.303514004       6708.02979       1.65540087    
  0.646153986       1.19492805     -0.606999993       6708.02979       1.65540087    
  0.782611012       1.11504900     -0.606999993       6708.02979       1.65540087    
  0.780644000       1.11195600     -0.303485006       6190.17285       1.65542495    
  0.782611012       1.11504900     -0.606999993       6190.17285       1.65542495    
  0.905143023       1.01448905     -0.606999993       6190.17285       1.65542495    
  0.904204011       1.01322901     -0.303456992       6190.17285       1.65542495    
  0.780644000       1.11195600     -0.303485006       7219.96387       1.65741420    
  0.782918990       1.11479497       0.00000000       7219.96387       1.65741420    
  0.646345019       1.19482601       0.00000000       7219.96387       1.65741420    
  0.645825028       1.19414902     -0.303514004       7219.96387       1.65741420    
  0.646345019       1.19482601       0.00000000       7724.34033       1.65743983    
  0.504974008       1.26637006       0.00000000       7724.34033       1.65743983    
  0.503772974       1.26314998     -0.303521991       7724.34033       1.65743983    
  0.645825028       1.19414902     -0.303514004       7724.34033       1.65743983    
  0.503772974       1.26314998     -0.303521991       7497.56934       1.65541995    
  0.353130996       1.31116498     -0.303510994       7497.56934       1.65541995    
  0.353300005       1.31237996     -0.606999993       7497.56934       1.65541995    
  0.505183995       1.26630700     -0.606999993       7497.56934       1.65541995    
  0.503772974       1.26314998     -0.303521991       7155.58105       1.65542698    
  0.505183995       1.26630700     -0.606999993       7155.58105       1.65542698    
  0.646153986       1.19492805     -0.606999993       7155.58105       1.65542698    
  0.645825028       1.19414902     -0.303514004       7155.58105       1.65542698    
  0.503772974       1.26314998     -0.303521991       8097.95459       1.65745473    
  0.504974008       1.26637006       0.00000000       8097.95459       1.65745473    
  0.353493989       1.31232095       0.00000000       8097.95459       1.65745473    
  0.353130996       1.31116498     -0.303510994       8097.95459       1.65745473    
  0.353493989       1.31232095       0.00000000       8349.40039       1.65744829    
  0.199064001       1.34539402       0.00000000       8349.40039       1.65744829    
  0.198755994       1.34360003     -0.303496003       8349.40039       1.65744829    
  0.353130996       1.31116498     -0.303510994       8349.40039       1.65744829    
  0.198755994       1.34360003     -0.303496003       7880.86133       1.65542126    
   4.12769988E-02   1.35817802     -0.303508013       7880.86133       1.65542126    
   4.12410013E-02   1.36093795     -0.606999993       7880.86133       1.65542126    
  0.199025005       1.34539795     -0.606999993       7880.86133       1.65542126    
  0.198755994       1.34360003     -0.303496003       7732.78467       1.65544558    
  0.199025005       1.34539795     -0.606999993       7732.78467       1.65544558    
  0.353300005       1.31237996     -0.606999993       7732.78467       1.65544558    
  0.353130996       1.31116498     -0.303510994       7732.78467       1.65544558    
  0.198755994       1.34360003     -0.303496003       8518.13672       1.65747190    
  0.199064001       1.34539402       0.00000000       8518.13672       1.65747190    
   4.17769998E-02   1.36088502       0.00000000       8518.13672       1.65747190    
   4.12769988E-02   1.35817802     -0.303508013       8518.13672       1.65747190    
   4.17769998E-02   1.36088502       0.00000000       8573.80762       1.65748072    
 -0.116410002       1.35353506       0.00000000       8573.80762       1.65748072    
 -0.116471998       1.35271096     -0.303496987       8573.80762       1.65748072    
   4.12769988E-02   1.35817802     -0.303508013       8573.80762       1.65748072    
 -0.116471998       1.35271096     -0.303496987       7853.99707       1.65565538    
 -0.273027003       1.33229196     -0.303496003       7853.99707       1.65565538    
 -0.273876995       1.33647299     -0.606999993       7853.99707       1.65565538    
 -0.116722003       1.35350394     -0.606999993       7853.99707       1.65565538    
 -0.116471998       1.35271096     -0.303496987       7908.87842       1.65542603    
 -0.116722003       1.35350394     -0.606999993       7908.87842       1.65542603    
   4.12410013E-02   1.36093795     -0.606999993       7908.87842       1.65542603    
   4.12769988E-02   1.35817802     -0.303508013       7908.87842       1.65542603    
 -0.116471998       1.35271096     -0.303496987       8547.46875       1.65752184    
 -0.116410002       1.35353506       0.00000000       8547.46875       1.65752184    
 -0.274069011       1.33641505       0.00000000       8547.46875       1.65752184    
 -0.273027003       1.33229196     -0.303496003       8547.46875       1.65752184    
 -0.274069011       1.33641505       0.00000000       8357.58984       1.65752459    
 -0.425588995       1.29045200       0.00000000       8357.58984       1.65752459    
 -0.425258011       1.28953803     -0.303507000       8357.58984       1.65752459    
 -0.273027003       1.33229196     -0.303496003       8357.58984       1.65752459    
 -0.425258011       1.28953803     -0.303507000       7357.03271       1.65567589    
 -0.572302997       1.23206902     -0.303485990       7357.03271       1.65567589    
 -0.573064029       1.23399496     -0.606999993       7357.03271       1.65567589    
 -0.425651014       1.29043305     -0.606999993       7357.03271       1.65567589    
 -0.425258011       1.28953803     -0.303507000       7671.05713       1.65567744    
 -0.425651014       1.29043305     -0.606999993       7671.05713       1.65567744    
 -0.273876995       1.33647299     -0.606999993       7671.05713       1.65567744    
 -0.273027003       1.33229196     -0.303496003       7671.05713       1.65567744    
 -0.425258011       1.28953803     -0.303507000       7966.31982       1.65742493    
 -0.425588995       1.29045200       0.00000000       7966.31982       1.65742493    
 -0.573195994       1.23392498       0.00000000       7966.31982       1.65742493    
 -0.572302997       1.23206902     -0.303485990       7966.31982       1.65742493    
 -0.573195994       1.23392498       0.00000000       7498.14209       1.65734911    
 -0.712655008       1.15938199       0.00000000       7498.14209       1.65734911    
 -0.711889029       1.15749002     -0.303496003       7498.14209       1.65734911    
 -0.572302997       1.23206902     -0.303485990       7498.14209       1.65734911    
 -0.711889029       1.15749002     -0.303496003       6465.19385       1.65570545    
 -0.840825975       1.06629205     -0.303485990       6465.19385       1.65570545    
 -0.841368973       1.06682706     -0.606999993       6465.19385       1.65570545    
 -0.712980986       1.15920806     -0.606999993       6465.19385       1.65570545    
 -0.711889029       1.15749002     -0.303496003       6963.11768       1.65567327    
 -0.712980986       1.15920806     -0.606999993       6963.11768       1.65567327    
 -0.573064029       1.23399496     -0.606999993       6963.11768       1.65567327    
 -0.572302997       1.23206902     -0.303485990       6963.11768       1.65567327    
 -0.711889029       1.15749002     -0.303496003       6909.94580       1.65727472    
 -0.712655008       1.15938199       0.00000000       6909.94580       1.65727472    
 -0.841165006       1.06699395       0.00000000       6909.94580       1.65727472    
 -0.840825975       1.06629205     -0.303485990       6909.94580       1.65727472    
 -0.841165006       1.06699395       0.00000000       6290.18408       1.65730393    
 -0.963320017      0.966744006       0.00000000       6290.18408       1.65730393    
 -0.960084975      0.962615013     -0.303470999       6290.18408       1.65730393    
 -0.840825975       1.06629205     -0.303485990       6290.18408       1.65730393    
 -0.960084975      0.962615013     -0.303470999       5253.87402       1.65573990    
  -1.06383705      0.843237996     -0.303481996       5253.87402       1.65573990    
  -1.06481802      0.843816996     -0.606999993       5253.87402       1.65573990    
 -0.963873982      0.966289997     -0.606999993       5253.87402       1.65573990    
 -0.960084975      0.962615013     -0.303470999       5891.80762       1.65564847    
 -0.963873982      0.966289997     -0.606999993       5891.80762       1.65564847    
 -0.841368973       1.06682706     -0.606999993       5891.80762       1.65564847    
 -0.840825975       1.06629205     -0.303485990       5891.80762       1.65564847    
 -0.960084975      0.962615013     -0.303470999       5620.13672       1.65733278    
 -0.963320017      0.966744006       0.00000000       5620.13672       1.65733278    
  -1.06464398      0.844029009       0.00000000       5620.13672       1.65733278    
  -1.06383705      0.843237996     -0.303481996       5620.13672       1.65733278    
  -1.06464398      0.844029009       0.00000000       4833.18994       1.65727603    
  -1.15769398      0.715813994       0.00000000       4833.18994       1.65727603    
  -1.15564799      0.714680016     -0.303483993       4833.18994       1.65727603    
  -1.06383705      0.843237996     -0.303481996       4833.18994       1.65727603    
  -1.15564799      0.714680016     -0.303483993       3748.78149       1.65586925    
  -1.23108304      0.575536013     -0.303514004       3748.78149       1.65586925    
  -1.23232996      0.576179981     -0.606999993       3748.78149       1.65586925    
  -1.15756094      0.716063023     -0.606999993       3748.78149       1.65586925    
  -1.15564799      0.714680016     -0.303483993       4523.79053       1.65579748    
  -1.15756094      0.716063023     -0.606999993       4523.79053       1.65579748    
  -1.06481802      0.843816996     -0.606999993       4523.79053       1.65579748    
  -1.06383705      0.843237996     -0.303481996       4523.79053       1.65579748    
  -1.15564799      0.714680016     -0.303483993       4037.17480       1.65730178    
  -1.15769398      0.715813994       0.00000000       4037.17480       1.65730178    
  -1.23224795      0.576331973       0.00000000       4037.17480       1.65730178    
  -1.23108304      0.575536013     -0.303514004       4037.17480       1.65730178    
  -1.23224795      0.576331973       0.00000000       3158.33203       1.65730250    
  -1.28948605      0.428772002       0.00000000       3158.33203       1.65730250    
  -1.28842103      0.428404987     -0.303512990       3158.33203       1.65730250    
  -1.23108304      0.575536013     -0.303514004       3158.33203       1.65730250    
  -1.28842103      0.428404987     -0.303512990       2063.34302       1.65594041    
  -1.33082402      0.275959998     -0.303492010       2063.34302       1.65594041    
  -1.33550000      0.277083993     -0.606999993       2063.34302       1.65594041    