 VARIABLES="X" "Y" "Z" "abs(p) (Pa)" "angle(p) (rad)"
ZONE N=   2720,E =    2069, F=FEPOINT, ET=QUADRILATERAL
 -0.767116010      -1.12776399       0.00000000       10657.7412      -2.12729335    
 -0.769354999      -1.12002099     -0.303523988       10657.7412      -2.12729335    
 -0.896136999      -1.02028203     -0.303463012       10657.7412      -2.12729335    
 -0.894908011      -1.02288902       0.00000000       10657.7412      -2.12729335    
 -0.767116010      -1.12776399       0.00000000       8899.56445      -2.07050133    
 -0.630888999      -1.20308697       0.00000000       8899.56445      -2.07050133    
 -0.635528028      -1.19958198     -0.303541005       8899.56445      -2.07050133    
 -0.769354999      -1.12002099     -0.303523988       8899.56445      -2.07050133    
 -0.635528028      -1.19958198     -0.303541005       4016.74756      -2.53733993    
 -0.495362997      -1.26606500     -0.303519011       4016.74756      -2.53733993    
 -0.499298006      -1.26809204     -0.606999993       4016.74756      -2.53733993    
 -0.640147984      -1.19813800     -0.606998026       4016.74756      -2.53733993    
 -0.635528028      -1.19958198     -0.303541005       4944.27539      -2.45262289    
 -0.640147984      -1.19813800     -0.606998026       4944.27539      -2.45262289    
 -0.777105987      -1.11956596     -0.606999993       4944.27539      -2.45262289    
 -0.769354999      -1.12002099     -0.303523988       4944.27539      -2.45262289    
 -0.635528028      -1.19958198     -0.303541005       6897.02637      -2.09489322    
 -0.630888999      -1.20308697       0.00000000       6897.02637      -2.09489322    
 -0.494486004      -1.26955199       0.00000000       6897.02637      -2.09489322    
 -0.495362997      -1.26606500     -0.303519011       6897.02637      -2.09489322    
 -0.494486004      -1.26955199       0.00000000       5245.47461      -2.26049209    
 -0.346311986      -1.31449997       0.00000000       5245.47461      -2.26049209    
 -0.346753001      -1.31307304     -0.303510010       5245.47461      -2.26049209    
 -0.495362997      -1.26606500     -0.303519011       5245.47461      -2.26049209    
 -0.346753001      -1.31307304     -0.303510010       3290.26416      -2.90193534    
 -0.193608001      -1.34425998     -0.303494990       3290.26416      -2.90193534    
 -0.195028007      -1.34579206     -0.606999993       3290.26416      -2.90193534    
 -0.348751009      -1.31376004     -0.606999993       3290.26416      -2.90193534    
 -0.346753001      -1.31307304     -0.303510010       3477.40356      -2.70870066    
 -0.348751009      -1.31376004     -0.606999993       3477.40356      -2.70870066    
 -0.499298006      -1.26809204     -0.606999993       3477.40356      -2.70870066    
 -0.495362997      -1.26606500     -0.303519011       3477.40356      -2.70870066    
 -0.346753001      -1.31307304     -0.303510010       4188.92334      -2.57142925    
 -0.346311986      -1.31449997       0.00000000       4188.92334      -2.57142925    
 -0.193381995      -1.34595394       0.00000000       4188.92334      -2.57142925    
 -0.193608001      -1.34425998     -0.303494990       4188.92334      -2.57142925    
 -0.193381995      -1.34595394       0.00000000       3717.23535      -2.90799141    
  -3.75179984E-02  -1.36130500       0.00000000       3717.23535      -2.90799141    
  -3.73950005E-02  -1.35827899     -0.303512007       3717.23535      -2.90799141    
 -0.193608001      -1.34425998     -0.303494990       3717.23535      -2.90799141    
  -3.73950005E-02  -1.35827899     -0.303512007       3239.66602       3.13646412    
  0.119547002      -1.35239303     -0.303498000       3239.66602       3.13646412    
  0.119135000      -1.35326600     -0.606999993       3239.66602       3.13646412    
  -3.82840000E-02  -1.36122894     -0.606998980       3239.66602       3.13646412    
  -3.73950005E-02  -1.35827899     -0.303512007       3286.77026      -3.04638815    
  -3.82840000E-02  -1.36122894     -0.606998980       3286.77026      -3.04638815    
 -0.195028007      -1.34579206     -0.606999993       3286.77026      -3.04638815    
 -0.193608001      -1.34425998     -0.303494990       3286.77026      -3.04638815    
  -3.73950005E-02  -1.35827899     -0.303512007       3290.50684       3.06852460    
  -3.75179984E-02  -1.36130500       0.00000000       3290.50684       3.06852460    
  0.119788997      -1.35320199       0.00000000       3290.50684       3.06852460    
  0.119547002      -1.35239303     -0.303498000       3290.50684       3.06852460    
  0.119788997      -1.35320199       0.00000000       2891.80249       2.59170771    
  0.276576012      -1.33565402       0.00000000       2891.80249       2.59170771    
  0.275435001      -1.33191597     -0.303496003       2891.80249       2.59170771    
  0.119547002      -1.35239303     -0.303498000       2891.80249       2.59170771    
  0.275435001      -1.33191597     -0.303496003       2998.58936       2.81665993    
  0.427076995      -1.28898001     -0.303507000       2998.58936       2.81665993    
  0.427242011      -1.28995001     -0.606999993       2998.58936       2.81665993    
  0.275831014      -1.33588004     -0.606999993       2998.58936       2.81665993    
  0.275435001      -1.33191597     -0.303496003       3093.38306       3.00427175    
  0.275831014      -1.33588004     -0.606999993       3093.38306       3.00427175    
  0.119135000      -1.35326600     -0.606999993       3093.38306       3.00427175    
  0.119547002      -1.35239303     -0.303498000       3093.38306       3.00427175    
  0.275435001      -1.33191597     -0.303496003       3268.44287       2.03184724    
  0.276576012      -1.33565402       0.00000000       3268.44287       2.03184724    
  0.427509993      -1.28986895       0.00000000       3268.44287       2.03184724    
  0.427076995      -1.28898001     -0.303507000       3268.44287       2.03184724    
  0.427509993      -1.28986895       0.00000000       4773.65576       1.75020325    
  0.574636996      -1.23315501       0.00000000       4773.65576       1.75020325    
  0.573706985      -1.23136795     -0.303485990       4773.65576       1.75020325    
  0.427076995      -1.28898001     -0.303507000       4773.65576       1.75020325    
  0.573706985      -1.23136795     -0.303485990       4017.05957       2.43216491    
  0.712854981      -1.15688002     -0.303496987       4017.05957       2.43216491    
  0.713809013      -1.15876603     -0.606999993       4017.05957       2.43216491    
  0.574283004      -1.23334301     -0.606999993       4017.05957       2.43216491    
  0.573706985      -1.23136795     -0.303485990       3293.43872       2.58573151    
  0.574283004      -1.23334301     -0.606999993       3293.43872       2.58573151    
  0.427242011      -1.28995001     -0.606999993       3293.43872       2.58573151    
  0.427076995      -1.28898001     -0.303507000       3293.43872       2.58573151    
  0.573706985      -1.23136795     -0.303485990       6630.92139       1.71155882    
  0.574636996      -1.23315501       0.00000000       6630.92139       1.71155882    
  0.713741004      -1.15880203       0.00000000       6630.92139       1.71155882    
  0.712854981      -1.15688002     -0.303496987       6630.92139       1.71155882    
  0.713741004      -1.15880203       0.00000000       8281.92578       1.79837656    
  0.841937006      -1.06636095       0.00000000       8281.92578       1.79837656    
  0.841498017      -1.06573403     -0.303485990       8281.92578       1.79837656    
  0.712854981      -1.15688002     -0.303496987       8281.92578       1.79837656    
  0.841498017      -1.06573403     -0.303485990       6104.27539       2.43038869    
  0.960639000     -0.962104976     -0.303470999       6104.27539       2.43038869    
  0.964356005     -0.965893984     -0.606999993       6104.27539       2.43038869    
  0.841796994      -1.06647599     -0.606999993       6104.27539       2.43038869    
  0.841498017      -1.06573403     -0.303485990       5023.68408       2.39194441    
  0.841796994      -1.06647599     -0.606999993       5023.68408       2.39194441    
  0.713809013      -1.15876603     -0.606999993       5023.68408       2.39194441    
  0.712854981      -1.15688002     -0.303496987       5023.68408       2.39194441    
  0.841498017      -1.06573403     -0.303485990       9540.43359       1.94646037    
  0.841937006      -1.06636095       0.00000000       9540.43359       1.94646037    
  0.963932991     -0.966242015       0.00000000       9540.43359       1.94646037    
  0.960639000     -0.962104976     -0.303470999       9540.43359       1.94646037    
  0.963932991     -0.966242015       0.00000000       10329.1006       2.13446355    
   1.06506598     -0.843514979       0.00000000       10329.1006       2.13446355    
   1.06428695     -0.842682004     -0.303481996       10329.1006       2.13446355    
  0.960639000     -0.962104976     -0.303470999       10329.1006       2.13446355    
   1.06428695     -0.842682004     -0.303481996       8016.07520       2.60508418    
   1.15591598     -0.714210987     -0.303485006       8016.07520       2.60508418    
   1.15788805     -0.715448976     -0.606999993       8016.07520       2.60508418    
   1.06537795     -0.843134999     -0.606999993       8016.07520       2.60508418    
   1.06428695     -0.842682004     -0.303481996       7118.71973       2.50636482    
   1.06537795     -0.843134999     -0.606999993       7118.71973       2.50636482    
  0.964356005     -0.965893984     -0.606999993       7118.71973       2.50636482    
  0.960639000     -0.962104976     -0.303470999       7118.71973       2.50636482    
   1.06428695     -0.842682004     -0.303481996       10627.6338       2.36234927    
   1.06506598     -0.843514979       0.00000000       10627.6338       2.36234927    
   1.15792501     -0.715381980       0.00000000       10627.6338       2.36234927    
   1.15591598     -0.714210987     -0.303485006       10627.6338       2.36234927    
   1.15792501     -0.715381980       0.00000000       10982.5176       2.59663391    
   1.23237598     -0.576093972       0.00000000       10982.5176       2.59663391    
   1.23120904     -0.575251997     -0.303514004       10982.5176       2.59663391    
   1.15591598     -0.714210987     -0.303485006       10982.5176       2.59663391    
   1.23120904     -0.575251997     -0.303514004       9343.76270       2.78559899    
   1.28844094     -0.428344995     -0.303512990       9343.76270       2.78559899    
   1.28952503     -0.428642988     -0.606999993       9343.76270       2.78559899    
   1.23252702     -0.575810015     -0.606999993       9343.76270       2.78559899    
   1.23120904     -0.575251997     -0.303514004       8751.87793       2.70044470    
   1.23252702     -0.575810015     -0.606999993       8751.87793       2.70044470    
   1.15788805     -0.715448976     -0.606999993       8751.87793       2.70044470    
   1.15591598     -0.714210987     -0.303485006       8751.87793       2.70044470    
   1.23120904     -0.575251997     -0.303514004       11524.4287       2.81269217    
   1.23237598     -0.576093972       0.00000000       11524.4287       2.81269217    
   1.28947699     -0.428801000       0.00000000       11524.4287       2.81269217    
   1.28844094     -0.428344995     -0.303512990       11524.4287       2.81269217    
   1.28947699     -0.428801000       0.00000000       12073.8662       2.98571634    
   1.33532202     -0.277671993       0.00000000       12073.8662       2.98571634    
   1.33076501     -0.276203990     -0.303492010       12073.8662       2.98571634    
   1.28844094     -0.428344995     -0.303512990       12073.8662       2.98571634    
   1.33076501     -0.276203990     -0.303492010       10045.4512       2.89642692    
   1.35229194     -0.119709998     -0.303514004       10045.4512       2.89642692    
   1.35321999     -0.119608998     -0.606999993       10045.4512       2.89642692    
   1.33549094     -0.277112991     -0.606999993       10045.4512       2.89642692    
   1.33076501     -0.276203990     -0.303492010       9771.90039       2.85337305    
   1.33549094     -0.277112991     -0.606999993       9771.90039       2.85337305    
   1.28952503     -0.428642988     -0.606999993       9771.90039       2.85337305    
   1.28844094     -0.428344995     -0.303512990       9771.90039       2.85337305    
   1.33076501     -0.276203990     -0.303492010       12516.1094       3.09131861    
   1.33532202     -0.277671993       0.00000000       12516.1094       3.09131861    
   1.35319102     -0.119900003       0.00000000       12516.1094       3.09131861    
   1.35229194     -0.119709998     -0.303514004       12516.1094       3.09131861    
   1.35319102     -0.119900003       0.00000000       12735.3848       3.13545036    
   1.36124396       3.81390005E-02   0.00000000       12735.3848       3.13545036    
   1.35858905       3.79349999E-02 -0.303501010       12735.3848       3.13545036    
   1.35229194     -0.119709998     -0.303514004       12735.3848       3.13545036    
   1.35858905       3.79349999E-02 -0.303501010       10133.9502       2.91053605    
   1.34464097      0.195331007     -0.303496003       10133.9502       2.91053605    
   1.34573400      0.195616007     -0.606999993       10133.9502       2.91053605    
   1.36126804       3.78950015E-02 -0.606999993       10133.9502       2.91053605    
   1.35858905       3.79349999E-02 -0.303501010       10170.8027       2.91636443    
   1.36126804       3.78950015E-02 -0.606999993       10170.8027       2.91636443    
   1.35321999     -0.119608998     -0.606999993       10170.8027       2.91636443    
   1.35229194     -0.119709998     -0.303514004       10170.8027       2.91636443    
   1.35858905       3.79349999E-02 -0.303501010       12673.0684       3.12179852    
   1.36124396       3.81390005E-02   0.00000000       12673.0684       3.12179852    
   1.34575403      0.195406005       0.00000000       12673.0684       3.12179852    
   1.34464097      0.195331007     -0.303496003       12673.0684       3.12179852    
   1.34575403      0.195406005       0.00000000       12418.6377       3.04096270    
   1.31339800      0.349945009       0.00000000       12418.6377       3.04096270    
   1.31216300      0.349725991     -0.303487003       12418.6377       3.04096270    
   1.34464097      0.195331007     -0.303496003       12418.6377       3.04096270    
   1.31216300      0.349725991     -0.303487003       9614.60840       2.82176447    
   1.26341999      0.500032008     -0.303494006       9614.60840       2.82176447    
   1.26736605      0.501691997     -0.606999993       9614.60840       2.82176447    
   1.31333196      0.350163996     -0.606999993       9614.60840       2.82176447    
   1.31216300      0.349725991     -0.303487003       9959.09570       2.87821889    
   1.31333196      0.350163996     -0.606999993       9959.09570       2.87821889    
   1.34573400      0.195616007     -0.606999993       9959.09570       2.87821889    
   1.34464097      0.195331007     -0.303496003       9959.09570       2.87821889    
   1.31216300      0.349725991     -0.303487003       11949.4805       2.90228105    
   1.31339800      0.349945009       0.00000000       11949.4805       2.90228105    
   1.26751196      0.501209974       0.00000000       11949.4805       2.90228105    
   1.26341999      0.500032008     -0.303494006       11949.4805       2.90228105    
   1.26751196      0.501209974       0.00000000       11564.5391       2.71248794    
   1.19658697      0.643051028       0.00000000       11564.5391       2.71248794    
   1.19583094      0.642783999     -0.303505003       11564.5391       2.71248794    
   1.26341999      0.500032008     -0.303494006       11564.5391       2.71248794    
   1.19583094      0.642783999     -0.303505003       8476.34277       2.65323496    
   1.11495602      0.778467000     -0.303483993       8476.34277       2.65323496    
   1.11731696      0.779847026     -0.606999993       8476.34277       2.65323496    
   1.19653296      0.643149972     -0.606999993       8476.34277       2.65323496    
   1.19583094      0.642783999     -0.303505003       9127.07617       2.74646807    
   1.19653296      0.643149972     -0.606999993       9127.07617       2.74646807    
   1.26736605      0.501691997     -0.606999993       9127.07617       2.74646807    
   1.26341999      0.500032008     -0.303494006       9127.07617       2.74646807    
   1.19583094      0.642783999     -0.303505003       11199.6455       2.48193502    
   1.19658697      0.643051028       0.00000000       11199.6455       2.48193502    
   1.11705506      0.780165970       0.00000000       11199.6455       2.48193502    
   1.11495602      0.778467000     -0.303483993       11199.6455       2.48193502    
   1.11705506      0.780165970       0.00000000       10711.4902       2.25510979    
   1.01674199      0.902397990       0.00000000       10711.4902       2.25510979    
   1.01591504      0.901737988     -0.303478003       10711.4902       2.25510979    
   1.11495602      0.778467000     -0.303483993       10711.4902       2.25510979    
   1.01591504      0.901737988     -0.303478003       6671.64062       2.46464181    
  0.904204011       1.01322901     -0.303456992       6671.64062       2.46464181    
  0.905143023       1.01448905     -0.606999993       6671.64062       2.46464181    
   1.01659799      0.902572989     -0.606999993       6671.64062       2.46464181    
   1.01591504      0.901737988     -0.303478003       7646.77344       2.55697107    
   1.01659799      0.902572989     -0.606999993       7646.77344       2.55697107    
   1.11731696      0.779847026     -0.606999993       7646.77344       2.55697107    
   1.11495602      0.778467000     -0.303483993       7646.77344       2.55697107    
   1.01591504      0.901737988     -0.303478003       10066.5225       2.04144812    
   1.01674199      0.902397990       0.00000000       10066.5225       2.04144812    
  0.905318975       1.01434398       0.00000000       10066.5225       2.04144812    
  0.904204011       1.01322901     -0.303456992       10066.5225       2.04144812    
  0.905318975       1.01434398       0.00000000       9191.16211       1.85321343    
  0.782918990       1.11479497       0.00000000       9191.16211       1.85321343    
  0.780644000       1.11195600     -0.303485006       9191.16211       1.85321343    
  0.904204011       1.01322901     -0.303456992       9191.16211       1.85321343    
  0.780644000       1.11195600     -0.303485006       4521.97949       2.38838768    
  0.645825028       1.19414902     -0.303514004       4521.97949       2.38838768    
  0.646153986       1.19492805     -0.606999993       4521.97949       2.38838768    
  0.782611012       1.11504900     -0.606999993       4521.97949       2.38838768    
  0.780644000       1.11195600     -0.303485006       5591.72119       2.39594412    
  0.782611012       1.11504900     -0.606999993       5591.72119       2.39594412    
  0.905143023       1.01448905     -0.606999993       5591.72119       2.39594412    
  0.904204011       1.01322901     -0.303456992       5591.72119       2.39594412    
  0.780644000       1.11195600     -0.303485006       7739.42725       1.72713411    
  0.782918990       1.11479497       0.00000000       7739.42725       1.72713411    
  0.646345019       1.19482601       0.00000000       7739.42725       1.72713411    
  0.645825028       1.19414902     -0.303514004       7739.42725       1.72713411    
  0.646345019       1.19482601       0.00000000       5911.29102       1.67739356    
  0.504974008       1.26637006       0.00000000       5911.29102       1.67739356    
  0.503772974       1.26314998     -0.303521991       5911.29102       1.67739356    
  0.645825028       1.19414902     -0.303514004       5911.29102       1.67739356    
  0.503772974       1.26314998     -0.303521991       3081.93188       2.67583060    
  0.353130996       1.31116498     -0.303510994       3081.93188       2.67583060    
  0.353300005       1.31237996     -0.606999993       3081.93188       2.67583060    
  0.505183995       1.26630700     -0.606999993       3081.93188       2.67583060    
  0.503772974       1.26314998     -0.303521991       3595.97241       2.47453213    
  0.505183995       1.26630700     -0.606999993       3595.97241       2.47453213    
  0.646153986       1.19492805     -0.606999993       3595.97241       2.47453213    
  0.645825028       1.19414902     -0.303514004       3595.97241       2.47453213    
  0.503772974       1.26314998     -0.303521991       4072.15576       1.81473601    
  0.504974008       1.26637006       0.00000000       4072.15576       1.81473601    
  0.353493989       1.31232095       0.00000000       4072.15576       1.81473601    
  0.353130996       1.31116498     -0.303510994       4072.15576       1.81473601    
  0.353493989       1.31232095       0.00000000       2856.58911       2.28365898    
  0.199064001       1.34539402       0.00000000       2856.58911       2.28365898    
  0.198755994       1.34360003     -0.303496003       2856.58911       2.28365898    
  0.353130996       1.31116498     -0.303510994       2856.58911       2.28365898    
  0.198755994       1.34360003     -0.303496003       3129.95288       3.07346201    
   4.12769988E-02   1.35817802     -0.303508013       3129.95288       3.07346201    
   4.12410013E-02   1.36093795     -0.606999993       3129.95288       3.07346201    
  0.199025005       1.34539795     -0.606999993       3129.95288       3.07346201    
  0.198755994       1.34360003     -0.303496003       2989.86890       2.90900636    
  0.199025005       1.34539795     -0.606999993       2989.86890       2.90900636    
  0.353300005       1.31237996     -0.606999993       2989.86890       2.90900636    
  0.353130996       1.31116498     -0.303510994       2989.86890       2.90900636    
  0.198755994       1.34360003     -0.303496003       2908.11694       2.86916113    
  0.199064001       1.34539402       0.00000000       2908.11694       2.86916113    
   4.17769998E-02   1.36088502       0.00000000       2908.11694       2.86916113    
   4.12769988E-02   1.35817802     -0.303508013       2908.11694       2.86916113    
   4.17769998E-02   1.36088502       0.00000000       3435.71802      -3.04115844    
 -0.116410002       1.35353506       0.00000000       3435.71802      -3.04115844    
 -0.116471998       1.35271096     -0.303496987       3435.71802      -3.04115844    
   4.12769988E-02   1.35817802     -0.303508013       3435.71802      -3.04115844    
 -0.116471998       1.35271096     -0.303496987       3260.65576      -2.97881675    
 -0.273027003       1.33229196     -0.303496003       3260.65576      -2.97881675    
 -0.273876995       1.33647299     -0.606999993       3260.65576      -2.97881675    
 -0.116722003       1.35350394     -0.606999993       3260.65576      -2.97881675    
 -0.116471998       1.35271096     -0.303496987       3242.30640      -3.10370278    
 -0.116722003       1.35350394     -0.606999993       3242.30640      -3.10370278    
   4.12410013E-02   1.36093795     -0.606999993       3242.30640      -3.10370278    
   4.12769988E-02   1.35817802     -0.303508013       3242.30640      -3.10370278    
 -0.116471998       1.35271096     -0.303496987       3962.30347      -2.69919872    
 -0.116410002       1.35353506       0.00000000       3962.30347      -2.69919872    
 -0.274069011       1.33641505       0.00000000       3962.30347      -2.69919872    
 -0.273027003       1.33229196     -0.303496003       3962.30347      -2.69919872    
 -0.274069011       1.33641505       0.00000000       4620.33398      -2.37986755    
 -0.425588995       1.29045200       0.00000000       4620.33398      -2.37986755    
 -0.425258011       1.28953803     -0.303507000       4620.33398      -2.37986755    
 -0.273027003       1.33229196     -0.303496003       4620.33398      -2.37986755    
 -0.425258011       1.28953803     -0.303507000       3651.84985      -2.62148643    
 -0.572302997       1.23206902     -0.303485990       3651.84985      -2.62148643    
 -0.573064029       1.23399496     -0.606999993       3651.84985      -2.62148643    
 -0.425651014       1.29043305     -0.606999993       3651.84985      -2.62148643    
 -0.425258011       1.28953803     -0.303507000       3288.34497      -2.81593442    
 -0.425651014       1.29043305     -0.606999993       3288.34497      -2.81593442    
 -0.273876995       1.33647299     -0.606999993       3288.34497      -2.81593442    
 -0.273027003       1.33229196     -0.303496003       3288.34497      -2.81593442    
 -0.425258011       1.28953803     -0.303507000       5986.72363      -2.15225220    
 -0.425588995       1.29045200       0.00000000       5986.72363      -2.15225220    
 -0.573195994       1.23392498       0.00000000       5986.72363      -2.15225220    
 -0.572302997       1.23206902     -0.303485990       5986.72363      -2.15225220    
 -0.573195994       1.23392498       0.00000000       7811.35693      -2.06879020    
 -0.712655008       1.15938199       0.00000000       7811.35693      -2.06879020    
 -0.711889029       1.15749002     -0.303496003       7811.35693      -2.06879020    
 -0.572302997       1.23206902     -0.303485990       7811.35693      -2.06879020    
 -0.711889029       1.15749002     -0.303496003       5404.91650      -2.45060325    
 -0.840825975       1.06629205     -0.303485990       5404.91650      -2.45060325    
 -0.841368973       1.06682706     -0.606999993       5404.91650      -2.45060325    
 -0.712980986       1.15920806     -0.606999993       5404.91650      -2.45060325    
 -0.711889029       1.15749002     -0.303496003       4392.72461      -2.48880768    
 -0.712980986       1.15920806     -0.606999993       4392.72461      -2.48880768    
 -0.573064029       1.23399496     -0.606999993       4392.72461      -2.48880768    
 -0.572302997       1.23206902     -0.303485990       4392.72461      -2.48880768    
 -0.711889029       1.15749002     -0.303496003       9532.69629      -2.09954953    
 -0.712655008       1.15938199       0.00000000       9532.69629      -2.09954953    
 -0.841165006       1.06699395       0.00000000       9532.69629      -2.09954953    
 -0.840825975       1.06629205     -0.303485990       9532.69629      -2.09954953    
 -0.841165006       1.06699395       0.00000000       10979.6592      -2.20115280    
 -0.963320017      0.966744006       0.00000000       10979.6592      -2.20115280    
 -0.960084975      0.962615013     -0.303470999       10979.6592      -2.20115280    
 -0.840825975       1.06629205     -0.303485990       10979.6592      -2.20115280    
 -0.960084975      0.962615013     -0.303470999       7561.71826      -2.55120492    
  -1.06383705      0.843237996     -0.303481996       7561.71826      -2.55120492    
  -1.06481802      0.843816996     -0.606999993       7561.71826      -2.55120492    
 -0.963873982      0.966289997     -0.606999993       7561.71826      -2.55120492    
 -0.960084975      0.962615013     -0.303470999       6510.50977      -2.48374534    
 -0.963873982      0.966289997     -0.606999993       6510.50977      -2.48374534    
 -0.841368973       1.06682706     -0.606999993       6510.50977      -2.48374534    
 -0.840825975       1.06629205     -0.303485990       6510.50977      -2.48374534    
 -0.960084975      0.962615013     -0.303470999       12007.2764      -2.33560538    
 -0.963320017      0.966744006       0.00000000       12007.2764      -2.33560538    
  -1.06464398      0.844029009       0.00000000       12007.2764      -2.33560538    
  -1.06383705      0.843237996     -0.303481996       12007.2764      -2.33560538    
  -1.06464398      0.844029009       0.00000000       12460.9873      -2.49900413    
  -1.15769398      0.715813994       0.00000000       12460.9873      -2.49900413    
  -1.15564799      0.714680016     -0.303483993       12460.9873      -2.49900413    
  -1.06383705      0.843237996     -0.303481996       12460.9873      -2.49900413    
  -1.15564799      0.714680016     -0.303483993       9249.62988      -2.72693992    
  -1.23108304      0.575536013     -0.303514004       9249.62988      -2.72693992    
  -1.23232996      0.576179981     -0.606999993       9249.62988      -2.72693992    
  -1.15756094      0.716063023     -0.606999993       9249.62988      -2.72693992    
  -1.15564799      0.714680016     -0.303483993       8492.78027      -2.64016271    
  -1.15756094      0.716063023     -0.606999993       8492.78027      -2.64016271    
  -1.06481802      0.843816996     -0.606999993       8492.78027      -2.64016271    
  -1.06383705      0.843237996     -0.303481996       8492.78027      -2.64016271    
  -1.15564799      0.714680016     -0.303483993       12724.3477      -2.66837835    
  -1.15769398      0.715813994       0.00000000       12724.3477      -2.66837835    
  -1.23224795      0.576331973       0.00000000       12724.3477      -2.66837835    
  -1.23108304      0.575536013     -0.303514004       12724.3477      -2.66837835    
  -1.23224795      0.576331973       0.00000000       12734.4805      -2.83110738    
  -1.28948605      0.428772002       0.00000000       12734.4805      -2.83110738    
  -1.28842103      0.428404987     -0.303512990       12734.4805      -2.83110738    
  -1.23108304      0.575536013     -0.303514004       12734.4805      -2.83110738    
  -1.28842103      0.428404987     -0.303512990       10197.3379      -2.86870384    
  -1.33082402      0.275959998     -0.303492010       10197.3379      -2.86870384    
  -1.33550000      0.277083993     -0.606999993       10197.3379      -2.86870384    