 VARIABLES="X" "Y" "Z" "abs(p) (Pa)" "angle(p) (rad)"
ZONE N=   2720,E =    2069, F=FEPOINT, ET=QUADRILATERAL
 -0.767116010      -1.12776399       0.00000000       4096.99902      -1.55670106    
 -0.769354999      -1.12002099     -0.303523988       4096.99902      -1.55670106    
 -0.896136999      -1.02028203     -0.303463012       4096.99902      -1.55670106    
 -0.894908011      -1.02288902       0.00000000       4096.99902      -1.55670106    
 -0.767116010      -1.12776399       0.00000000       4429.89111      -1.55662072    
 -0.630888999      -1.20308697       0.00000000       4429.89111      -1.55662072    
 -0.635528028      -1.19958198     -0.303541005       4429.89111      -1.55662072    
 -0.769354999      -1.12002099     -0.303523988       4429.89111      -1.55662072    
 -0.635528028      -1.19958198     -0.303541005       4205.00098      -1.55326509    
 -0.495362997      -1.26606500     -0.303519011       4205.00098      -1.55326509    
 -0.499298006      -1.26809204     -0.606999993       4205.00098      -1.55326509    
 -0.640147984      -1.19813800     -0.606998026       4205.00098      -1.55326509    
 -0.635528028      -1.19958198     -0.303541005       3950.34546      -1.55333197    
 -0.640147984      -1.19813800     -0.606998026       3950.34546      -1.55333197    
 -0.777105987      -1.11956596     -0.606999993       3950.34546      -1.55333197    
 -0.769354999      -1.12002099     -0.303523988       3950.34546      -1.55333197    
 -0.635528028      -1.19958198     -0.303541005       4678.21826      -1.55649292    
 -0.630888999      -1.20308697       0.00000000       4678.21826      -1.55649292    
 -0.494486004      -1.26955199       0.00000000       4678.21826      -1.55649292    
 -0.495362997      -1.26606500     -0.303519011       4678.21826      -1.55649292    
 -0.494486004      -1.26955199       0.00000000       4890.47461      -1.55645394    
 -0.346311986      -1.31449997       0.00000000       4890.47461      -1.55645394    
 -0.346753001      -1.31307304     -0.303510010       4890.47461      -1.55645394    
 -0.495362997      -1.26606500     -0.303519011       4890.47461      -1.55645394    
 -0.346753001      -1.31307304     -0.303510010       4541.62012      -1.55320501    
 -0.193608001      -1.34425998     -0.303494990       4541.62012      -1.55320501    
 -0.195028007      -1.34579206     -0.606999993       4541.62012      -1.55320501    
 -0.348751009      -1.31376004     -0.606999993       4541.62012      -1.55320501    
 -0.346753001      -1.31307304     -0.303510010       4398.28467      -1.55321515    
 -0.348751009      -1.31376004     -0.606999993       4398.28467      -1.55321515    
 -0.499298006      -1.26809204     -0.606999993       4398.28467      -1.55321515    
 -0.495362997      -1.26606500     -0.303519011       4398.28467      -1.55321515    
 -0.346753001      -1.31307304     -0.303510010       5050.16846      -1.55645335    
 -0.346311986      -1.31449997       0.00000000       5050.16846      -1.55645335    
 -0.193381995      -1.34595394       0.00000000       5050.16846      -1.55645335    
 -0.193608001      -1.34425998     -0.303494990       5050.16846      -1.55645335    
 -0.193381995      -1.34595394       0.00000000       5168.77246      -1.55650532    
  -3.75179984E-02  -1.36130500       0.00000000       5168.77246      -1.55650532    
  -3.73950005E-02  -1.35827899     -0.303512007       5168.77246      -1.55650532    
 -0.193608001      -1.34425998     -0.303494990       5168.77246      -1.55650532    
  -3.73950005E-02  -1.35827899     -0.303512007       4634.67334      -1.55313516    
  0.119547002      -1.35239303     -0.303498000       4634.67334      -1.55313516    
  0.119135000      -1.35326600     -0.606999993       4634.67334      -1.55313516    
  -3.82840000E-02  -1.36122894     -0.606998980       4634.67334      -1.55313516    
  -3.73950005E-02  -1.35827899     -0.303512007       4623.40332      -1.55316877    
  -3.82840000E-02  -1.36122894     -0.606998980       4623.40332      -1.55316877    
 -0.195028007      -1.34579206     -0.606999993       4623.40332      -1.55316877    
 -0.193608001      -1.34425998     -0.303494990       4623.40332      -1.55316877    
  -3.73950005E-02  -1.35827899     -0.303512007       5189.02393      -1.55650222    
  -3.75179984E-02  -1.36130500       0.00000000       5189.02393      -1.55650222    
  0.119788997      -1.35320199       0.00000000       5189.02393      -1.55650222    
  0.119547002      -1.35239303     -0.303498000       5189.02393      -1.55650222    
  0.119788997      -1.35320199       0.00000000       5141.75537      -1.55648589    
  0.276576012      -1.33565402       0.00000000       5141.75537      -1.55648589    
  0.275435001      -1.33191597     -0.303496003       5141.75537      -1.55648589    
  0.119547002      -1.35239303     -0.303498000       5141.75537      -1.55648589    
  0.275435001      -1.33191597     -0.303496003       4570.02295      -1.55330503    
  0.427076995      -1.28898001     -0.303507000       4570.02295      -1.55330503    
  0.427242011      -1.28995001     -0.606999993       4570.02295      -1.55330503    
  0.275831014      -1.33588004     -0.606999993       4570.02295      -1.55330503    
  0.275435001      -1.33191597     -0.303496003       4668.61523      -1.55330265    
  0.275831014      -1.33588004     -0.606999993       4668.61523      -1.55330265    
  0.119135000      -1.35326600     -0.606999993       4668.61523      -1.55330265    
  0.119547002      -1.35239303     -0.303498000       4668.61523      -1.55330265    
  0.275435001      -1.33191597     -0.303496003       5029.66602      -1.55648410    
  0.276576012      -1.33565402       0.00000000       5029.66602      -1.55648410    
  0.427509993      -1.28986895       0.00000000       5029.66602      -1.55648410    
  0.427076995      -1.28898001     -0.303507000       5029.66602      -1.55648410    
  0.427509993      -1.28986895       0.00000000       4848.33398      -1.55653131    
  0.574636996      -1.23315501       0.00000000       4848.33398      -1.55653131    
  0.573706985      -1.23136795     -0.303485990       4848.33398      -1.55653131    
  0.427076995      -1.28898001     -0.303507000       4848.33398      -1.55653131    
  0.573706985      -1.23136795     -0.303485990       4185.50684      -1.55335629    
  0.712854981      -1.15688002     -0.303496987       4185.50684      -1.55335629    
  0.713809013      -1.15876603     -0.606999993       4185.50684      -1.55335629    
  0.574283004      -1.23334301     -0.606999993       4185.50684      -1.55335629    
  0.573706985      -1.23136795     -0.303485990       4411.88037      -1.55336118    
  0.574283004      -1.23334301     -0.606999993       4411.88037      -1.55336118    
  0.427242011      -1.28995001     -0.606999993       4411.88037      -1.55336118    
  0.427076995      -1.28898001     -0.303507000       4411.88037      -1.55336118    
  0.573706985      -1.23136795     -0.303485990       4597.02295      -1.55655515    
  0.574636996      -1.23315501       0.00000000       4597.02295      -1.55655515    
  0.713741004      -1.15880203       0.00000000       4597.02295      -1.55655515    
  0.712854981      -1.15688002     -0.303496987       4597.02295      -1.55655515    
  0.713741004      -1.15880203       0.00000000       4298.18994      -1.55662322    
  0.841937006      -1.06636095       0.00000000       4298.18994      -1.55662322    
  0.841498017      -1.06573403     -0.303485990       4298.18994      -1.55662322    
  0.712854981      -1.15688002     -0.303496987       4298.18994      -1.55662322    
  0.841498017      -1.06573403     -0.303485990       3580.39526      -1.55345333    
  0.960639000     -0.962104976     -0.303470999       3580.39526      -1.55345333    
  0.964356005     -0.965893984     -0.606999993       3580.39526      -1.55345333    
  0.841796994      -1.06647599     -0.606999993       3580.39526      -1.55345333    
  0.841498017      -1.06573403     -0.303485990       3912.31348      -1.55341339    
  0.841796994      -1.06647599     -0.606999993       3912.31348      -1.55341339    
  0.713809013      -1.15876603     -0.606999993       3912.31348      -1.55341339    
  0.712854981      -1.15688002     -0.303496987       3912.31348      -1.55341339    
  0.841498017      -1.06573403     -0.303485990       3982.85400      -1.55673754    
  0.841937006      -1.06636095       0.00000000       3982.85400      -1.55673754    
  0.963932991     -0.966242015       0.00000000       3982.85400      -1.55673754    
  0.960639000     -0.962104976     -0.303470999       3982.85400      -1.55673754    
  0.963932991     -0.966242015       0.00000000       3583.70679      -1.55683184    
   1.06506598     -0.843514979       0.00000000       3583.70679      -1.55683184    
   1.06428695     -0.842682004     -0.303481996       3583.70679      -1.55683184    
  0.960639000     -0.962104976     -0.303470999       3583.70679      -1.55683184    
   1.06428695     -0.842682004     -0.303481996       2909.76831      -1.55426168    
   1.15591598     -0.714210987     -0.303485006       2909.76831      -1.55426168    
   1.15788805     -0.715448976     -0.606999993       2909.76831      -1.55426168    
   1.06537795     -0.843134999     -0.606999993       2909.76831      -1.55426168    
   1.06428695     -0.842682004     -0.303481996       3216.09570      -1.55355334    
   1.06537795     -0.843134999     -0.606999993       3216.09570      -1.55355334    
  0.964356005     -0.965893984     -0.606999993       3216.09570      -1.55355334    
  0.960639000     -0.962104976     -0.303470999       3216.09570      -1.55355334    
   1.06428695     -0.842682004     -0.303481996       3113.30103      -1.55698800    
   1.06506598     -0.843514979       0.00000000       3113.30103      -1.55698800    
   1.15792501     -0.715381980       0.00000000       3113.30103      -1.55698800    
   1.15591598     -0.714210987     -0.303485006       3113.30103      -1.55698800    
   1.15792501     -0.715381980       0.00000000       2611.63428      -1.55716217    
   1.23237598     -0.576093972       0.00000000       2611.63428      -1.55716217    
   1.23120904     -0.575251997     -0.303514004       2611.63428      -1.55716217    
   1.15591598     -0.714210987     -0.303485006       2611.63428      -1.55716217    
   1.23120904     -0.575251997     -0.303514004       1971.01184      -1.55503821    
   1.28844094     -0.428344995     -0.303512990       1971.01184      -1.55503821    
   1.28952503     -0.428642988     -0.606999993       1971.01184      -1.55503821    
   1.23252702     -0.575810015     -0.606999993       1971.01184      -1.55503821    
   1.23120904     -0.575251997     -0.303514004       2455.26929      -1.55454266    
   1.23252702     -0.575810015     -0.606999993       2455.26929      -1.55454266    
   1.15788805     -0.715448976     -0.606999993       2455.26929      -1.55454266    
   1.15591598     -0.714210987     -0.303485006       2455.26929      -1.55454266    
   1.23120904     -0.575251997     -0.303514004       2199.30933      -1.55801392    
   1.23237598     -0.576093972       0.00000000       2199.30933      -1.55801392    
   1.28947699     -0.428801000       0.00000000       2199.30933      -1.55801392    
   1.28844094     -0.428344995     -0.303512990       2199.30933      -1.55801392    
   1.28947699     -0.428801000       0.00000000       1578.56494      -1.55862331    
   1.33532202     -0.277671993       0.00000000       1578.56494      -1.55862331    
   1.33076501     -0.276203990     -0.303492010       1578.56494      -1.55862331    
   1.28844094     -0.428344995     -0.303512990       1578.56494      -1.55862331    
   1.33076501     -0.276203990     -0.303492010       991.385620      -1.55835891    
   1.35229194     -0.119709998     -0.303514004       991.385620      -1.55835891    
   1.35321999     -0.119608998     -0.606999993       991.385620      -1.55835891    
   1.33549094     -0.277112991     -0.606999993       991.385620      -1.55835891    
   1.33076501     -0.276203990     -0.303492010       1467.02051      -1.55598032    
   1.33549094     -0.277112991     -0.606999993       1467.02051      -1.55598032    
   1.28952503     -0.428642988     -0.606999993       1467.02051      -1.55598032    
   1.28844094     -0.428344995     -0.303512990       1467.02051      -1.55598032    
   1.33076501     -0.276203990     -0.303492010       889.911255      -1.55930901    
   1.33532202     -0.277671993       0.00000000       889.911255      -1.55930901    
   1.35319102     -0.119900003       0.00000000       889.911255      -1.55930901    
   1.35229194     -0.119709998     -0.303514004       889.911255      -1.55930901    
   1.35319102     -0.119900003       0.00000000       288.002533      -1.56663799    
   1.36124396       3.81390005E-02   0.00000000       288.002533      -1.56663799    
   1.35858905       3.79349999E-02 -0.303501010       288.002533      -1.56663799    
   1.35229194     -0.119709998     -0.303514004       288.002533      -1.56663799    
   1.35858905       3.79349999E-02 -0.303501010       186.309052       1.61253262    
   1.34464097      0.195331007     -0.303496003       186.309052       1.61253262    
   1.34573400      0.195616007     -0.606999993       186.309052       1.61253262    
   1.36126804       3.78950015E-02 -0.606999993       186.309052       1.61253262    
   1.35858905       3.79349999E-02 -0.303501010       333.326965      -1.56500101    
   1.36126804       3.78950015E-02 -0.606999993       333.326965      -1.56500101    
   1.35321999     -0.119608998     -0.606999993       333.326965      -1.56500101    
   1.35229194     -0.119709998     -0.303514004       333.326965      -1.56500101    
   1.35858905       3.79349999E-02 -0.303501010       260.726685       1.59993446    
   1.36124396       3.81390005E-02   0.00000000       260.726685       1.59993446    
   1.34575403      0.195406005       0.00000000       260.726685       1.59993446    
   1.34464097      0.195331007     -0.303496003       260.726685       1.59993446    
   1.34575403      0.195406005       0.00000000       849.805969       1.59012878    
   1.31339800      0.349945009       0.00000000       849.805969       1.59012878    
   1.31216300      0.349725991     -0.303487003       849.805969       1.59012878    
   1.34464097      0.195331007     -0.303496003       849.805969       1.59012878    
   1.31216300      0.349725991     -0.303487003       1278.10327       1.59232450    
   1.26341999      0.500032008     -0.303494006       1278.10327       1.59232450    
   1.26736605      0.501691997     -0.606999993       1278.10327       1.59232450    
   1.31333196      0.350163996     -0.606999993       1278.10327       1.59232450    
   1.31216300      0.349725991     -0.303487003       713.035583       1.59535146    
   1.31333196      0.350163996     -0.606999993       713.035583       1.59535146    
   1.34573400      0.195616007     -0.606999993       713.035583       1.59535146    
   1.34464097      0.195331007     -0.303496003       713.035583       1.59535146    
   1.31216300      0.349725991     -0.303487003       1428.44019       1.58839691    
   1.31339800      0.349945009       0.00000000       1428.44019       1.58839691    
   1.26751196      0.501209974       0.00000000       1428.44019       1.58839691    
   1.26341999      0.500032008     -0.303494006       1428.44019       1.58839691    
   1.26751196      0.501209974       0.00000000       2014.21484       1.58733225    
   1.19658697      0.643051028       0.00000000       2014.21484       1.58733225    
   1.19583094      0.642783999     -0.303505003       2014.21484       1.58733225    
   1.26341999      0.500032008     -0.303494006       2014.21484       1.58733225    
   1.19583094      0.642783999     -0.303505003       2270.78296       1.59077621    
   1.11495602      0.778467000     -0.303483993       2270.78296       1.59077621    
   1.11731696      0.779847026     -0.606999993       2270.78296       1.59077621    
   1.19653296      0.643149972     -0.606999993       2270.78296       1.59077621    
   1.19583094      0.642783999     -0.303505003       1766.70251       1.59147084    
   1.19653296      0.643149972     -0.606999993       1766.70251       1.59147084    
   1.26736605      0.501691997     -0.606999993       1766.70251       1.59147084    
   1.26341999      0.500032008     -0.303494006       1766.70251       1.59147084    
   1.19583094      0.642783999     -0.303505003       2544.05151       1.58699989    
   1.19658697      0.643051028       0.00000000       2544.05151       1.58699989    
   1.11705506      0.780165970       0.00000000       2544.05151       1.58699989    
   1.11495602      0.778467000     -0.303483993       2544.05151       1.58699989    
   1.11705506      0.780165970       0.00000000       3019.15356       1.58681381    
   1.01674199      0.902397990       0.00000000       3019.15356       1.58681381    
   1.01591504      0.901737988     -0.303478003       3019.15356       1.58681381    
   1.11495602      0.778467000     -0.303483993       3019.15356       1.58681381    
   1.01591504      0.901737988     -0.303478003       3132.11133       1.59018564    
  0.904204011       1.01322901     -0.303456992       3132.11133       1.59018564    
  0.905143023       1.01448905     -0.606999993       3132.11133       1.59018564    
   1.01659799      0.902572989     -0.606999993       3132.11133       1.59018564    
   1.01591504      0.901737988     -0.303478003       2733.82104       1.59033489    
   1.01659799      0.902572989     -0.606999993       2733.82104       1.59033489    
   1.11731696      0.779847026     -0.606999993       2733.82104       1.59033489    
   1.11495602      0.778467000     -0.303483993       2733.82104       1.59033489    
   1.01591504      0.901737988     -0.303478003       3460.29102       1.58667743    
   1.01674199      0.902397990       0.00000000       3460.29102       1.58667743    
  0.905318975       1.01434398       0.00000000       3460.29102       1.58667743    
  0.904204011       1.01322901     -0.303456992       3460.29102       1.58667743    
  0.905318975       1.01434398       0.00000000       3879.53101       1.58651245    
  0.782918990       1.11479497       0.00000000       3879.53101       1.58651245    
  0.780644000       1.11195600     -0.303485006       3879.53101       1.58651245    
  0.904204011       1.01322901     -0.303456992       3879.53101       1.58651245    
  0.780644000       1.11195600     -0.303485006       3777.55029       1.59007823    
  0.645825028       1.19414902     -0.303514004       3777.55029       1.59007823    
  0.646153986       1.19492805     -0.606999993       3777.55029       1.59007823    
  0.782611012       1.11504900     -0.606999993       3777.55029       1.59007823    
  0.780644000       1.11195600     -0.303485006       3480.82959       1.59013629    
  0.782611012       1.11504900     -0.606999993       3480.82959       1.59013629    
  0.905143023       1.01448905     -0.606999993       3480.82959       1.59013629    
  0.904204011       1.01322901     -0.303456992       3480.82959       1.59013629    
  0.780644000       1.11195600     -0.303485006       4206.99951       1.58650386    
  0.782918990       1.11479497       0.00000000       4206.99951       1.58650386    
  0.646345019       1.19482601       0.00000000       4206.99951       1.58650386    
  0.645825028       1.19414902     -0.303514004       4206.99951       1.58650386    
  0.646345019       1.19482601       0.00000000       4458.99512       1.58657587    
  0.504974008       1.26637006       0.00000000       4458.99512       1.58657587    
  0.503772974       1.26314998     -0.303521991       4458.99512       1.58657587    
  0.645825028       1.19414902     -0.303514004       4458.99512       1.58657587    
  0.503772974       1.26314998     -0.303521991       4229.36914       1.58999133    
  0.353130996       1.31116498     -0.303510994       4229.36914       1.58999133    
  0.353300005       1.31237996     -0.606999993       4229.36914       1.58999133    
  0.505183995       1.26630700     -0.606999993       4229.36914       1.58999133    
  0.503772974       1.26314998     -0.303521991       4032.79932       1.59003580    
  0.505183995       1.26630700     -0.606999993       4032.79932       1.59003580    
  0.646153986       1.19492805     -0.606999993       4032.79932       1.59003580    
  0.645825028       1.19414902     -0.303514004       4032.79932       1.59003580    
  0.503772974       1.26314998     -0.303521991       4668.31104       1.58656073    
  0.504974008       1.26637006       0.00000000       4668.31104       1.58656073    
  0.353493989       1.31232095       0.00000000       4668.31104       1.58656073    
  0.353130996       1.31116498     -0.303510994       4668.31104       1.58656073    
  0.353493989       1.31232095       0.00000000       4822.47949       1.58652270    
  0.199064001       1.34539402       0.00000000       4822.47949       1.58652270    
  0.198755994       1.34360003     -0.303496003       4822.47949       1.58652270    
  0.353130996       1.31116498     -0.303510994       4822.47949       1.58652270    
  0.198755994       1.34360003     -0.303496003       4411.60303       1.59007585    
   4.12769988E-02   1.35817802     -0.303508013       4411.60303       1.59007585    
   4.12410013E-02   1.36093795     -0.606999993       4411.60303       1.59007585    
  0.199025005       1.34539795     -0.606999993       4411.60303       1.59007585    
  0.198755994       1.34360003     -0.303496003       4367.59521       1.58994675    
  0.199025005       1.34539795     -0.606999993       4367.59521       1.58994675    
  0.353300005       1.31237996     -0.606999993       4367.59521       1.58994675    
  0.353130996       1.31116498     -0.303510994       4367.59521       1.58994675    
  0.198755994       1.34360003     -0.303496003       4908.73584       1.58651686    
  0.199064001       1.34539402       0.00000000       4908.73584       1.58651686    
   4.17769998E-02   1.36088502       0.00000000       4908.73584       1.58651686    
   4.12769988E-02   1.35817802     -0.303508013       4908.73584       1.58651686    
   4.17769998E-02   1.36088502       0.00000000       4951.85254       1.58645117    
 -0.116410002       1.35353506       0.00000000       4951.85254       1.58645117    
 -0.116471998       1.35271096     -0.303496987       4951.85254       1.58645117    
   4.12769988E-02   1.35817802     -0.303508013       4951.85254       1.58645117    
 -0.116471998       1.35271096     -0.303496987       4443.21729       1.58992493    
 -0.273027003       1.33229196     -0.303496003       4443.21729       1.58992493    
 -0.273876995       1.33647299     -0.606999993       4443.21729       1.58992493    
 -0.116722003       1.35350394     -0.606999993       4443.21729       1.58992493    
 -0.116471998       1.35271096     -0.303496987       4430.02637       1.59004903    
 -0.116722003       1.35350394     -0.606999993       4430.02637       1.59004903    
   4.12410013E-02   1.36093795     -0.606999993       4430.02637       1.59004903    
   4.12769988E-02   1.35817802     -0.303508013       4430.02637       1.59004903    
 -0.116471998       1.35271096     -0.303496987       4908.01953       1.58646393    
 -0.116410002       1.35353506       0.00000000       4908.01953       1.58646393    
 -0.274069011       1.33641505       0.00000000       4908.01953       1.58646393    
 -0.273027003       1.33229196     -0.303496003       4908.01953       1.58646393    
 -0.274069011       1.33641505       0.00000000       4798.65674       1.58646595    
 -0.425588995       1.29045200       0.00000000       4798.65674       1.58646595    
 -0.425258011       1.28953803     -0.303507000       4798.65674       1.58646595    
 -0.273027003       1.33229196     -0.303496003       4798.65674       1.58646595    
 -0.425258011       1.28953803     -0.303507000       4193.59619       1.58984590    
 -0.572302997       1.23206902     -0.303485990       4193.59619       1.58984590    
 -0.573064029       1.23399496     -0.606999993       4193.59619       1.58984590    
 -0.425651014       1.29043305     -0.606999993       4193.59619       1.58984590    
 -0.425258011       1.28953803     -0.303507000       4346.90186       1.58990943    
 -0.425651014       1.29043305     -0.606999993       4346.90186       1.58990943    
 -0.273876995       1.33647299     -0.606999993       4346.90186       1.58990943    
 -0.273027003       1.33229196     -0.303496003       4346.90186       1.58990943    
 -0.425258011       1.28953803     -0.303507000       4613.60107       1.58644283    
 -0.425588995       1.29045200       0.00000000       4613.60107       1.58644283    
 -0.573195994       1.23392498       0.00000000       4613.60107       1.58644283    
 -0.572302997       1.23206902     -0.303485990       4613.60107       1.58644283    
 -0.573195994       1.23392498       0.00000000       4362.89746       1.58646107    
 -0.712655008       1.15938199       0.00000000       4362.89746       1.58646107    
 -0.711889029       1.15749002     -0.303496003       4362.89746       1.58646107    
 -0.572302997       1.23206902     -0.303485990       4362.89746       1.58646107    
 -0.711889029       1.15749002     -0.303496003       3715.89062       1.58983433    
 -0.840825975       1.06629205     -0.303485990       3715.89062       1.58983433    
 -0.841368973       1.06682706     -0.606999993       3715.89062       1.58983433    
 -0.712980986       1.15920806     -0.606999993       3715.89062       1.58983433    
 -0.711889029       1.15749002     -0.303496003       3977.83154       1.58986056    
 -0.712980986       1.15920806     -0.606999993       3977.83154       1.58986056    
 -0.573064029       1.23399496     -0.606999993       3977.83154       1.58986056    
 -0.572302997       1.23206902     -0.303485990       3977.83154       1.58986056    
 -0.711889029       1.15749002     -0.303496003       4064.64014       1.58642983    
 -0.712655008       1.15938199       0.00000000       4064.64014       1.58642983    
 -0.841165006       1.06699395       0.00000000       4064.64014       1.58642983    
 -0.840825975       1.06629205     -0.303485990       4064.64014       1.58642983    
 -0.841165006       1.06699395       0.00000000       3704.79150       1.58647728    
 -0.963320017      0.966744006       0.00000000       3704.79150       1.58647728    
 -0.960084975      0.962615013     -0.303470999       3704.79150       1.58647728    
 -0.840825975       1.06629205     -0.303485990       3704.79150       1.58647728    
 -0.960084975      0.962615013     -0.303470999       3024.01514       1.58999622    
  -1.06383705      0.843237996     -0.303481996       3024.01514       1.58999622    
  -1.06481802      0.843816996     -0.606999993       3024.01514       1.58999622    
 -0.963873982      0.966289997     -0.606999993       3024.01514       1.58999622    
 -0.960084975      0.962615013     -0.303470999       3387.24146       1.58990538    
 -0.963873982      0.966289997     -0.606999993       3387.24146       1.58990538    
 -0.841368973       1.06682706     -0.606999993       3387.24146       1.58990538    
 -0.840825975       1.06629205     -0.303485990       3387.24146       1.58990538    
 -0.960084975      0.962615013     -0.303470999       3313.22461       1.58652949    
 -0.963320017      0.966744006       0.00000000       3313.22461       1.58652949    
  -1.06464398      0.844029009       0.00000000       3313.22461       1.58652949    
  -1.06383705      0.843237996     -0.303481996       3313.22461       1.58652949    
  -1.06464398      0.844029009       0.00000000       2854.79517       1.58662438    
  -1.15769398      0.715813994       0.00000000       2854.79517       1.58662438    
  -1.15564799      0.714680016     -0.303483993       2854.79517       1.58662438    
  -1.06383705      0.843237996     -0.303481996       2854.79517       1.58662438    
  -1.15564799      0.714680016     -0.303483993       2184.42505       1.59013391    
  -1.23108304      0.575536013     -0.303514004       2184.42505       1.59013391    
  -1.23232996      0.576179981     -0.606999993       2184.42505       1.59013391    
  -1.15756094      0.716063023     -0.606999993       2184.42505       1.59013391    
  -1.15564799      0.714680016     -0.303483993       2618.75098       1.59003806    
  -1.15756094      0.716063023     -0.606999993       2618.75098       1.59003806    
  -1.06481802      0.843816996     -0.606999993       2618.75098       1.59003806    
  -1.06383705      0.843237996     -0.303481996       2618.75098       1.59003806    
  -1.15564799      0.714680016     -0.303483993       2364.73633       1.58683538    
  -1.15769398      0.715813994       0.00000000       2364.73633       1.58683538    
  -1.23224795      0.576331973       0.00000000       2364.73633       1.58683538    
  -1.23108304      0.575536013     -0.303514004       2364.73633       1.58683538    
  -1.23224795      0.576331973       0.00000000       1839.74084       1.58715975    
  -1.28948605      0.428772002       0.00000000       1839.74084       1.58715975    
  -1.28842103      0.428404987     -0.303512990       1839.74084       1.58715975    
  -1.23108304      0.575536013     -0.303514004       1839.74084       1.58715975    
  -1.28842103      0.428404987     -0.303512990       1177.66223       1.59150100    
  -1.33082402      0.275959998     -0.303492010       1177.66223       1.59150100    
  -1.33550000      0.277083993     -0.606999993       1177.66223       1.59150100    