 VARIABLES="X" "Y" "Z" "abs(p) (Pa)" "angle(p) (rad)"
ZONE N=   2720,E =    2069, F=FEPOINT, ET=QUADRILATERAL
 -0.767116010      -1.12776399       0.00000000       6.82857227      -1.57221925    
 -0.769354999      -1.12002099     -0.303523988       6.82857227      -1.57221925    
 -0.896136999      -1.02028203     -0.303463012       6.82857227      -1.57221925    
 -0.894908011      -1.02288902       0.00000000       6.82857227      -1.57221925    
 -0.767116010      -1.12776399       0.00000000       7.21563625       1.57242680    
 -0.630888999      -1.20308697       0.00000000       7.21563625       1.57242680    
 -0.635528028      -1.19958198     -0.303541005       7.21563625       1.57242680    
 -0.769354999      -1.12002099     -0.303523988       7.21563625       1.57242680    
 -0.635528028      -1.19958198     -0.303541005       6.92539978      -1.57237041    
 -0.495362997      -1.26606500     -0.303519011       6.92539978      -1.57237041    
 -0.499298006      -1.26809204     -0.606999993       6.92539978      -1.57237041    
 -0.640147984      -1.19813800     -0.606998026       6.92539978      -1.57237041    
 -0.635528028      -1.19958198     -0.303541005       5.80956221       1.57245207    
 -0.640147984      -1.19813800     -0.606998026       5.80956221       1.57245207    
 -0.777105987      -1.11956596     -0.606999993       5.80956221       1.57245207    
 -0.769354999      -1.12002099     -0.303523988       5.80956221       1.57245207    
 -0.635528028      -1.19958198     -0.303541005       6.13057232      -1.57303107    
 -0.630888999      -1.20308697       0.00000000       6.13057232      -1.57303107    
 -0.494486004      -1.26955199       0.00000000       6.13057232      -1.57303107    
 -0.495362997      -1.26606500     -0.303519011       6.13057232      -1.57303107    
 -0.494486004      -1.26955199       0.00000000       5.60038900       1.57348776    
 -0.346311986      -1.31449997       0.00000000       5.60038900       1.57348776    
 -0.346753001      -1.31307304     -0.303510010       5.60038900       1.57348776    
 -0.495362997      -1.26606500     -0.303519011       5.60038900       1.57348776    
 -0.346753001      -1.31307304     -0.303510010      0.373742849      -1.60448182    
 -0.193608001      -1.34425998     -0.303494990      0.373742849      -1.60448182    
 -0.195028007      -1.34579206     -0.606999993      0.373742849      -1.60448182    
 -0.348751009      -1.31376004     -0.606999993      0.373742849      -1.60448182    
 -0.346753001      -1.31307304     -0.303510010       5.96668768       1.57280970    
 -0.348751009      -1.31376004     -0.606999993       5.96668768       1.57280970    
 -0.499298006      -1.26809204     -0.606999993       5.96668768       1.57280970    
 -0.495362997      -1.26606500     -0.303519011       5.96668768       1.57280970    
 -0.346753001      -1.31307304     -0.303510010      0.328948796      -1.61873126    
 -0.346311986      -1.31449997       0.00000000      0.328948796      -1.61873126    
 -0.193381995      -1.34595394       0.00000000      0.328948796      -1.61873126    
 -0.193608001      -1.34425998     -0.303494990      0.328948796      -1.61873126    
 -0.193381995      -1.34595394       0.00000000       3.90319037      -1.57486737    
  -3.75179984E-02  -1.36130500       0.00000000       3.90319037      -1.57486737    
  -3.73950005E-02  -1.35827899     -0.303512007       3.90319037      -1.57486737    
 -0.193608001      -1.34425998     -0.303494990       3.90319037      -1.57486737    
  -3.73950005E-02  -1.35827899     -0.303512007       3.33362961       1.57466638    
  0.119547002      -1.35239303     -0.303498000       3.33362961       1.57466638    
  0.119135000      -1.35326600     -0.606999993       3.33362961       1.57466638    
  -3.82840000E-02  -1.36122894     -0.606998980       3.33362961       1.57466638    
  -3.73950005E-02  -1.35827899     -0.303512007       3.43010569      -1.57458580    
  -3.82840000E-02  -1.36122894     -0.606998980       3.43010569      -1.57458580    
 -0.195028007      -1.34579206     -0.606999993       3.43010569      -1.57458580    
 -0.193608001      -1.34425998     -0.303494990       3.43010569      -1.57458580    
  -3.73950005E-02  -1.35827899     -0.303512007       3.02317166       1.57600558    
  -3.75179984E-02  -1.36130500       0.00000000       3.02317166       1.57600558    
  0.119788997      -1.35320199       0.00000000       3.02317166       1.57600558    
  0.119547002      -1.35239303     -0.303498000       3.02317166       1.57600558    
  0.119788997      -1.35320199       0.00000000       9.87630749      -1.57231867    
  0.276576012      -1.33565402       0.00000000       9.87630749      -1.57231867    
  0.275435001      -1.33191597     -0.303496003       9.87630749      -1.57231867    
  0.119547002      -1.35239303     -0.303498000       9.87630749      -1.57231867    
  0.275435001      -1.33191597     -0.303496003       8.73049641       1.57209158    
  0.427076995      -1.28898001     -0.303507000       8.73049641       1.57209158    
  0.427242011      -1.28995001     -0.606999993       8.73049641       1.57209158    
  0.275831014      -1.33588004     -0.606999993       8.73049641       1.57209158    
  0.275435001      -1.33191597     -0.303496003       9.56917572      -1.57205749    
  0.275831014      -1.33588004     -0.606999993       9.56917572      -1.57205749    
  0.119135000      -1.35326600     -0.606999993       9.56917572      -1.57205749    
  0.119547002      -1.35239303     -0.303498000       9.56917572      -1.57205749    
  0.275435001      -1.33191597     -0.303496003       8.75161362       1.57241356    
  0.276576012      -1.33565402       0.00000000       8.75161362       1.57241356    
  0.427509993      -1.28986895       0.00000000       8.75161362       1.57241356    
  0.427076995      -1.28898001     -0.303507000       8.75161362       1.57241356    
  0.427509993      -1.28986895       0.00000000       1.43528640      -1.57933927    
  0.574636996      -1.23315501       0.00000000       1.43528640      -1.57933927    
  0.573706985      -1.23136795     -0.303485990       1.43528640      -1.57933927    
  0.427076995      -1.28898001     -0.303507000       1.43528640      -1.57933927    
  0.573706985      -1.23136795     -0.303485990       1.27513742      -1.57749200    
  0.712854981      -1.15688002     -0.303496987       1.27513742      -1.57749200    
  0.713809013      -1.15876603     -0.606999993       1.27513742      -1.57749200    
  0.574283004      -1.23334301     -0.606999993       1.27513742      -1.57749200    
  0.573706985      -1.23136795     -0.303485990       1.51170540      -1.57740200    
  0.574283004      -1.23334301     -0.606999993       1.51170540      -1.57740200    
  0.427242011      -1.28995001     -0.606999993       1.51170540      -1.57740200    
  0.427076995      -1.28898001     -0.303507000       1.51170540      -1.57740200    
  0.573706985      -1.23136795     -0.303485990       1.40487850      -1.57817733    
  0.574636996      -1.23315501       0.00000000       1.40487850      -1.57817733    
  0.713741004      -1.15880203       0.00000000       1.40487850      -1.57817733    
  0.712854981      -1.15688002     -0.303496987       1.40487850      -1.57817733    
  0.713741004      -1.15880203       0.00000000       2.06804824       1.57473814    
  0.841937006      -1.06636095       0.00000000       2.06804824       1.57473814    
  0.841498017      -1.06573403     -0.303485990       2.06804824       1.57473814    
  0.712854981      -1.15688002     -0.303496987       2.06804824       1.57473814    
  0.841498017      -1.06573403     -0.303485990       9.18610764      -1.57132041    
  0.960639000     -0.962104976     -0.303470999       9.18610764      -1.57132041    
  0.964356005     -0.965893984     -0.606999993       9.18610764      -1.57132041    
  0.841796994      -1.06647599     -0.606999993       9.18610764      -1.57132041    
  0.841498017      -1.06573403     -0.303485990       2.28165627       1.57376730    
  0.841796994      -1.06647599     -0.606999993       2.28165627       1.57376730    
  0.713809013      -1.15876603     -0.606999993       2.28165627       1.57376730    
  0.712854981      -1.15688002     -0.303496987       2.28165627       1.57376730    
  0.841498017      -1.06573403     -0.303485990       9.36001778      -1.57142079    
  0.841937006      -1.06636095       0.00000000       9.36001778      -1.57142079    
  0.963932991     -0.966242015       0.00000000       9.36001778      -1.57142079    
  0.960639000     -0.962104976     -0.303470999       9.36001778      -1.57142079    
  0.963932991     -0.966242015       0.00000000       10.1964846       1.57115459    
   1.06506598     -0.843514979       0.00000000       10.1964846       1.57115459    
   1.06428695     -0.842682004     -0.303481996       10.1964846       1.57115459    
  0.960639000     -0.962104976     -0.303470999       10.1964846       1.57115459    
   1.06428695     -0.842682004     -0.303481996       2.90001273      -1.57121611    
   1.15591598     -0.714210987     -0.303485006       2.90001273      -1.57121611    
   1.15788805     -0.715448976     -0.606999993       2.90001273      -1.57121611    
   1.06537795     -0.843134999     -0.606999993       2.90001273      -1.57121611    
   1.06428695     -0.842682004     -0.303481996       9.95263863       1.57110560    
   1.06537795     -0.843134999     -0.606999993       9.95263863       1.57110560    
  0.964356005     -0.965893984     -0.606999993       9.95263863       1.57110560    
  0.960639000     -0.962104976     -0.303470999       9.95263863       1.57110560    
   1.06428695     -0.842682004     -0.303481996       2.72284698      -1.57122087    
   1.06506598     -0.843514979       0.00000000       2.72284698      -1.57122087    
   1.15792501     -0.715381980       0.00000000       2.72284698      -1.57122087    
   1.15591598     -0.714210987     -0.303485006       2.72284698      -1.57122087    
   1.15792501     -0.715381980       0.00000000      0.855787396       1.56965804    
   1.23237598     -0.576093972       0.00000000      0.855787396       1.56965804    
   1.23120904     -0.575251997     -0.303514004      0.855787396       1.56965804    
   1.15591598     -0.714210987     -0.303485006      0.855787396       1.56965804    
   1.23120904     -0.575251997     -0.303514004       2.56196523       1.57007194    
   1.28844094     -0.428344995     -0.303512990       2.56196523       1.57007194    
   1.28952503     -0.428642988     -0.606999993       2.56196523       1.57007194    
   1.23252702     -0.575810015     -0.606999993       2.56196523       1.57007194    
   1.23120904     -0.575251997     -0.303514004      0.756714225       1.57022166    
   1.23252702     -0.575810015     -0.606999993      0.756714225       1.57022166    
   1.15788805     -0.715448976     -0.606999993      0.756714225       1.57022166    
   1.15591598     -0.714210987     -0.303485006      0.756714225       1.57022166    
   1.23120904     -0.575251997     -0.303514004       2.55059052       1.56974733    
   1.23237598     -0.576093972       0.00000000       2.55059052       1.56974733    
   1.28947699     -0.428801000       0.00000000       2.55059052       1.56974733    
   1.28844094     -0.428344995     -0.303512990       2.55059052       1.56974733    
   1.28947699     -0.428801000       0.00000000       7.29294062      -1.57021189    
   1.33532202     -0.277671993       0.00000000       7.29294062      -1.57021189    
   1.33076501     -0.276203990     -0.303492010       7.29294062      -1.57021189    
   1.28844094     -0.428344995     -0.303512990       7.29294062      -1.57021189    
   1.33076501     -0.276203990     -0.303492010       7.93458223       1.57030034    
   1.35229194     -0.119709998     -0.303514004       7.93458223       1.57030034    
   1.35321999     -0.119608998     -0.606999993       7.93458223       1.57030034    
   1.33549094     -0.277112991     -0.606999993       7.93458223       1.57030034    
   1.33076501     -0.276203990     -0.303492010       7.29098940      -1.57036567    
   1.33549094     -0.277112991     -0.606999993       7.29098940      -1.57036567    
   1.28952503     -0.428642988     -0.606999993       7.29098940      -1.57036567    
   1.28844094     -0.428344995     -0.303512990       7.29098940      -1.57036567    
   1.33076501     -0.276203990     -0.303492010       8.14826488       1.57015896    
   1.33532202     -0.277671993       0.00000000       8.14826488       1.57015896    
   1.35319102     -0.119900003       0.00000000       8.14826488       1.57015896    
   1.35229194     -0.119709998     -0.303514004       8.14826488       1.57015896    
   1.35319102     -0.119900003       0.00000000       4.57140017      -1.56949806    
   1.36124396       3.81390005E-02   0.00000000       4.57140017      -1.56949806    
   1.35858905       3.79349999E-02 -0.303501010       4.57140017      -1.56949806    
   1.35229194     -0.119709998     -0.303514004       4.57140017      -1.56949806    
   1.35858905       3.79349999E-02 -0.303501010       2.84421444       1.56914186    
   1.34464097      0.195331007     -0.303496003       2.84421444       1.56914186    
   1.34573400      0.195616007     -0.606999993       2.84421444       1.56914186    
   1.36126804       3.78950015E-02 -0.606999993       2.84421444       1.56914186    
   1.35858905       3.79349999E-02 -0.303501010       4.73659563      -1.56981885    
   1.36126804       3.78950015E-02 -0.606999993       4.73659563      -1.56981885    
   1.35321999     -0.119608998     -0.606999993       4.73659563      -1.56981885    
   1.35229194     -0.119709998     -0.303514004       4.73659563      -1.56981885    
   1.35858905       3.79349999E-02 -0.303501010       3.03725171       1.56880772    
   1.36124396       3.81390005E-02   0.00000000       3.03725171       1.56880772    
   1.34575403      0.195406005       0.00000000       3.03725171       1.56880772    
   1.34464097      0.195331007     -0.303496003       3.03725171       1.56880772    
   1.34575403      0.195406005       0.00000000       1.72780979       1.56748247    
   1.31339800      0.349945009       0.00000000       1.72780979       1.56748247    
   1.31216300      0.349725991     -0.303487003       1.72780979       1.56748247    
   1.34464097      0.195331007     -0.303496003       1.72780979       1.56748247    
   1.31216300      0.349725991     -0.303487003       5.35664463      -1.57006180    
   1.26341999      0.500032008     -0.303494006       5.35664463      -1.57006180    
   1.26736605      0.501691997     -0.606999993       5.35664463      -1.57006180    
   1.31333196      0.350163996     -0.606999993       5.35664463      -1.57006180    
   1.31216300      0.349725991     -0.303487003       1.64828002       1.56810617    
   1.31333196      0.350163996     -0.606999993       1.64828002       1.56810617    
   1.34573400      0.195616007     -0.606999993       1.64828002       1.56810617    
   1.34464097      0.195331007     -0.303496003       1.64828002       1.56810617    
   1.31216300      0.349725991     -0.303487003       5.41136503      -1.56984687    
   1.31339800      0.349945009       0.00000000       5.41136503      -1.56984687    
   1.26751196      0.501209974       0.00000000       5.41136503      -1.56984687    
   1.26341999      0.500032008     -0.303494006       5.41136503      -1.56984687    
   1.26751196      0.501209974       0.00000000       5.68115139       1.57011116    
   1.19658697      0.643051028       0.00000000       5.68115139       1.57011116    
   1.19583094      0.642783999     -0.303505003       5.68115139       1.57011116    
   1.26341999      0.500032008     -0.303494006       5.68115139       1.57011116    
   1.19583094      0.642783999     -0.303505003       6.96250963      -1.57054949    
   1.11495602      0.778467000     -0.303483993       6.96250963      -1.57054949    
   1.11731696      0.779847026     -0.606999993       6.96250963      -1.57054949    
   1.19653296      0.643149972     -0.606999993       6.96250963      -1.57054949    
   1.19583094      0.642783999     -0.303505003       5.75879955       1.57026994    
   1.19653296      0.643149972     -0.606999993       5.75879955       1.57026994    
   1.26736605      0.501691997     -0.606999993       5.75879955       1.57026994    
   1.26341999      0.500032008     -0.303494006       5.75879955       1.57026994    
   1.19583094      0.642783999     -0.303505003       7.05761337      -1.57044446    
   1.19658697      0.643051028       0.00000000       7.05761337      -1.57044446    
   1.11705506      0.780165970       0.00000000       7.05761337      -1.57044446    
   1.11495602      0.778467000     -0.303483993       7.05761337      -1.57044446    
   1.11705506      0.780165970       0.00000000       5.70059776       1.57065713    
   1.01674199      0.902397990       0.00000000       5.70059776       1.57065713    
   1.01591504      0.901737988     -0.303478003       5.70059776       1.57065713    
   1.11495602      0.778467000     -0.303483993       5.70059776       1.57065713    
   1.01591504      0.901737988     -0.303478003      0.851376891       1.57199621    
  0.904204011       1.01322901     -0.303456992      0.851376891       1.57199621    
  0.905143023       1.01448905     -0.606999993      0.851376891       1.57199621    
   1.01659799      0.902572989     -0.606999993      0.851376891       1.57199621    
   1.01591504      0.901737988     -0.303478003       5.56496429       1.57072508    
   1.01659799      0.902572989     -0.606999993       5.56496429       1.57072508    
   1.11731696      0.779847026     -0.606999993       5.56496429       1.57072508    
   1.11495602      0.778467000     -0.303483993       5.56496429       1.57072508    
   1.01591504      0.901737988     -0.303478003      0.928584874       1.57179868    
   1.01674199      0.902397990       0.00000000      0.928584874       1.57179868    
  0.905318975       1.01434398       0.00000000      0.928584874       1.57179868    
  0.904204011       1.01322901     -0.303456992      0.928584874       1.57179868    
  0.905318975       1.01434398       0.00000000       3.95112801      -1.57156682    
  0.782918990       1.11479497       0.00000000       3.95112801      -1.57156682    
  0.780644000       1.11195600     -0.303485006       3.95112801      -1.57156682    
  0.904204011       1.01322901     -0.303456992       3.95112801      -1.57156682    
  0.780644000       1.11195600     -0.303485006       4.37280035       1.57167745    
  0.645825028       1.19414902     -0.303514004       4.37280035       1.57167745    
  0.646153986       1.19492805     -0.606999993       4.37280035       1.57167745    
  0.782611012       1.11504900     -0.606999993       4.37280035       1.57167745    
  0.780644000       1.11195600     -0.303485006       3.86729336      -1.57142317    
  0.782611012       1.11504900     -0.606999993       3.86729336      -1.57142317    
  0.905143023       1.01448905     -0.606999993       3.86729336      -1.57142317    
  0.904204011       1.01322901     -0.303456992       3.86729336      -1.57142317    
  0.780644000       1.11195600     -0.303485006       4.20976591       1.57193267    
  0.782918990       1.11479497       0.00000000       4.20976591       1.57193267    
  0.646345019       1.19482601       0.00000000       4.20976591       1.57193267    
  0.645825028       1.19414902     -0.303514004       4.20976591       1.57193267    
  0.646345019       1.19482601       0.00000000       8.53926182      -1.57150698    
  0.504974008       1.26637006       0.00000000       8.53926182      -1.57150698    
  0.503772974       1.26314998     -0.303521991       8.53926182      -1.57150698    
  0.645825028       1.19414902     -0.303514004       8.53926182      -1.57150698    
  0.503772974       1.26314998     -0.303521991       7.44613647       1.57164383    
  0.353130996       1.31116498     -0.303510994       7.44613647       1.57164383    
  0.353300005       1.31237996     -0.606999993       7.44613647       1.57164383    
  0.505183995       1.26630700     -0.606999993       7.44613647       1.57164383    
  0.503772974       1.26314998     -0.303521991       8.34902954      -1.57140470    
  0.505183995       1.26630700     -0.606999993       8.34902954      -1.57140470    
  0.646153986       1.19492805     -0.606999993       8.34902954      -1.57140470    
  0.645825028       1.19414902     -0.303514004       8.34902954      -1.57140470    
  0.503772974       1.26314998     -0.303521991       7.56172132       1.57180929    
  0.504974008       1.26637006       0.00000000       7.56172132       1.57180929    
  0.353493989       1.31232095       0.00000000       7.56172132       1.57180929    
  0.353130996       1.31116498     -0.303510994       7.56172132       1.57180929    
  0.353493989       1.31232095       0.00000000      0.859480381      -1.58093524    
  0.199064001       1.34539402       0.00000000      0.859480381      -1.58093524    
  0.198755994       1.34360003     -0.303496003      0.859480381      -1.58093524    
  0.353130996       1.31116498     -0.303510994      0.859480381      -1.58093524    
  0.198755994       1.34360003     -0.303496003       2.85850739      -1.57344115    
   4.12769988E-02   1.35817802     -0.303508013       2.85850739      -1.57344115    
   4.12410013E-02   1.36093795     -0.606999993       2.85850739      -1.57344115    
  0.199025005       1.34539795     -0.606999993       2.85850739      -1.57344115    
  0.198755994       1.34360003     -0.303496003      0.844499648      -1.57927382    
  0.199025005       1.34539795     -0.606999993      0.844499648      -1.57927382    
  0.353300005       1.31237996     -0.606999993      0.844499648      -1.57927382    
  0.353130996       1.31116498     -0.303510994      0.844499648      -1.57927382    
  0.198755994       1.34360003     -0.303496003       3.09401917      -1.57389855    
  0.199064001       1.34539402       0.00000000       3.09401917      -1.57389855    
   4.17769998E-02   1.36088502       0.00000000       3.09401917      -1.57389855    
   4.12769988E-02   1.35817802     -0.303508013       3.09401917      -1.57389855    
   4.17769998E-02   1.36088502       0.00000000       2.61455703       1.57467139    
 -0.116410002       1.35353506       0.00000000       2.61455703       1.57467139    
 -0.116471998       1.35271096     -0.303496987       2.61455703       1.57467139    
   4.12769988E-02   1.35817802     -0.303508013       2.61455703       1.57467139    
 -0.116471998       1.35271096     -0.303496987       9.51679230      -1.57162046    
 -0.273027003       1.33229196     -0.303496003       9.51679230      -1.57162046    
 -0.273876995       1.33647299     -0.606999993       9.51679230      -1.57162046    
 -0.116722003       1.35350394     -0.606999993       9.51679230      -1.57162046    
 -0.116471998       1.35271096     -0.303496987       3.04225779       1.57340598    
 -0.116722003       1.35350394     -0.606999993       3.04225779       1.57340598    
   4.12410013E-02   1.36093795     -0.606999993       3.04225779       1.57340598    
   4.12769988E-02   1.35817802     -0.303508013       3.04225779       1.57340598    
 -0.116471998       1.35271096     -0.303496987       9.90280533      -1.57181561    
 -0.116410002       1.35353506       0.00000000       9.90280533      -1.57181561    
 -0.274069011       1.33641505       0.00000000       9.90280533      -1.57181561    
 -0.273027003       1.33229196     -0.303496003       9.90280533      -1.57181561    
 -0.274069011       1.33641505       0.00000000       8.98145294       1.57189643    
 -0.425588995       1.29045200       0.00000000       8.98145294       1.57189643    
 -0.425258011       1.28953803     -0.303507000       8.98145294       1.57189643    
 -0.273027003       1.33229196     -0.303496003       8.98145294       1.57189643    
 -0.425258011       1.28953803     -0.303507000       1.69429398      -1.57477438    
 -0.572302997       1.23206902     -0.303485990       1.69429398      -1.57477438    
 -0.573064029       1.23399496     -0.606999993       1.69429398      -1.57477438    
 -0.425651014       1.29043305     -0.606999993       1.69429398      -1.57477438    
 -0.425258011       1.28953803     -0.303507000       8.87863064       1.57165098    
 -0.425651014       1.29043305     -0.606999993       8.87863064       1.57165098    
 -0.273876995       1.33647299     -0.606999993       8.87863064       1.57165098    
 -0.273027003       1.33229196     -0.303496003       8.87863064       1.57165098    
 -0.425258011       1.28953803     -0.303507000       1.61137819      -1.57616436    
 -0.425588995       1.29045200       0.00000000       1.61137819      -1.57616436    
 -0.573195994       1.23392498       0.00000000       1.61137819      -1.57616436    
 -0.572302997       1.23206902     -0.303485990       1.61137819      -1.57616436    
 -0.573195994       1.23392498       0.00000000       1.11275148      -1.57736588    
 -0.712655008       1.15938199       0.00000000       1.11275148      -1.57736588    
 -0.711889029       1.15749002     -0.303496003       1.11275148      -1.57736588    
 -0.572302997       1.23206902     -0.303485990       1.11275148      -1.57736588    
 -0.711889029       1.15749002     -0.303496003       2.30160546       1.57278979    
 -0.840825975       1.06629205     -0.303485990       2.30160546       1.57278979    
 -0.841368973       1.06682706     -0.606999993       2.30160546       1.57278979    
 -0.712980986       1.15920806     -0.606999993       2.30160546       1.57278979    
 -0.711889029       1.15749002     -0.303496003       1.04424989      -1.57634246    
 -0.712980986       1.15920806     -0.606999993       1.04424989      -1.57634246    
 -0.573064029       1.23399496     -0.606999993       1.04424989      -1.57634246    
 -0.572302997       1.23206902     -0.303485990       1.04424989      -1.57634246    
 -0.711889029       1.15749002     -0.303496003       2.08496737       1.57354283    
 -0.712655008       1.15938199       0.00000000       2.08496737       1.57354283    
 -0.841165006       1.06699395       0.00000000       2.08496737       1.57354283    
 -0.840825975       1.06629205     -0.303485990       2.08496737       1.57354283    
 -0.841165006       1.06699395       0.00000000       9.22264099      -1.57121301    
 -0.963320017      0.966744006       0.00000000       9.22264099      -1.57121301    
 -0.960084975      0.962615013     -0.303470999       9.22264099      -1.57121301    
 -0.840825975       1.06629205     -0.303485990       9.22264099      -1.57121301    
 -0.960084975      0.962615013     -0.303470999       9.93336105       1.57097316    
  -1.06383705      0.843237996     -0.303481996       9.93336105       1.57097316    
  -1.06481802      0.843816996     -0.606999993       9.93336105       1.57097316    
 -0.963873982      0.966289997     -0.606999993       9.93336105       1.57097316    
 -0.960084975      0.962615013     -0.303470999       9.08625793      -1.57113385    
 -0.963873982      0.966289997     -0.606999993       9.08625793      -1.57113385    
 -0.841368973       1.06682706     -0.606999993       9.08625793      -1.57113385    
 -0.840825975       1.06629205     -0.303485990       9.08625793      -1.57113385    
 -0.960084975      0.962615013     -0.303470999       10.1460733       1.57101285    
 -0.963320017      0.966744006       0.00000000       10.1460733       1.57101285    
  -1.06464398      0.844029009       0.00000000       10.1460733       1.57101285    
  -1.06383705      0.843237996     -0.303481996       10.1460733       1.57101285    
  -1.06464398      0.844029009       0.00000000       2.87871408      -1.57087409    
  -1.15769398      0.715813994       0.00000000       2.87871408      -1.57087409    
  -1.15564799      0.714680016     -0.303483993       2.87871408      -1.57087409    
  -1.06383705      0.843237996     -0.303481996       2.87871408      -1.57087409    
  -1.15564799      0.714680016     -0.303483993      0.829390049       1.56966698    
  -1.23108304      0.575536013     -0.303514004      0.829390049       1.56966698    
  -1.23232996      0.576179981     -0.606999993      0.829390049       1.56966698    
  -1.15756094      0.716063023     -0.606999993      0.829390049       1.56966698    
  -1.15564799      0.714680016     -0.303483993       3.06576061      -1.57089174    
  -1.15756094      0.716063023     -0.606999993       3.06576061      -1.57089174    
  -1.06481802      0.843816996     -0.606999993       3.06576061      -1.57089174    
  -1.06383705      0.843237996     -0.303481996       3.06576061      -1.57089174    
  -1.15564799      0.714680016     -0.303483993      0.913210213       1.56921458    
  -1.15769398      0.715813994       0.00000000      0.913210213       1.56921458    
  -1.23224795      0.576331973       0.00000000      0.913210213       1.56921458    
  -1.23108304      0.575536013     -0.303514004      0.913210213       1.56921458    
  -1.23224795      0.576331973       0.00000000       2.55067706       1.56973016    
  -1.28948605      0.428772002       0.00000000       2.55067706       1.56973016    
  -1.28842103      0.428404987     -0.303512990       2.55067706       1.56973016    
  -1.23108304      0.575536013     -0.303514004       2.55067706       1.56973016    
  -1.28842103      0.428404987     -0.303512990       7.24468327      -1.57040989    
  -1.33082402      0.275959998     -0.303492010       7.24468327      -1.57040989    
  -1.33550000      0.277083993     -0.606999993       7.24468327      -1.57040989    