 VARIABLES="X" "Y" "Z" "abs(p) (Pa)" "angle(p) (rad)"
ZONE N=   2720,E =    2069, F=FEPOINT, ET=QUADRILATERAL
 -0.767116010      -1.12776399       0.00000000       1222.28247      -1.52649736    
 -0.769354999      -1.12002099     -0.303523988       1222.28247      -1.52649736    
 -0.896136999      -1.02028203     -0.303463012       1222.28247      -1.52649736    
 -0.894908011      -1.02288902       0.00000000       1222.28247      -1.52649736    
 -0.767116010      -1.12776399       0.00000000       1220.71399      -1.52653039    
 -0.630888999      -1.20308697       0.00000000       1220.71399      -1.52653039    
 -0.635528028      -1.19958198     -0.303541005       1220.71399      -1.52653039    
 -0.769354999      -1.12002099     -0.303523988       1220.71399      -1.52653039    
 -0.635528028      -1.19958198     -0.303541005       1071.20935      -1.52710855    
 -0.495362997      -1.26606500     -0.303519011       1071.20935      -1.52710855    
 -0.499298006      -1.26809204     -0.606999993       1071.20935      -1.52710855    
 -0.640147984      -1.19813800     -0.606998026       1071.20935      -1.52710855    
 -0.635528028      -1.19958198     -0.303541005       1071.70581      -1.52707160    
 -0.640147984      -1.19813800     -0.606998026       1071.70581      -1.52707160    
 -0.777105987      -1.11956596     -0.606999993       1071.70581      -1.52707160    
 -0.769354999      -1.12002099     -0.303523988       1071.70581      -1.52707160    
 -0.635528028      -1.19958198     -0.303541005       1202.81335      -1.52599776    
 -0.630888999      -1.20308697       0.00000000       1202.81335      -1.52599776    
 -0.494486004      -1.26955199       0.00000000       1202.81335      -1.52599776    
 -0.495362997      -1.26606500     -0.303519011       1202.81335      -1.52599776    
 -0.494486004      -1.26955199       0.00000000       1204.23267      -1.52607298    
 -0.346311986      -1.31449997       0.00000000       1204.23267      -1.52607298    
 -0.346753001      -1.31307304     -0.303510010       1204.23267      -1.52607298    
 -0.495362997      -1.26606500     -0.303519011       1204.23267      -1.52607298    
 -0.346753001      -1.31307304     -0.303510010       1072.09924      -1.52722335    
 -0.193608001      -1.34425998     -0.303494990       1072.09924      -1.52722335    
 -0.195028007      -1.34579206     -0.606999993       1072.09924      -1.52722335    
 -0.348751009      -1.31376004     -0.606999993       1072.09924      -1.52722335    
 -0.346753001      -1.31307304     -0.303510010       1071.37927      -1.52715647    
 -0.348751009      -1.31376004     -0.606999993       1071.37927      -1.52715647    
 -0.499298006      -1.26809204     -0.606999993       1071.37927      -1.52715647    
 -0.495362997      -1.26606500     -0.303519011       1071.37927      -1.52715647    
 -0.346753001      -1.31307304     -0.303510010       1206.99084      -1.52618515    
 -0.346311986      -1.31449997       0.00000000       1206.99084      -1.52618515    
 -0.193381995      -1.34595394       0.00000000       1206.99084      -1.52618515    
 -0.193608001      -1.34425998     -0.303494990       1206.99084      -1.52618515    
 -0.193381995      -1.34595394       0.00000000       1224.52966      -1.52685535    
  -3.75179984E-02  -1.36130500       0.00000000       1224.52966      -1.52685535    
  -3.73950005E-02  -1.35827899     -0.303512007       1224.52966      -1.52685535    
 -0.193608001      -1.34425998     -0.303494990       1224.52966      -1.52685535    
  -3.73950005E-02  -1.35827899     -0.303512007       1075.64478      -1.52744710    
  0.119547002      -1.35239303     -0.303498000       1075.64478      -1.52744710    
  0.119135000      -1.35326600     -0.606999993       1075.64478      -1.52744710    
  -3.82840000E-02  -1.36122894     -0.606998980       1075.64478      -1.52744710    
  -3.73950005E-02  -1.35827899     -0.303512007       1071.45203      -1.52724028    
  -3.82840000E-02  -1.36122894     -0.606998980       1071.45203      -1.52724028    
 -0.195028007      -1.34579206     -0.606999993       1071.45203      -1.52724028    
 -0.193608001      -1.34425998     -0.303494990       1071.45203      -1.52724028    
  -3.73950005E-02  -1.35827899     -0.303512007       1222.16138      -1.52694607    
  -3.75179984E-02  -1.36130500       0.00000000       1222.16138      -1.52694607    
  0.119788997      -1.35320199       0.00000000       1222.16138      -1.52694607    
  0.119547002      -1.35239303     -0.303498000       1222.16138      -1.52694607    
  0.119788997      -1.35320199       0.00000000       1219.67200      -1.52698088    
  0.276576012      -1.33565402       0.00000000       1219.67200      -1.52698088    
  0.275435001      -1.33191597     -0.303496003       1219.67200      -1.52698088    
  0.119547002      -1.35239303     -0.303498000       1219.67200      -1.52698088    
  0.275435001      -1.33191597     -0.303496003       1082.40027      -1.52777791    
  0.427076995      -1.28898001     -0.303507000       1082.40027      -1.52777791    
  0.427242011      -1.28995001     -0.606999993       1082.40027      -1.52777791    
  0.275831014      -1.33588004     -0.606999993       1082.40027      -1.52777791    
  0.275435001      -1.33191597     -0.303496003       1081.12158      -1.52769911    
  0.275831014      -1.33588004     -0.606999993       1081.12158      -1.52769911    
  0.119135000      -1.35326600     -0.606999993       1081.12158      -1.52769911    
  0.119547002      -1.35239303     -0.303498000       1081.12158      -1.52769911    
  0.275435001      -1.33191597     -0.303496003       1218.68823      -1.52707684    
  0.276576012      -1.33565402       0.00000000       1218.68823      -1.52707684    
  0.427509993      -1.28986895       0.00000000       1218.68823      -1.52707684    
  0.427076995      -1.28898001     -0.303507000       1218.68823      -1.52707684    
  0.427509993      -1.28986895       0.00000000       1218.47534      -1.52724993    
  0.574636996      -1.23315501       0.00000000       1218.47534      -1.52724993    
  0.573706985      -1.23136795     -0.303485990       1218.47534      -1.52724993    
  0.427076995      -1.28898001     -0.303507000       1218.47534      -1.52724993    
  0.573706985      -1.23136795     -0.303485990       1090.96057      -1.52810097    
  0.712854981      -1.15688002     -0.303496987       1090.96057      -1.52810097    
  0.713809013      -1.15876603     -0.606999993       1090.96057      -1.52810097    
  0.574283004      -1.23334301     -0.606999993       1090.96057      -1.52810097    
  0.573706985      -1.23136795     -0.303485990       1084.61816      -1.52787387    
  0.574283004      -1.23334301     -0.606999993       1084.61816      -1.52787387    
  0.427242011      -1.28995001     -0.606999993       1084.61816      -1.52787387    
  0.427076995      -1.28898001     -0.303507000       1084.61816      -1.52787387    
  0.573706985      -1.23136795     -0.303485990       1223.40088      -1.52747762    
  0.574636996      -1.23315501       0.00000000       1223.40088      -1.52747762    
  0.713741004      -1.15880203       0.00000000       1223.40088      -1.52747762    
  0.712854981      -1.15688002     -0.303496987       1223.40088      -1.52747762    
  0.713741004      -1.15880203       0.00000000       1226.89502      -1.52759910    
  0.841937006      -1.06636095       0.00000000       1226.89502      -1.52759910    
  0.841498017      -1.06573403     -0.303485990       1226.89502      -1.52759910    
  0.712854981      -1.15688002     -0.303496987       1226.89502      -1.52759910    
  0.841498017      -1.06573403     -0.303485990       1101.78760      -1.52840042    
  0.960639000     -0.962104976     -0.303470999       1101.78760      -1.52840042    
  0.964356005     -0.965893984     -0.606999993       1101.78760      -1.52840042    
  0.841796994      -1.06647599     -0.606999993       1101.78760      -1.52840042    
  0.841498017      -1.06573403     -0.303485990       1096.67761      -1.52827394    
  0.841796994      -1.06647599     -0.606999993       1096.67761      -1.52827394    
  0.713809013      -1.15876603     -0.606999993       1096.67761      -1.52827394    
  0.712854981      -1.15688002     -0.303496987       1096.67761      -1.52827394    
  0.841498017      -1.06573403     -0.303485990       1223.57593      -1.52728760    
  0.841937006      -1.06636095       0.00000000       1223.57593      -1.52728760    
  0.963932991     -0.966242015       0.00000000       1223.57593      -1.52728760    
  0.960639000     -0.962104976     -0.303470999       1223.57593      -1.52728760    
  0.963932991     -0.966242015       0.00000000       1229.66956      -1.52739942    
   1.06506598     -0.843514979       0.00000000       1229.66956      -1.52739942    
   1.06428695     -0.842682004     -0.303481996       1229.66956      -1.52739942    
  0.960639000     -0.962104976     -0.303470999       1229.66956      -1.52739942    
   1.06428695     -0.842682004     -0.303481996       1091.36865      -1.52786016    
   1.15591598     -0.714210987     -0.303485006       1091.36865      -1.52786016    
   1.15788805     -0.715448976     -0.606999993       1091.36865      -1.52786016    
   1.06537795     -0.843134999     -0.606999993       1091.36865      -1.52786016    
   1.06428695     -0.842682004     -0.303481996       1107.01147      -1.52852547    
   1.06537795     -0.843134999     -0.606999993       1107.01147      -1.52852547    
  0.964356005     -0.965893984     -0.606999993       1107.01147      -1.52852547    
  0.960639000     -0.962104976     -0.303470999       1107.01147      -1.52852547    
   1.06428695     -0.842682004     -0.303481996       1230.16711      -1.52752352    
   1.06506598     -0.843514979       0.00000000       1230.16711      -1.52752352    
   1.15792501     -0.715381980       0.00000000       1230.16711      -1.52752352    
   1.15591598     -0.714210987     -0.303485006       1230.16711      -1.52752352    
   1.15792501     -0.715381980       0.00000000       1239.81104      -1.52763283    
   1.23237598     -0.576093972       0.00000000       1239.81104      -1.52763283    
   1.23120904     -0.575251997     -0.303514004       1239.81104      -1.52763283    
   1.15591598     -0.714210987     -0.303485006       1239.81104      -1.52763283    
   1.23120904     -0.575251997     -0.303514004       1103.35339      -1.52812588    
   1.28844094     -0.428344995     -0.303512990       1103.35339      -1.52812588    
   1.28952503     -0.428642988     -0.606999993       1103.35339      -1.52812588    
   1.23252702     -0.575810015     -0.606999993       1103.35339      -1.52812588    
   1.23120904     -0.575251997     -0.303514004       1097.47327      -1.52799618    
   1.23252702     -0.575810015     -0.606999993       1097.47327      -1.52799618    
   1.15788805     -0.715448976     -0.606999993       1097.47327      -1.52799618    
   1.15591598     -0.714210987     -0.303485006       1097.47327      -1.52799618    
   1.23120904     -0.575251997     -0.303514004       1225.74976      -1.52691698    
   1.23237598     -0.576093972       0.00000000       1225.74976      -1.52691698    
   1.28947699     -0.428801000       0.00000000       1225.74976      -1.52691698    
   1.28844094     -0.428344995     -0.303512990       1225.74976      -1.52691698    
   1.28947699     -0.428801000       0.00000000       1248.09485      -1.52747488    
   1.33532202     -0.277671993       0.00000000       1248.09485      -1.52747488    
   1.33076501     -0.276203990     -0.303492010       1248.09485      -1.52747488    
   1.28844094     -0.428344995     -0.303512990       1248.09485      -1.52747488    
   1.33076501     -0.276203990     -0.303492010       1088.67957      -1.52741647    
   1.35229194     -0.119709998     -0.303514004       1088.67957      -1.52741647    
   1.35321999     -0.119608998     -0.606999993       1088.67957      -1.52741647    
   1.33549094     -0.277112991     -0.606999993       1088.67957      -1.52741647    
   1.33076501     -0.276203990     -0.303492010       1105.22839      -1.52811992    
   1.33549094     -0.277112991     -0.606999993       1105.22839      -1.52811992    
   1.28952503     -0.428642988     -0.606999993       1105.22839      -1.52811992    
   1.28844094     -0.428344995     -0.303512990       1105.22839      -1.52811992    
   1.33076501     -0.276203990     -0.303492010       1274.94800      -1.52830648    
   1.33532202     -0.277671993       0.00000000       1274.94800      -1.52830648    
   1.35319102     -0.119900003       0.00000000       1274.94800      -1.52830648    
   1.35229194     -0.119709998     -0.303514004       1274.94800      -1.52830648    
   1.35319102     -0.119900003       0.00000000       1280.30066      -1.52839684    
   1.36124396       3.81390005E-02   0.00000000       1280.30066      -1.52839684    
   1.35858905       3.79349999E-02 -0.303501010       1280.30066      -1.52839684    
   1.35229194     -0.119709998     -0.303514004       1280.30066      -1.52839684    
   1.35858905       3.79349999E-02 -0.303501010       1116.56360      -1.52832043    
   1.34464097      0.195331007     -0.303496003       1116.56360      -1.52832043    
   1.34573400      0.195616007     -0.606999993       1116.56360      -1.52832043    
   1.36126804       3.78950015E-02 -0.606999993       1116.56360      -1.52832043    
   1.35858905       3.79349999E-02 -0.303501010       1115.80969      -1.52835751    
   1.36126804       3.78950015E-02 -0.606999993       1115.80969      -1.52835751    
   1.35321999     -0.119608998     -0.606999993       1115.80969      -1.52835751    
   1.35229194     -0.119709998     -0.303514004       1115.80969      -1.52835751    
   1.35858905       3.79349999E-02 -0.303501010       1263.63928      -1.52776468    
   1.36124396       3.81390005E-02   0.00000000       1263.63928      -1.52776468    
   1.34575403      0.195406005       0.00000000       1263.63928      -1.52776468    
   1.34464097      0.195331007     -0.303496003       1263.63928      -1.52776468    
   1.34575403      0.195406005       0.00000000       1269.15076      -1.52786124    
   1.31339800      0.349945009       0.00000000       1269.15076      -1.52786124    
   1.31216300      0.349725991     -0.303487003       1269.15076      -1.52786124    
   1.34464097      0.195331007     -0.303496003       1269.15076      -1.52786124    
   1.31216300      0.349725991     -0.303487003       1135.92676      -1.52892280    
   1.26341999      0.500032008     -0.303494006       1135.92676      -1.52892280    
   1.26736605      0.501691997     -0.606999993       1135.92676      -1.52892280    
   1.31333196      0.350163996     -0.606999993       1135.92676      -1.52892280    
   1.31216300      0.349725991     -0.303487003       1120.24341      -1.52840066    
   1.31333196      0.350163996     -0.606999993       1120.24341      -1.52840066    
   1.34573400      0.195616007     -0.606999993       1120.24341      -1.52840066    
   1.34464097      0.195331007     -0.303496003       1120.24341      -1.52840066    
   1.31216300      0.349725991     -0.303487003       1275.80969      -1.52794278    
   1.31339800      0.349945009       0.00000000       1275.80969      -1.52794278    
   1.26751196      0.501209974       0.00000000       1275.80969      -1.52794278    
   1.26341999      0.500032008     -0.303494006       1275.80969      -1.52794278    
   1.26751196      0.501209974       0.00000000       1300.10425      -1.52870607    
   1.19658697      0.643051028       0.00000000       1300.10425      -1.52870607    
   1.19583094      0.642783999     -0.303505003       1300.10425      -1.52870607    
   1.26341999      0.500032008     -0.303494006       1300.10425      -1.52870607    
   1.19583094      0.642783999     -0.303505003       1123.80994      -1.52848160    
   1.11495602      0.778467000     -0.303483993       1123.80994      -1.52848160    
   1.11731696      0.779847026     -0.606999993       1123.80994      -1.52848160    
   1.19653296      0.643149972     -0.606999993       1123.80994      -1.52848160    
   1.19583094      0.642783999     -0.303505003       1138.60437      -1.52900183    
   1.19653296      0.643149972     -0.606999993       1138.60437      -1.52900183    
   1.26736605      0.501691997     -0.606999993       1138.60437      -1.52900183    
   1.26341999      0.500032008     -0.303494006       1138.60437      -1.52900183    
   1.19583094      0.642783999     -0.303505003       1296.23279      -1.52876508    
   1.19658697      0.643051028       0.00000000       1296.23279      -1.52876508    
   1.11705506      0.780165970       0.00000000       1296.23279      -1.52876508    
   1.11495602      0.778467000     -0.303483993       1296.23279      -1.52876508    
   1.11705506      0.780165970       0.00000000       1292.40857      -1.52880442    
   1.01674199      0.902397990       0.00000000       1292.40857      -1.52880442    
   1.01591504      0.901737988     -0.303478003       1292.40857      -1.52880442    
   1.11495602      0.778467000     -0.303483993       1292.40857      -1.52880442    
   1.01591504      0.901737988     -0.303478003       1137.55017      -1.52902746    
  0.904204011       1.01322901     -0.303456992       1137.55017      -1.52902746    
  0.905143023       1.01448905     -0.606999993       1137.55017      -1.52902746    
   1.01659799      0.902572989     -0.606999993       1137.55017      -1.52902746    
   1.01591504      0.901737988     -0.303478003       1138.08472      -1.52901971    
   1.01659799      0.902572989     -0.606999993       1138.08472      -1.52901971    
   1.11731696      0.779847026     -0.606999993       1138.08472      -1.52901971    
   1.11495602      0.778467000     -0.303483993       1138.08472      -1.52901971    
   1.01591504      0.901737988     -0.303478003       1288.30151      -1.52883697    
   1.01674199      0.902397990       0.00000000       1288.30151      -1.52883697    
  0.905318975       1.01434398       0.00000000       1288.30151      -1.52883697    
  0.904204011       1.01322901     -0.303456992       1288.30151      -1.52883697    
  0.905318975       1.01434398       0.00000000       1272.46570      -1.52831256    
  0.782918990       1.11479497       0.00000000       1272.46570      -1.52831256    
  0.780644000       1.11195600     -0.303485006       1272.46570      -1.52831256    
  0.904204011       1.01322901     -0.303456992       1272.46570      -1.52831256    
  0.780644000       1.11195600     -0.303485006       1136.85559      -1.52902126    
  0.645825028       1.19414902     -0.303514004       1136.85559      -1.52902126    
  0.646153986       1.19492805     -0.606999993       1136.85559      -1.52902126    
  0.782611012       1.11504900     -0.606999993       1136.85559      -1.52902126    
  0.780644000       1.11195600     -0.303485006       1137.06104      -1.52902913    
  0.782611012       1.11504900     -0.606999993       1137.06104      -1.52902913    
  0.905143023       1.01448905     -0.606999993       1137.06104      -1.52902913    
  0.904204011       1.01322901     -0.303456992       1137.06104      -1.52902913    
  0.780644000       1.11195600     -0.303485006       1263.76147      -1.52805579    
  0.782918990       1.11479497       0.00000000       1263.76147      -1.52805579    
  0.646345019       1.19482601       0.00000000       1263.76147      -1.52805579    
  0.645825028       1.19414902     -0.303514004       1263.76147      -1.52805579    
  0.646345019       1.19482601       0.00000000       1281.96448      -1.52855325    
  0.504974008       1.26637006       0.00000000       1281.96448      -1.52855325    
  0.503772974       1.26314998     -0.303521991       1281.96448      -1.52855325    
  0.645825028       1.19414902     -0.303514004       1281.96448      -1.52855325    
  0.503772974       1.26314998     -0.303521991       1144.00928      -1.52921569    
  0.353130996       1.31116498     -0.303510994       1144.00928      -1.52921569    
  0.353300005       1.31237996     -0.606999993       1144.00928      -1.52921569    
  0.505183995       1.26630700     -0.606999993       1144.00928      -1.52921569    
  0.503772974       1.26314998     -0.303521991       1140.43164      -1.52912414    
  0.505183995       1.26630700     -0.606999993       1140.43164      -1.52912414    
  0.646153986       1.19492805     -0.606999993       1140.43164      -1.52912414    
  0.645825028       1.19414902     -0.303514004       1140.43164      -1.52912414    
  0.503772974       1.26314998     -0.303521991       1282.16858      -1.52852225    
  0.504974008       1.26637006       0.00000000       1282.16858      -1.52852225    
  0.353493989       1.31232095       0.00000000       1282.16858      -1.52852225    
  0.353130996       1.31116498     -0.303510994       1282.16858      -1.52852225    
  0.353493989       1.31232095       0.00000000       1281.59387      -1.52847779    
  0.199064001       1.34539402       0.00000000       1281.59387      -1.52847779    
  0.198755994       1.34360003     -0.303496003       1281.59387      -1.52847779    
  0.353130996       1.31116498     -0.303510994       1281.59387      -1.52847779    
  0.198755994       1.34360003     -0.303496003       1160.02002      -1.52966499    
   4.12769988E-02   1.35817802     -0.303508013       1160.02002      -1.52966499    
   4.12410013E-02   1.36093795     -0.606999993       1160.02002      -1.52966499    
  0.199025005       1.34539795     -0.606999993       1160.02002      -1.52966499    
  0.198755994       1.34360003     -0.303496003       1144.03003      -1.52917063    
  0.199025005       1.34539795     -0.606999993       1144.03003      -1.52917063    
  0.353300005       1.31237996     -0.606999993       1144.03003      -1.52917063    
  0.353130996       1.31116498     -0.303510994       1144.03003      -1.52917063    
  0.198755994       1.34360003     -0.303496003       1281.63770      -1.52839398    
  0.199064001       1.34539402       0.00000000       1281.63770      -1.52839398    
   4.17769998E-02   1.36088502       0.00000000       1281.63770      -1.52839398    
   4.12769988E-02   1.35817802     -0.303508013       1281.63770      -1.52839398    
   4.17769998E-02   1.36088502       0.00000000       1290.52832      -1.52851140    
 -0.116410002       1.35353506       0.00000000       1290.52832      -1.52851140    
 -0.116471998       1.35271096     -0.303496987       1290.52832      -1.52851140    
   4.12769988E-02   1.35817802     -0.303508013       1290.52832      -1.52851140    
 -0.116471998       1.35271096     -0.303496987       1167.75183      -1.52984250    
 -0.273027003       1.33229196     -0.303496003       1167.75183      -1.52984250    
 -0.273876995       1.33647299     -0.606999993       1167.75183      -1.52984250    
 -0.116722003       1.35350394     -0.606999993       1167.75183      -1.52984250    
 -0.116471998       1.35271096     -0.303496987       1158.77917      -1.52956843    
 -0.116722003       1.35350394     -0.606999993       1158.77917      -1.52956843    
   4.12410013E-02   1.36093795     -0.606999993       1158.77917      -1.52956843    
   4.12769988E-02   1.35817802     -0.303508013       1158.77917      -1.52956843    
 -0.116471998       1.35271096     -0.303496987       1293.92554      -1.52838397    
 -0.116410002       1.35353506       0.00000000       1293.92554      -1.52838397    
 -0.274069011       1.33641505       0.00000000       1293.92554      -1.52838397    
 -0.273027003       1.33229196     -0.303496003       1293.92554      -1.52838397    
 -0.274069011       1.33641505       0.00000000       1290.88428      -1.52824402    
 -0.425588995       1.29045200       0.00000000       1290.88428      -1.52824402    
 -0.425258011       1.28953803     -0.303507000       1290.88428      -1.52824402    
 -0.273027003       1.33229196     -0.303496003       1290.88428      -1.52824402    
 -0.425258011       1.28953803     -0.303507000       1157.52161      -1.52949262    
 -0.572302997       1.23206902     -0.303485990       1157.52161      -1.52949262    
 -0.573064029       1.23399496     -0.606999993       1157.52161      -1.52949262    
 -0.425651014       1.29043305     -0.606999993       1157.52161      -1.52949262    
 -0.425258011       1.28953803     -0.303507000       1163.53308      -1.52968383    
 -0.425651014       1.29043305     -0.606999993       1163.53308      -1.52968383    
 -0.273876995       1.33647299     -0.606999993       1163.53308      -1.52968383    
 -0.273027003       1.33229196     -0.303496003       1163.53308      -1.52968383    
 -0.425258011       1.28953803     -0.303507000       1276.80798      -1.52797961    
 -0.425588995       1.29045200       0.00000000       1276.80798      -1.52797961    
 -0.573195994       1.23392498       0.00000000       1276.80798      -1.52797961    
 -0.572302997       1.23206902     -0.303485990       1276.80798      -1.52797961    
 -0.573195994       1.23392498       0.00000000       1263.93140      -1.52769077    
 -0.712655008       1.15938199       0.00000000       1263.93140      -1.52769077    
 -0.711889029       1.15749002     -0.303496003       1263.93140      -1.52769077    
 -0.572302997       1.23206902     -0.303485990       1263.93140      -1.52769077    
 -0.711889029       1.15749002     -0.303496003       1142.75403      -1.52903926    
 -0.840825975       1.06629205     -0.303485990       1142.75403      -1.52903926    
 -0.841368973       1.06682706     -0.606999993       1142.75403      -1.52903926    
 -0.712980986       1.15920806     -0.606999993       1142.75403      -1.52903926    
 -0.711889029       1.15749002     -0.303496003       1149.33020      -1.52923870    
 -0.712980986       1.15920806     -0.606999993       1149.33020      -1.52923870    
 -0.573064029       1.23399496     -0.606999993       1149.33020      -1.52923870    
 -0.572302997       1.23206902     -0.303485990       1149.33020      -1.52923870    
 -0.711889029       1.15749002     -0.303496003       1258.33008      -1.52769697    
 -0.712655008       1.15938199       0.00000000       1258.33008      -1.52769697    
 -0.841165006       1.06699395       0.00000000       1258.33008      -1.52769697    
 -0.840825975       1.06629205     -0.303485990       1258.33008      -1.52769697    
 -0.841165006       1.06699395       0.00000000       1252.24548      -1.52748430    
 -0.963320017      0.966744006       0.00000000       1252.24548      -1.52748430    
 -0.960084975      0.962615013     -0.303470999       1252.24548      -1.52748430    
 -0.840825975       1.06629205     -0.303485990       1252.24548      -1.52748430    
 -0.960084975      0.962615013     -0.303470999       1125.69739      -1.52843261    
  -1.06383705      0.843237996     -0.303481996       1125.69739      -1.52843261    
  -1.06481802      0.843816996     -0.606999993       1125.69739      -1.52843261    
 -0.963873982      0.966289997     -0.606999993       1125.69739      -1.52843261    
 -0.960084975      0.962615013     -0.303470999       1133.51587      -1.52872670    
 -0.963873982      0.966289997     -0.606999993       1133.51587      -1.52872670    
 -0.841368973       1.06682706     -0.606999993       1133.51587      -1.52872670    
 -0.840825975       1.06629205     -0.303485990       1133.51587      -1.52872670    
 -0.960084975      0.962615013     -0.303470999       1250.97083      -1.52735066    
 -0.963320017      0.966744006       0.00000000       1250.97083      -1.52735066    
  -1.06464398      0.844029009       0.00000000       1250.97083      -1.52735066    
  -1.06383705      0.843237996     -0.303481996       1250.97083      -1.52735066    
  -1.06464398      0.844029009       0.00000000       1247.68347      -1.52717900    
  -1.15769398      0.715813994       0.00000000       1247.68347      -1.52717900    
  -1.15564799      0.714680016     -0.303483993       1247.68347      -1.52717900    
  -1.06383705      0.843237996     -0.303481996       1247.68347      -1.52717900    
  -1.15564799      0.714680016     -0.303483993       1127.16370      -1.52839828    
  -1.23108304      0.575536013     -0.303514004       1127.16370      -1.52839828    
  -1.23232996      0.576179981     -0.606999993       1127.16370      -1.52839828    
  -1.15756094      0.716063023     -0.606999993       1127.16370      -1.52839828    
  -1.15564799      0.714680016     -0.303483993       1122.20544      -1.52826571    
  -1.15756094      0.716063023     -0.606999993       1122.20544      -1.52826571    
  -1.06481802      0.843816996     -0.606999993       1122.20544      -1.52826571    
  -1.06383705      0.843237996     -0.303481996       1122.20544      -1.52826571    
  -1.15564799      0.714680016     -0.303483993       1253.10120      -1.52702212    
  -1.15769398      0.715813994       0.00000000       1253.10120      -1.52702212    
  -1.23224795      0.576331973       0.00000000       1253.10120      -1.52702212    
  -1.23108304      0.575536013     -0.303514004       1253.10120      -1.52702212    
  -1.23224795      0.576331973       0.00000000       1254.79163      -1.52689409    
  -1.28948605      0.428772002       0.00000000       1254.79163      -1.52689409    
  -1.28842103      0.428404987     -0.303512990       1254.79163      -1.52689409    
  -1.23108304      0.575536013     -0.303514004       1254.79163      -1.52689409    
  -1.28842103      0.428404987     -0.303512990       1102.59607      -1.52746713    
  -1.33082402      0.275959998     -0.303492010       1102.59607      -1.52746713    
  -1.33550000      0.277083993     -0.606999993       1102.59607      -1.52746713    