 VARIABLES="X" "Y" "Z" "abs(p) (Pa)" "angle(p) (rad)"
ZONE N=   2720,E =    2069, F=FEPOINT, ET=QUADRILATERAL
 -0.767116010      -1.12776399       0.00000000       3153.52832       1.77801704    
 -0.769354999      -1.12002099     -0.303523988       3153.52832       1.77801704    
 -0.896136999      -1.02028203     -0.303463012       3153.52832       1.77801704    
 -0.894908011      -1.02288902       0.00000000       3153.52832       1.77801704    
 -0.767116010      -1.12776399       0.00000000       2663.92041       1.77882552    
 -0.630888999      -1.20308697       0.00000000       2663.92041       1.77882552    
 -0.635528028      -1.19958198     -0.303541005       2663.92041       1.77882552    
 -0.769354999      -1.12002099     -0.303523988       2663.92041       1.77882552    
 -0.635528028      -1.19958198     -0.303541005       2267.04565       1.77514589    
 -0.495362997      -1.26606500     -0.303519011       2267.04565       1.77514589    
 -0.499298006      -1.26809204     -0.606999993       2267.04565       1.77514589    
 -0.640147984      -1.19813800     -0.606998026       2267.04565       1.77514589    
 -0.635528028      -1.19958198     -0.303541005       2831.62378       1.77466381    
 -0.640147984      -1.19813800     -0.606998026       2831.62378       1.77466381    
 -0.777105987      -1.11956596     -0.606999993       2831.62378       1.77466381    
 -0.769354999      -1.12002099     -0.303523988       2831.62378       1.77466381    
 -0.635528028      -1.19958198     -0.303541005       2107.85400       1.77753937    
 -0.630888999      -1.20308697       0.00000000       2107.85400       1.77753937    
 -0.494486004      -1.26955199       0.00000000       2107.85400       1.77753937    
 -0.495362997      -1.26606500     -0.303519011       2107.85400       1.77753937    
 -0.494486004      -1.26955199       0.00000000       1572.49780       1.77900851    
 -0.346311986      -1.31449997       0.00000000       1572.49780       1.77900851    
 -0.346753001      -1.31307304     -0.303510010       1572.49780       1.77900851    
 -0.495362997      -1.26606500     -0.303519011       1572.49780       1.77900851    
 -0.346753001      -1.31307304     -0.303510010       1070.32361       1.77906561    
 -0.193608001      -1.34425998     -0.303494990       1070.32361       1.77906561    
 -0.195028007      -1.34579206     -0.606999993       1070.32361       1.77906561    
 -0.348751009      -1.31376004     -0.606999993       1070.32361       1.77906561    
 -0.346753001      -1.31307304     -0.303510010       1686.77979       1.77657759    
 -0.348751009      -1.31376004     -0.606999993       1686.77979       1.77657759    
 -0.499298006      -1.26809204     -0.606999993       1686.77979       1.77657759    
 -0.495362997      -1.26606500     -0.303519011       1686.77979       1.77657759    
 -0.346753001      -1.31307304     -0.303510010       998.091858       1.78204763    
 -0.346311986      -1.31449997       0.00000000       998.091858       1.78204763    
 -0.193381995      -1.34595394       0.00000000       998.091858       1.78204763    
 -0.193608001      -1.34425998     -0.303494990       998.091858       1.78204763    
 -0.193381995      -1.34595394       0.00000000       438.027313       1.80430269    
  -3.75179984E-02  -1.36130500       0.00000000       438.027313       1.80430269    
  -3.73950005E-02  -1.35827899     -0.303512007       438.027313       1.80430269    
 -0.193608001      -1.34425998     -0.303494990       438.027313       1.80430269    
  -3.73950005E-02  -1.35827899     -0.303512007       189.131989      -1.40571380    
  0.119547002      -1.35239303     -0.303498000       189.131989      -1.40571380    
  0.119135000      -1.35326600     -0.606999993       189.131989      -1.40571380    
  -3.82840000E-02  -1.36122894     -0.606998980       189.131989      -1.40571380    
  -3.73950005E-02  -1.35827899     -0.303512007       439.701477       1.78671682    
  -3.82840000E-02  -1.36122894     -0.606998980       439.701477       1.78671682    
 -0.195028007      -1.34579206     -0.606999993       439.701477       1.78671682    
 -0.193608001      -1.34425998     -0.303494990       439.701477       1.78671682    
  -3.73950005E-02  -1.35827899     -0.303512007       150.291504      -1.45769763    
  -3.75179984E-02  -1.36130500       0.00000000       150.291504      -1.45769763    
  0.119788997      -1.35320199       0.00000000       150.291504      -1.45769763    
  0.119547002      -1.35239303     -0.303498000       150.291504      -1.45769763    
  0.119788997      -1.35320199       0.00000000       754.324951      -1.38408363    
  0.276576012      -1.33565402       0.00000000       754.324951      -1.38408363    
  0.275435001      -1.33191597     -0.303496003       754.324951      -1.38408363    
  0.119547002      -1.35239303     -0.303498000       754.324951      -1.38408363    
  0.275435001      -1.33191597     -0.303496003       1424.43982      -1.37672365    
  0.427076995      -1.28898001     -0.303507000       1424.43982      -1.37672365    
  0.427242011      -1.28995001     -0.606999993       1424.43982      -1.37672365    
  0.275831014      -1.33588004     -0.606999993       1424.43982      -1.37672365    
  0.275435001      -1.33191597     -0.303496003       812.149902      -1.38109541    
  0.275831014      -1.33588004     -0.606999993       812.149902      -1.38109541    
  0.119135000      -1.35326600     -0.606999993       812.149902      -1.38109541    
  0.119547002      -1.35239303     -0.303498000       812.149902      -1.38109541    
  0.275435001      -1.33191597     -0.303496003       1324.14795      -1.37731600    
  0.276576012      -1.33565402       0.00000000       1324.14795      -1.37731600    
  0.427509993      -1.28986895       0.00000000       1324.14795      -1.37731600    
  0.427076995      -1.28898001     -0.303507000       1324.14795      -1.37731600    
  0.427509993      -1.28986895       0.00000000       1887.45398      -1.37499094    
  0.574636996      -1.23315501       0.00000000       1887.45398      -1.37499094    
  0.573706985      -1.23136795     -0.303485990       1887.45398      -1.37499094    
  0.427076995      -1.28898001     -0.303507000       1887.45398      -1.37499094    
  0.573706985      -1.23136795     -0.303485990       2610.30664      -1.37326872    
  0.712854981      -1.15688002     -0.303496987       2610.30664      -1.37326872    
  0.713809013      -1.15876603     -0.606999993       2610.30664      -1.37326872    
  0.574283004      -1.23334301     -0.606999993       2610.30664      -1.37326872    
  0.573706985      -1.23136795     -0.303485990       2031.81677      -1.37433052    
  0.574283004      -1.23334301     -0.606999993       2031.81677      -1.37433052    
  0.427242011      -1.28995001     -0.606999993       2031.81677      -1.37433052    
  0.427076995      -1.28898001     -0.303507000       2031.81677      -1.37433052    
  0.573706985      -1.23136795     -0.303485990       2425.25195      -1.37337232    
  0.574636996      -1.23315501       0.00000000       2425.25195      -1.37337232    
  0.713741004      -1.15880203       0.00000000       2425.25195      -1.37337232    
  0.712854981      -1.15688002     -0.303496987       2425.25195      -1.37337232    
  0.713741004      -1.15880203       0.00000000       2929.13647      -1.37242663    
  0.841937006      -1.06636095       0.00000000       2929.13647      -1.37242663    
  0.841498017      -1.06573403     -0.303485990       2929.13647      -1.37242663    
  0.712854981      -1.15688002     -0.303496987       2929.13647      -1.37242663    
  0.841498017      -1.06573403     -0.303485990       3659.89551      -1.37244117    
  0.960639000     -0.962104976     -0.303470999       3659.89551      -1.37244117    
  0.964356005     -0.965893984     -0.606999993       3659.89551      -1.37244117    
  0.841796994      -1.06647599     -0.606999993       3659.89551      -1.37244117    
  0.841498017      -1.06573403     -0.303485990       3146.92456      -1.37297654    
  0.841796994      -1.06647599     -0.606999993       3146.92456      -1.37297654    
  0.713809013      -1.15876603     -0.606999993       3146.92456      -1.37297654    
  0.712854981      -1.15688002     -0.303496987       3146.92456      -1.37297654    
  0.841498017      -1.06573403     -0.303485990       3422.72461      -1.37100172    
  0.841937006      -1.06636095       0.00000000       3422.72461      -1.37100172    
  0.963932991     -0.966242015       0.00000000       3422.72461      -1.37100172    
  0.960639000     -0.962104976     -0.303470999       3422.72461      -1.37100172    
  0.963932991     -0.966242015       0.00000000       3837.33984      -1.37068307    
   1.06506598     -0.843514979       0.00000000       3837.33984      -1.37068307    
   1.06428695     -0.842682004     -0.303481996       3837.33984      -1.37068307    
  0.960639000     -0.962104976     -0.303470999       3837.33984      -1.37068307    
   1.06428695     -0.842682004     -0.303481996       4515.45947      -1.37118864    
   1.15591598     -0.714210987     -0.303485006       4515.45947      -1.37118864    
   1.15788805     -0.715448976     -0.606999993       4515.45947      -1.37118864    
   1.06537795     -0.843134999     -0.606999993       4515.45947      -1.37118864    
   1.06428695     -0.842682004     -0.303481996       4105.68701      -1.37227976    
   1.06537795     -0.843134999     -0.606999993       4105.68701      -1.37227976    
  0.964356005     -0.965893984     -0.606999993       4105.68701      -1.37227976    
  0.960639000     -0.962104976     -0.303470999       4105.68701      -1.37227976    
   1.06428695     -0.842682004     -0.303481996       4206.36133      -1.37045348    
   1.06506598     -0.843514979       0.00000000       4206.36133      -1.37045348    
   1.15792501     -0.715381980       0.00000000       4206.36133      -1.37045348    
   1.15591598     -0.714210987     -0.303485006       4206.36133      -1.37045348    
   1.15792501     -0.715381980       0.00000000       4534.12939      -1.37026250    
   1.23237598     -0.576093972       0.00000000       4534.12939      -1.37026250    
   1.23120904     -0.575251997     -0.303514004       4534.12939      -1.37026250    
   1.15591598     -0.714210987     -0.303485006       4534.12939      -1.37026250    
   1.23120904     -0.575251997     -0.303514004       5122.58496      -1.37101388    
   1.28844094     -0.428344995     -0.303512990       5122.58496      -1.37101388    
   1.28952503     -0.428642988     -0.606999993       5122.58496      -1.37101388    
   1.23252702     -0.575810015     -0.606999993       5122.58496      -1.37101388    
   1.23120904     -0.575251997     -0.303514004       4855.19385      -1.37111080    
   1.23252702     -0.575810015     -0.606999993       4855.19385      -1.37111080    
   1.15788805     -0.715448976     -0.606999993       4855.19385      -1.37111080    
   1.15591598     -0.714210987     -0.303485006       4855.19385      -1.37111080    
   1.23120904     -0.575251997     -0.303514004       4809.54443      -1.36949074    
   1.23237598     -0.576093972       0.00000000       4809.54443      -1.36949074    
   1.28947699     -0.428801000       0.00000000       4809.54443      -1.36949074    
   1.28844094     -0.428344995     -0.303512990       4809.54443      -1.36949074    
   1.28947699     -0.428801000       0.00000000       4994.36572      -1.36983776    
   1.33532202     -0.277671993       0.00000000       4994.36572      -1.36983776    
   1.33076501     -0.276203990     -0.303492010       4994.36572      -1.36983776    
   1.28844094     -0.428344995     -0.303512990       4994.36572      -1.36983776    
   1.33076501     -0.276203990     -0.303492010       5483.69971      -1.37004006    
   1.35229194     -0.119709998     -0.303514004       5483.69971      -1.37004006    
   1.35321999     -0.119608998     -0.606999993       5483.69971      -1.37004006    
   1.33549094     -0.277112991     -0.606999993       5483.69971      -1.37004006    
   1.33076501     -0.276203990     -0.303492010       5333.73486      -1.37102973    
   1.33549094     -0.277112991     -0.606999993       5333.73486      -1.37102973    
   1.28952503     -0.428642988     -0.606999993       5333.73486      -1.37102973    
   1.28844094     -0.428344995     -0.303512990       5333.73486      -1.37102973    
   1.33076501     -0.276203990     -0.303492010       5095.83398      -1.37047613    
   1.33532202     -0.277671993       0.00000000       5095.83398      -1.37047613    
   1.35319102     -0.119900003       0.00000000       5095.83398      -1.37047613    
   1.35229194     -0.119709998     -0.303514004       5095.83398      -1.37047613    
   1.35319102     -0.119900003       0.00000000       5150.49072      -1.37048852    
   1.36124396       3.81390005E-02   0.00000000       5150.49072      -1.37048852    
   1.35858905       3.79349999E-02 -0.303501010       5150.49072      -1.37048852    
   1.35229194     -0.119709998     -0.303514004       5150.49072      -1.37048852    
   1.35858905       3.79349999E-02 -0.303501010       5509.05908      -1.37064099    
   1.34464097      0.195331007     -0.303496003       5509.05908      -1.37064099    
   1.34573400      0.195616007     -0.606999993       5509.05908      -1.37064099    
   1.36126804       3.78950015E-02 -0.606999993       5509.05908      -1.37064099    
   1.35858905       3.79349999E-02 -0.303501010       5522.52686      -1.37059343    
   1.36126804       3.78950015E-02 -0.606999993       5522.52686      -1.37059343    
   1.35321999     -0.119608998     -0.606999993       5522.52686      -1.37059343    
   1.35229194     -0.119709998     -0.303514004       5522.52686      -1.37059343    
   1.35858905       3.79349999E-02 -0.303501010       5162.24854      -1.36945701    
   1.36124396       3.81390005E-02   0.00000000       5162.24854      -1.36945701    
   1.34575403      0.195406005       0.00000000       5162.24854      -1.36945701    
   1.34464097      0.195331007     -0.303496003       5162.24854      -1.36945701    
   1.34575403      0.195406005       0.00000000       5077.63330      -1.36952591    
   1.31339800      0.349945009       0.00000000       5077.63330      -1.36952591    
   1.31216300      0.349725991     -0.303487003       5077.63330      -1.36952591    
   1.34464097      0.195331007     -0.303496003       5077.63330      -1.36952591    
   1.31216300      0.349725991     -0.303487003       5241.20020      -1.37119305    
   1.26341999      0.500032008     -0.303494006       5241.20020      -1.37119305    
   1.26736605      0.501691997     -0.606999993       5241.20020      -1.37119305    
   1.31333196      0.350163996     -0.606999993       5241.20020      -1.37119305    
   1.31216300      0.349725991     -0.303487003       5412.20020      -1.37063968    
   1.31333196      0.350163996     -0.606999993       5412.20020      -1.37063968    
   1.34573400      0.195616007     -0.606999993       5412.20020      -1.37063968    
   1.34464097      0.195331007     -0.303496003       5412.20020      -1.37063968    
   1.31216300      0.349725991     -0.303487003       4932.04639      -1.36955917    
   1.31339800      0.349945009       0.00000000       4932.04639      -1.36955917    
   1.26751196      0.501209974       0.00000000       4932.04639      -1.36955917    
   1.26341999      0.500032008     -0.303494006       4932.04639      -1.36955917    
   1.26751196      0.501209974       0.00000000       4686.87012      -1.37084889    
   1.19658697      0.643051028       0.00000000       4686.87012      -1.37084889    
   1.19583094      0.642783999     -0.303505003       4686.87012      -1.37084889    
   1.26341999      0.500032008     -0.303494006       4686.87012      -1.37084889    
   1.19583094      0.642783999     -0.303505003       4721.42969      -1.37040722    
   1.11495602      0.778467000     -0.303483993       4721.42969      -1.37040722    
   1.11731696      0.779847026     -0.606999993       4721.42969      -1.37040722    
   1.19653296      0.643149972     -0.606999993       4721.42969      -1.37040722    
   1.19583094      0.642783999     -0.303505003       5004.75244      -1.37127018    
   1.19653296      0.643149972     -0.606999993       5004.75244      -1.37127018    
   1.26736605      0.501691997     -0.606999993       5004.75244      -1.37127018    
   1.26341999      0.500032008     -0.303494006       5004.75244      -1.37127018    
   1.19583094      0.642783999     -0.303505003       4383.00977      -1.37118673    
   1.19658697      0.643051028       0.00000000       4383.00977      -1.37118673    
   1.11705506      0.780165970       0.00000000       4383.00977      -1.37118673    
   1.11495602      0.778467000     -0.303483993       4383.00977      -1.37118673    
   1.11705506      0.780165970       0.00000000       4034.61206      -1.37150061    
   1.01674199      0.902397990       0.00000000       4034.61206      -1.37150061    
   1.01591504      0.901737988     -0.303478003       4034.61206      -1.37150061    
   1.11495602      0.778467000     -0.303483993       4034.61206      -1.37150061    
   1.01591504      0.901737988     -0.303478003       3904.79443      -1.37174511    
  0.904204011       1.01322901     -0.303456992       3904.79443      -1.37174511    
  0.905143023       1.01448905     -0.606999993       3904.79443      -1.37174511    
   1.01659799      0.902572989     -0.606999993       3904.79443      -1.37174511    
   1.01591504      0.901737988     -0.303478003       4338.47461      -1.37153196    
   1.01659799      0.902572989     -0.606999993       4338.47461      -1.37153196    
   1.11731696      0.779847026     -0.606999993       4338.47461      -1.37153196    
   1.11495602      0.778467000     -0.303483993       4338.47461      -1.37153196    
   1.01591504      0.901737988     -0.303478003       3624.09058      -1.37196410    
   1.01674199      0.902397990       0.00000000       3624.09058      -1.37196410    
  0.905318975       1.01434398       0.00000000       3624.09058      -1.37196410    
  0.904204011       1.01322901     -0.303456992       3624.09058      -1.37196410    
  0.905318975       1.01434398       0.00000000       3205.20361      -1.37092745    
  0.782918990       1.11479497       0.00000000       3205.20361      -1.37092745    
  0.780644000       1.11195600     -0.303485006       3205.20361      -1.37092745    
  0.904204011       1.01322901     -0.303456992       3205.20361      -1.37092745    
  0.780644000       1.11195600     -0.303485006       2906.53735      -1.37251425    
  0.645825028       1.19414902     -0.303514004       2906.53735      -1.37251425    
  0.646153986       1.19492805     -0.606999993       2906.53735      -1.37251425    
  0.782611012       1.11504900     -0.606999993       2906.53735      -1.37251425    
  0.780644000       1.11195600     -0.303485006       3427.98462      -1.37216473    
  0.782611012       1.11504900     -0.606999993       3427.98462      -1.37216473    
  0.905143023       1.01448905     -0.606999993       3427.98462      -1.37216473    
  0.904204011       1.01322901     -0.303456992       3427.98462      -1.37216473    
  0.780644000       1.11195600     -0.303485006       2722.63354      -1.37120438    
  0.782918990       1.11479497       0.00000000       2722.63354      -1.37120438    
  0.646345019       1.19482601       0.00000000       2722.63354      -1.37120438    
  0.645825028       1.19414902     -0.303514004       2722.63354      -1.37120438    
  0.646345019       1.19482601       0.00000000       2162.99316      -1.37451458    
  0.504974008       1.26637006       0.00000000       2162.99316      -1.37451458    
  0.503772974       1.26314998     -0.303521991       2162.99316      -1.37451458    
  0.645825028       1.19414902     -0.303514004       2162.99316      -1.37451458    
  0.503772974       1.26314998     -0.303521991       1753.96326      -1.37429810    
  0.353130996       1.31116498     -0.303510994       1753.96326      -1.37429810    
  0.353300005       1.31237996     -0.606999993       1753.96326      -1.37429810    
  0.505183995       1.26630700     -0.606999993       1753.96326      -1.37429810    
  0.503772974       1.26314998     -0.303521991       2338.63501      -1.37340498    
  0.505183995       1.26630700     -0.606999993       2338.63501      -1.37340498    
  0.646153986       1.19492805     -0.606999993       2338.63501      -1.37340498    
  0.645825028       1.19414902     -0.303514004       2338.63501      -1.37340498    
  0.503772974       1.26314998     -0.303521991       1618.16162      -1.37673330    
  0.504974008       1.26637006       0.00000000       1618.16162      -1.37673330    
  0.353493989       1.31232095       0.00000000       1618.16162      -1.37673330    
  0.353130996       1.31116498     -0.303510994       1618.16162      -1.37673330    
  0.353493989       1.31232095       0.00000000       1034.00635      -1.38215089    
  0.199064001       1.34539402       0.00000000       1034.00635      -1.38215089    
  0.198755994       1.34360003     -0.303496003       1034.00635      -1.38215089    
  0.353130996       1.31116498     -0.303510994       1034.00635      -1.38215089    
  0.198755994       1.34360003     -0.303496003       472.042633      -1.39970350    
   4.12769988E-02   1.35817802     -0.303508013       472.042633      -1.39970350    
   4.12410013E-02   1.36093795     -0.606999993       472.042633      -1.39970350    
  0.199025005       1.34539795     -0.606999993       472.042633      -1.39970350    
  0.198755994       1.34360003     -0.303496003       1131.30334      -1.37729573    
  0.199025005       1.34539795     -0.606999993       1131.30334      -1.37729573    
  0.353300005       1.31237996     -0.606999993       1131.30334      -1.37729573    
  0.353130996       1.31116498     -0.303510994       1131.30334      -1.37729573    
  0.198755994       1.34360003     -0.303496003       441.356079      -1.40215576    
  0.199064001       1.34539402       0.00000000       441.356079      -1.40215576    
   4.17769998E-02   1.36088502       0.00000000       441.356079      -1.40215576    
   4.12769988E-02   1.35817802     -0.303508013       441.356079      -1.40215576    
   4.17769998E-02   1.36088502       0.00000000       153.881348       1.87225330    
 -0.116410002       1.35353506       0.00000000       153.881348       1.87225330    
 -0.116471998       1.35271096     -0.303496987       153.881348       1.87225330    
   4.12769988E-02   1.35817802     -0.303508013       153.881348       1.87225330    
 -0.116471998       1.35271096     -0.303496987       813.612061       1.79497337    
 -0.273027003       1.33229196     -0.303496003       813.612061       1.79497337    
 -0.273876995       1.33647299     -0.606999993       813.612061       1.79497337    
 -0.116722003       1.35350394     -0.606999993       813.612061       1.79497337    
 -0.116471998       1.35271096     -0.303496987       163.616013       1.85949218    
 -0.116722003       1.35350394     -0.606999993       163.616013       1.85949218    
   4.12410013E-02   1.36093795     -0.606999993       163.616013       1.85949218    
   4.12769988E-02   1.35817802     -0.303508013       163.616013       1.85949218    
 -0.116471998       1.35271096     -0.303496987       758.949402       1.79438198    
 -0.116410002       1.35353506       0.00000000       758.949402       1.79438198    
 -0.274069011       1.33641505       0.00000000       758.949402       1.79438198    
 -0.273027003       1.33229196     -0.303496003       758.949402       1.79438198    
 -0.274069011       1.33641505       0.00000000       1331.63098       1.78548253    
 -0.425588995       1.29045200       0.00000000       1331.63098       1.78548253    
 -0.425258011       1.28953803     -0.303507000       1331.63098       1.78548253    
 -0.273027003       1.33229196     -0.303496003       1331.63098       1.78548253    
 -0.425258011       1.28953803     -0.303507000       2035.81030       1.78140056    
 -0.572302997       1.23206902     -0.303485990       2035.81030       1.78140056    
 -0.573064029       1.23399496     -0.606999993       2035.81030       1.78140056    
 -0.425651014       1.29043305     -0.606999993       2035.81030       1.78140056    
 -0.425258011       1.28953803     -0.303507000       1427.57703       1.78479743    
 -0.425651014       1.29043305     -0.606999993       1427.57703       1.78479743    
 -0.273876995       1.33647299     -0.606999993       1427.57703       1.78479743    
 -0.273027003       1.33229196     -0.303496003       1427.57703       1.78479743    
 -0.425258011       1.28953803     -0.303507000       1898.11304       1.78216100    
 -0.425588995       1.29045200       0.00000000       1898.11304       1.78216100    
 -0.573195994       1.23392498       0.00000000       1898.11304       1.78216100    
 -0.572302997       1.23206902     -0.303485990       1898.11304       1.78216100    
 -0.573195994       1.23392498       0.00000000       2434.45728       1.78037834    
 -0.712655008       1.15938199       0.00000000       2434.45728       1.78037834    
 -0.711889029       1.15749002     -0.303496003       2434.45728       1.78037834    
 -0.572302997       1.23206902     -0.303485990       2434.45728       1.78037834    
 -0.711889029       1.15749002     -0.303496003       3150.08228       1.77778637    
 -0.840825975       1.06629205     -0.303485990       3150.08228       1.77778637    
 -0.841368973       1.06682706     -0.606999993       3150.08228       1.77778637    
 -0.712980986       1.15920806     -0.606999993       3150.08228       1.77778637    
 -0.711889029       1.15749002     -0.303496003       2611.17041       1.77895701    
 -0.712980986       1.15920806     -0.606999993       2611.17041       1.77895701    
 -0.573064029       1.23399496     -0.606999993       2611.17041       1.77895701    
 -0.572302997       1.23206902     -0.303485990       2611.17041       1.77895701    
 -0.711889029       1.15749002     -0.303496003       2932.20801       1.77910829    
 -0.712655008       1.15938199       0.00000000       2932.20801       1.77910829    
 -0.841165006       1.06699395       0.00000000       2932.20801       1.77910829    
 -0.840825975       1.06629205     -0.303485990       2932.20801       1.77910829    
 -0.841165006       1.06699395       0.00000000       3407.78027       1.77847362    
 -0.963320017      0.966744006       0.00000000       3407.78027       1.77847362    
 -0.960084975      0.962615013     -0.303470999       3407.78027       1.77847362    
 -0.840825975       1.06629205     -0.303485990       3407.78027       1.77847362    
 -0.960084975      0.962615013     -0.303470999       4104.81494       1.77638149    
  -1.06383705      0.843237996     -0.303481996       4104.81494       1.77638149    
  -1.06481802      0.843816996     -0.606999993       4104.81494       1.77638149    
 -0.963873982      0.966289997     -0.606999993       4104.81494       1.77638149    
 -0.960084975      0.962615013     -0.303470999       3660.31128       1.77705705    
 -0.963873982      0.966289997     -0.606999993       3660.31128       1.77705705    
 -0.841368973       1.06682706     -0.606999993       3660.31128       1.77705705    
 -0.840825975       1.06629205     -0.303485990       3660.31128       1.77705705    
 -0.960084975      0.962615013     -0.303470999       3827.53418       1.77818501    
 -0.963320017      0.966744006       0.00000000       3827.53418       1.77818501    
  -1.06464398      0.844029009       0.00000000       3827.53418       1.77818501    
  -1.06383705      0.843237996     -0.303481996       3827.53418       1.77818501    
  -1.06464398      0.844029009       0.00000000       4207.39600       1.77776253    
  -1.15769398      0.715813994       0.00000000       4207.39600       1.77776253    
  -1.15564799      0.714680016     -0.303483993       4207.39600       1.77776253    
  -1.06383705      0.843237996     -0.303481996       4207.39600       1.77776253    
  -1.15564799      0.714680016     -0.303483993       4847.19580       1.77593040    
  -1.23108304      0.575536013     -0.303514004       4847.19580       1.77593040    
  -1.23232996      0.576179981     -0.606999993       4847.19580       1.77593040    
  -1.15756094      0.716063023     -0.606999993       4847.19580       1.77593040    
  -1.15564799      0.714680016     -0.303483993       4502.78760       1.77613473    
  -1.15756094      0.716063023     -0.606999993       4502.78760       1.77613473    
  -1.06481802      0.843816996     -0.606999993       4502.78760       1.77613473    
  -1.06383705      0.843237996     -0.303481996       4502.78760       1.77613473    
  -1.15564799      0.714680016     -0.303483993       4543.85840       1.77746153    
  -1.15769398      0.715813994       0.00000000       4543.85840       1.77746153    
  -1.23224795      0.576331973       0.00000000       4543.85840       1.77746153    
  -1.23108304      0.575536013     -0.303514004       4543.85840       1.77746153    
  -1.23224795      0.576331973       0.00000000       4807.75635       1.77725065    
  -1.28948605      0.428772002       0.00000000       4807.75635       1.77725065    
  -1.28842103      0.428404987     -0.303512990       4807.75635       1.77725065    
  -1.23108304      0.575536013     -0.303514004       4807.75635       1.77725065    
  -1.28842103      0.428404987     -0.303512990       5309.29785       1.77469504    
  -1.33082402      0.275959998     -0.303492010       5309.29785       1.77469504    
  -1.33550000      0.277083993     -0.606999993       5309.29785       1.77469504    