 VARIABLES="X" "Y" "Z" "abs(p) (Pa)" "angle(p) (rad)"
ZONE N=   2720,E =    2069, F=FEPOINT, ET=QUADRILATERAL
 -0.767116010      -1.12776399       0.00000000       12963.1826       1.57906055    
 -0.769354999      -1.12002099     -0.303523988       12963.1826       1.57906055    
 -0.896136999      -1.02028203     -0.303463012       12963.1826       1.57906055    
 -0.894908011      -1.02288902       0.00000000       12963.1826       1.57906055    
 -0.767116010      -1.12776399       0.00000000       11124.5850       1.57931423    
 -0.630888999      -1.20308697       0.00000000       11124.5850       1.57931423    
 -0.635528028      -1.19958198     -0.303541005       11124.5850       1.57931423    
 -0.769354999      -1.12002099     -0.303523988       11124.5850       1.57931423    
 -0.635528028      -1.19958198     -0.303541005       6649.60254       1.57846689    
 -0.495362997      -1.26606500     -0.303519011       6649.60254       1.57846689    
 -0.499298006      -1.26809204     -0.606999993       6649.60254       1.57846689    
 -0.640147984      -1.19813800     -0.606998026       6649.60254       1.57846689    
 -0.635528028      -1.19958198     -0.303541005       8150.67529       1.57808983    
 -0.640147984      -1.19813800     -0.606998026       8150.67529       1.57808983    
 -0.777105987      -1.11956596     -0.606999993       8150.67529       1.57808983    
 -0.769354999      -1.12002099     -0.303523988       8150.67529       1.57808983    
 -0.635528028      -1.19958198     -0.303541005       8863.45312       1.57988751    
 -0.630888999      -1.20308697       0.00000000       8863.45312       1.57988751    
 -0.494486004      -1.26955199       0.00000000       8863.45312       1.57988751    
 -0.495362997      -1.26606500     -0.303519011       8863.45312       1.57988751    
 -0.494486004      -1.26955199       0.00000000       6896.92334       1.58044732    
 -0.346311986      -1.31449997       0.00000000       6896.92334       1.58044732    
 -0.346753001      -1.31307304     -0.303510010       6896.92334       1.58044732    
 -0.495362997      -1.26606500     -0.303519011       6896.92334       1.58044732    
 -0.346753001      -1.31307304     -0.303510010       3525.43433       1.58003390    
 -0.193608001      -1.34425998     -0.303494990       3525.43433       1.58003390    
 -0.195028007      -1.34579206     -0.606999993       3525.43433       1.58003390    
 -0.348751009      -1.31376004     -0.606999993       3525.43433       1.58003390    
 -0.346753001      -1.31307304     -0.303510010       5129.01025       1.57902408    
 -0.348751009      -1.31376004     -0.606999993       5129.01025       1.57902408    
 -0.499298006      -1.26809204     -0.606999993       5129.01025       1.57902408    
 -0.495362997      -1.26606500     -0.303519011       5129.01025       1.57902408    
 -0.346753001      -1.31307304     -0.303510010       4827.57227       1.58146071    
 -0.346311986      -1.31449997       0.00000000       4827.57227       1.58146071    
 -0.193381995      -1.34595394       0.00000000       4827.57227       1.58146071    
 -0.193608001      -1.34425998     -0.303494990       4827.57227       1.58146071    
 -0.193381995      -1.34595394       0.00000000       2971.40015       1.58295202    
  -3.75179984E-02  -1.36130500       0.00000000       2971.40015       1.58295202    
  -3.73950005E-02  -1.35827899     -0.303512007       2971.40015       1.58295202    
 -0.193608001      -1.34425998     -0.303494990       2971.40015       1.58295202    
  -3.73950005E-02  -1.35827899     -0.303512007       215.329010       1.62758803    
  0.119547002      -1.35239303     -0.303498000       215.329010       1.62758803    
  0.119135000      -1.35326600     -0.606999993       215.329010       1.62758803    
  -3.82840000E-02  -1.36122894     -0.606998980       215.329010       1.62758803    
  -3.73950005E-02  -1.35827899     -0.303512007       1851.39429       1.58291733    
  -3.82840000E-02  -1.36122894     -0.606998980       1851.39429       1.58291733    
 -0.195028007      -1.34579206     -0.606999993       1851.39429       1.58291733    
 -0.193608001      -1.34425998     -0.303494990       1851.39429       1.58291733    
  -3.73950005E-02  -1.35827899     -0.303512007       843.307495       1.59500694    
  -3.75179984E-02  -1.36130500       0.00000000       843.307495       1.59500694    
  0.119788997      -1.35320199       0.00000000       843.307495       1.59500694    
  0.119547002      -1.35239303     -0.303498000       843.307495       1.59500694    
  0.119788997      -1.35320199       0.00000000       1377.29187      -1.57389390    
  0.276576012      -1.33565402       0.00000000       1377.29187      -1.57389390    
  0.275435001      -1.33191597     -0.303496003       1377.29187      -1.57389390    
  0.119547002      -1.35239303     -0.303498000       1377.29187      -1.57389390    
  0.275435001      -1.33191597     -0.303496003       2798.25171      -1.56785226    
  0.427076995      -1.28898001     -0.303507000       2798.25171      -1.56785226    
  0.427242011      -1.28995001     -0.606999993       2798.25171      -1.56785226    
  0.275831014      -1.33588004     -0.606999993       2798.25171      -1.56785226    
  0.275435001      -1.33191597     -0.303496003       1228.06421      -1.57217026    
  0.275831014      -1.33588004     -0.606999993       1228.06421      -1.57217026    
  0.119135000      -1.35326600     -0.606999993       1228.06421      -1.57217026    
  0.119547002      -1.35239303     -0.303498000       1228.06421      -1.57217026    
  0.275435001      -1.33191597     -0.303496003       3445.49878      -1.56760371    
  0.276576012      -1.33565402       0.00000000       3445.49878      -1.56760371    
  0.427509993      -1.28986895       0.00000000       3445.49878      -1.56760371    
  0.427076995      -1.28898001     -0.303507000       3445.49878      -1.56760371    
  0.427509993      -1.28986895       0.00000000       5448.23096      -1.56601620    
  0.574636996      -1.23315501       0.00000000       5448.23096      -1.56601620    
  0.573706985      -1.23136795     -0.303485990       5448.23096      -1.56601620    
  0.427076995      -1.28898001     -0.303507000       5448.23096      -1.56601620    
  0.573706985      -1.23136795     -0.303485990       5890.60938      -1.56613755    
  0.712854981      -1.15688002     -0.303496987       5890.60938      -1.56613755    
  0.713809013      -1.15876603     -0.606999993       5890.60938      -1.56613755    
  0.574283004      -1.23334301     -0.606999993       5890.60938      -1.56613755    
  0.573706985      -1.23136795     -0.303485990       4378.37061      -1.56664705    
  0.574283004      -1.23334301     -0.606999993       4378.37061      -1.56664705    
  0.427242011      -1.28995001     -0.606999993       4378.37061      -1.56664705    
  0.427076995      -1.28898001     -0.303507000       4378.37061      -1.56664705    
  0.573706985      -1.23136795     -0.303485990       7422.95264      -1.56536710    
  0.574636996      -1.23315501       0.00000000       7422.95264      -1.56536710    
  0.713741004      -1.15880203       0.00000000       7422.95264      -1.56536710    
  0.712854981      -1.15688002     -0.303496987       7422.95264      -1.56536710    
  0.713741004      -1.15880203       0.00000000       9267.43652      -1.56502056    
  0.841937006      -1.06636095       0.00000000       9267.43652      -1.56502056    
  0.841498017      -1.06573403     -0.303485990       9267.43652      -1.56502056    
  0.712854981      -1.15688002     -0.303496987       9267.43652      -1.56502056    
  0.841498017      -1.06573403     -0.303485990       8572.29297      -1.56563663    
  0.960639000     -0.962104976     -0.303470999       8572.29297      -1.56563663    
  0.964356005     -0.965893984     -0.606999993       8572.29297      -1.56563663    
  0.841796994      -1.06647599     -0.606999993       8572.29297      -1.56563663    
  0.841498017      -1.06573403     -0.303485990       7256.00391      -1.56582654    
  0.841796994      -1.06647599     -0.606999993       7256.00391      -1.56582654    
  0.713809013      -1.15876603     -0.606999993       7256.00391      -1.56582654    
  0.712854981      -1.15688002     -0.303496987       7256.00391      -1.56582654    
  0.841498017      -1.06573403     -0.303485990       11097.7227      -1.56481004    
  0.841937006      -1.06636095       0.00000000       11097.7227      -1.56481004    
  0.963932991     -0.966242015       0.00000000       11097.7227      -1.56481004    
  0.960639000     -0.962104976     -0.303470999       11097.7227      -1.56481004    
  0.963932991     -0.966242015       0.00000000       12573.0371      -1.56465554    
   1.06506598     -0.843514979       0.00000000       12573.0371      -1.56465554    
   1.06428695     -0.842682004     -0.303481996       12573.0371      -1.56465554    
  0.960639000     -0.962104976     -0.303470999       12573.0371      -1.56465554    
   1.06428695     -0.842682004     -0.303481996       11004.4707      -1.56550550    
   1.15591598     -0.714210987     -0.303485006       11004.4707      -1.56550550    
   1.15788805     -0.715448976     -0.606999993       11004.4707      -1.56550550    
   1.06537795     -0.843134999     -0.606999993       11004.4707      -1.56550550    
   1.06428695     -0.842682004     -0.303481996       9723.92676      -1.56551003    
   1.06537795     -0.843134999     -0.606999993       9723.92676      -1.56551003    
  0.964356005     -0.965893984     -0.606999993       9723.92676      -1.56551003    
  0.960639000     -0.962104976     -0.303470999       9723.92676      -1.56551003    
   1.06428695     -0.842682004     -0.303481996       13764.3008      -1.56453204    
   1.06506598     -0.843514979       0.00000000       13764.3008      -1.56453204    
   1.15792501     -0.715381980       0.00000000       13764.3008      -1.56453204    
   1.15591598     -0.714210987     -0.303485006       13764.3008      -1.56453204    
   1.15792501     -0.715381980       0.00000000       14968.8018      -1.56442702    
   1.23237598     -0.576093972       0.00000000       14968.8018      -1.56442702    
   1.23120904     -0.575251997     -0.303514004       14968.8018      -1.56442702    
   1.15591598     -0.714210987     -0.303485006       14968.8018      -1.56442702    
   1.23120904     -0.575251997     -0.303514004       12619.5557      -1.56533968    
   1.28844094     -0.428344995     -0.303512990       12619.5557      -1.56533968    
   1.28952503     -0.428642988     -0.606999993       12619.5557      -1.56533968    
   1.23252702     -0.575810015     -0.606999993       12619.5557      -1.56533968    
   1.23120904     -0.575251997     -0.303514004       11886.6797      -1.56541061    
   1.23252702     -0.575810015     -0.606999993       11886.6797      -1.56541061    
   1.15788805     -0.715448976     -0.606999993       11886.6797      -1.56541061    
   1.15591598     -0.714210987     -0.303485006       11886.6797      -1.56541061    
   1.23120904     -0.575251997     -0.303514004       16256.8682      -1.56443071    
   1.23237598     -0.576093972       0.00000000       16256.8682      -1.56443071    
   1.28947699     -0.428801000       0.00000000       16256.8682      -1.56443071    
   1.28844094     -0.428344995     -0.303512990       16256.8682      -1.56443071    
   1.28947699     -0.428801000       0.00000000       17013.0371      -1.56430531    
   1.33532202     -0.277671993       0.00000000       17013.0371      -1.56430531    
   1.33076501     -0.276203990     -0.303492010       17013.0371      -1.56430531    
   1.28844094     -0.428344995     -0.303512990       17013.0371      -1.56430531    
   1.33076501     -0.276203990     -0.303492010       13890.1230      -1.56538570    
   1.35229194     -0.119709998     -0.303514004       13890.1230      -1.56538570    
   1.35321999     -0.119608998     -0.606999993       13890.1230      -1.56538570    
   1.33549094     -0.277112991     -0.606999993       13890.1230      -1.56538570    
   1.33076501     -0.276203990     -0.303492010       13147.5713      -1.56527424    
   1.33549094     -0.277112991     -0.606999993       13147.5713      -1.56527424    
   1.28952503     -0.428642988     -0.606999993       13147.5713      -1.56527424    
   1.28844094     -0.428344995     -0.303512990       13147.5713      -1.56527424    
   1.33076501     -0.276203990     -0.303492010       17268.8809      -1.56415117    
   1.33532202     -0.277671993       0.00000000       17268.8809      -1.56415117    
   1.35319102     -0.119900003       0.00000000       17268.8809      -1.56415117    
   1.35229194     -0.119709998     -0.303514004       17268.8809      -1.56415117    
   1.35319102     -0.119900003       0.00000000       17546.5332      -1.56410217    
   1.36124396       3.81390005E-02   0.00000000       17546.5332      -1.56410217    
   1.35858905       3.79349999E-02 -0.303501010       17546.5332      -1.56410217    
   1.35229194     -0.119709998     -0.303514004       17546.5332      -1.56410217    
   1.35858905       3.79349999E-02 -0.303501010       13758.3389      -1.56525242    
   1.34464097      0.195331007     -0.303496003       13758.3389      -1.56525242    
   1.34573400      0.195616007     -0.606999993       13758.3389      -1.56525242    
   1.36126804       3.78950015E-02 -0.606999993       13758.3389      -1.56525242    
   1.35858905       3.79349999E-02 -0.303501010       13827.1445      -1.56527531    
   1.36126804       3.78950015E-02 -0.606999993       13827.1445      -1.56527531    
   1.35321999     -0.119608998     -0.606999993       13827.1445      -1.56527531    
   1.35229194     -0.119709998     -0.303514004       13827.1445      -1.56527531    
   1.35858905       3.79349999E-02 -0.303501010       17968.0176      -1.56419277    
   1.36124396       3.81390005E-02   0.00000000       17968.0176      -1.56419277    
   1.34575403      0.195406005       0.00000000       17968.0176      -1.56419277    
   1.34464097      0.195331007     -0.303496003       17968.0176      -1.56419277    
   1.34575403      0.195406005       0.00000000       17737.8203      -1.56417501    
   1.31339800      0.349945009       0.00000000       17737.8203      -1.56417501    
   1.31216300      0.349725991     -0.303487003       17737.8203      -1.56417501    
   1.34464097      0.195331007     -0.303496003       17737.8203      -1.56417501    
   1.31216300      0.349725991     -0.303487003       12983.1133      -1.56524396    
   1.26341999      0.500032008     -0.303494006       12983.1133      -1.56524396    
   1.26736605      0.501691997     -0.606999993       12983.1133      -1.56524396    
   1.31333196      0.350163996     -0.606999993       12983.1133      -1.56524396    
   1.31216300      0.349725991     -0.303487003       13519.2812      -1.56525552    
   1.31333196      0.350163996     -0.606999993       13519.2812      -1.56525552    
   1.34573400      0.195616007     -0.606999993       13519.2812      -1.56525552    
   1.34464097      0.195331007     -0.303496003       13519.2812      -1.56525552    
   1.31216300      0.349725991     -0.303487003       17241.4414      -1.56415606    
   1.31339800      0.349945009       0.00000000       17241.4414      -1.56415606    
   1.26751196      0.501209974       0.00000000       17241.4414      -1.56415606    
   1.26341999      0.500032008     -0.303494006       17241.4414      -1.56415606    
   1.26751196      0.501209974       0.00000000       16083.3330      -1.56401479    
   1.19658697      0.643051028       0.00000000       16083.3330      -1.56401479    
   1.19583094      0.642783999     -0.303505003       16083.3330      -1.56401479    
   1.26341999      0.500032008     -0.303494006       16083.3330      -1.56401479    
   1.19583094      0.642783999     -0.303505003       11758.5898      -1.56541622    
   1.11495602      0.778467000     -0.303483993       11758.5898      -1.56541622    
   1.11731696      0.779847026     -0.606999993       11758.5898      -1.56541622    
   1.19653296      0.643149972     -0.606999993       11758.5898      -1.56541622    
   1.19583094      0.642783999     -0.303505003       12341.0996      -1.56526649    
   1.19653296      0.643149972     -0.606999993       12341.0996      -1.56526649    
   1.26736605      0.501691997     -0.606999993       12341.0996      -1.56526649    
   1.26341999      0.500032008     -0.303494006       12341.0996      -1.56526649    
   1.19583094      0.642783999     -0.303505003       14858.3887      -1.56403148    
   1.19658697      0.643051028       0.00000000       14858.3887      -1.56403148    
   1.11705506      0.780165970       0.00000000       14858.3887      -1.56403148    
   1.11495602      0.778467000     -0.303483993       14858.3887      -1.56403148    
   1.11705506      0.780165970       0.00000000       13423.1221      -1.56405580    
   1.01674199      0.902397990       0.00000000       13423.1221      -1.56405580    
   1.01591504      0.901737988     -0.303478003       13423.1221      -1.56405580    
   1.11495602      0.778467000     -0.303483993       13423.1221      -1.56405580    
   1.01591504      0.901737988     -0.303478003       9245.06055      -1.56533492    
  0.904204011       1.01322901     -0.303456992       9245.06055      -1.56533492    
  0.905143023       1.01448905     -0.606999993       9245.06055      -1.56533492    
   1.01659799      0.902572989     -0.606999993       9245.06055      -1.56533492    
   1.01591504      0.901737988     -0.303478003       10404.8359      -1.56529176    
   1.01659799      0.902572989     -0.606999993       10404.8359      -1.56529176    
   1.11731696      0.779847026     -0.606999993       10404.8359      -1.56529176    
   1.11495602      0.778467000     -0.303483993       10404.8359      -1.56529176    
   1.01591504      0.901737988     -0.303478003       11776.5723      -1.56410086    
   1.01674199      0.902397990       0.00000000       11776.5723      -1.56410086    
  0.905318975       1.01434398       0.00000000       11776.5723      -1.56410086    
  0.904204011       1.01322901     -0.303456992       11776.5723      -1.56410086    
  0.905318975       1.01434398       0.00000000       10347.0889      -1.56425095    
  0.782918990       1.11479497       0.00000000       10347.0889      -1.56425095    
  0.780644000       1.11195600     -0.303485006       10347.0889      -1.56425095    
  0.904204011       1.01322901     -0.303456992       10347.0889      -1.56425095    
  0.780644000       1.11195600     -0.303485006       6565.05566      -1.56540585    
  0.645825028       1.19414902     -0.303514004       6565.05566      -1.56540585    
  0.646153986       1.19492805     -0.606999993       6565.05566      -1.56540585    
  0.782611012       1.11504900     -0.606999993       6565.05566      -1.56540585    
  0.780644000       1.11195600     -0.303485006       7946.51270      -1.56536698    
  0.782611012       1.11504900     -0.606999993       7946.51270      -1.56536698    
  0.905143023       1.01448905     -0.606999993       7946.51270      -1.56536698    
  0.904204011       1.01322901     -0.303456992       7946.51270      -1.56536698    
  0.780644000       1.11195600     -0.303485006       8529.35742      -1.56431174    
  0.782918990       1.11479497       0.00000000       8529.35742      -1.56431174    
  0.646345019       1.19482601       0.00000000       8529.35742      -1.56431174    
  0.645825028       1.19414902     -0.303514004       8529.35742      -1.56431174    
  0.646345019       1.19482601       0.00000000       6223.45996      -1.56414282    
  0.504974008       1.26637006       0.00000000       6223.45996      -1.56414282    
  0.503772974       1.26314998     -0.303521991       6223.45996      -1.56414282    
  0.645825028       1.19414902     -0.303514004       6223.45996      -1.56414282    
  0.503772974       1.26314998     -0.303521991       3566.27515      -1.56570125    
  0.353130996       1.31116498     -0.303510994       3566.27515      -1.56570125    
  0.353300005       1.31237996     -0.606999993       3566.27515      -1.56570125    
  0.505183995       1.26630700     -0.606999993       3566.27515      -1.56570125    
  0.503772974       1.26314998     -0.303521991       5077.68994      -1.56550276    
  0.505183995       1.26630700     -0.606999993       5077.68994      -1.56550276    
  0.646153986       1.19492805     -0.606999993       5077.68994      -1.56550276    
  0.645825028       1.19414902     -0.303514004       5077.68994      -1.56550276    
  0.503772974       1.26314998     -0.303521991       4175.45654      -1.56424403    
  0.504974008       1.26637006       0.00000000       4175.45654      -1.56424403    
  0.353493989       1.31232095       0.00000000       4175.45654      -1.56424403    
  0.353130996       1.31116498     -0.303510994       4175.45654      -1.56424403    
  0.353493989       1.31232095       0.00000000       2022.23083      -1.56474364    
  0.199064001       1.34539402       0.00000000       2022.23083      -1.56474364    
  0.198755994       1.34360003     -0.303496003       2022.23083      -1.56474364    
  0.353130996       1.31116498     -0.303510994       2022.23083      -1.56474364    
  0.198755994       1.34360003     -0.303496003       1.34698975      -2.60114145    
   4.12769988E-02   1.35817802     -0.303508013       1.34698975      -2.60114145    
   4.12410013E-02   1.36093795     -0.606999993       1.34698975      -2.60114145    
  0.199025005       1.34539795     -0.606999993       1.34698975      -2.60114145    
  0.198755994       1.34360003     -0.303496003       1937.49780      -1.56629610    
  0.199025005       1.34539795     -0.606999993       1937.49780      -1.56629610    
  0.353300005       1.31237996     -0.606999993       1937.49780      -1.56629610    
  0.353130996       1.31116498     -0.303510994       1937.49780      -1.56629610    
  0.198755994       1.34360003     -0.303496003       147.944504       1.59153748    
  0.199064001       1.34539402       0.00000000       147.944504       1.59153748    
   4.17769998E-02   1.36088502       0.00000000       147.944504       1.59153748    
   4.12769988E-02   1.35817802     -0.303508013       147.944504       1.59153748    
   4.17769998E-02   1.36088502       0.00000000       2234.36255       1.57899392    
 -0.116410002       1.35353506       0.00000000       2234.36255       1.57899392    
 -0.116471998       1.35271096     -0.303496987       2234.36255       1.57899392    
   4.12769988E-02   1.35817802     -0.303508013       2234.36255       1.57899392    
 -0.116471998       1.35271096     -0.303496987       3443.85571       1.57695365    
 -0.273027003       1.33229196     -0.303496003       3443.85571       1.57695365    
 -0.273876995       1.33647299     -0.606999993       3443.85571       1.57695365    
 -0.116722003       1.35350394     -0.606999993       3443.85571       1.57695365    
 -0.116471998       1.35271096     -0.303496987       1656.36096       1.57745194    
 -0.116722003       1.35350394     -0.606999993       1656.36096       1.57745194    
   4.12410013E-02   1.36093795     -0.606999993       1656.36096       1.57745194    
   4.12769988E-02   1.35817802     -0.303508013       1656.36096       1.57745194    
 -0.116471998       1.35271096     -0.303496987       4411.39795       1.57854593    
 -0.116410002       1.35353506       0.00000000       4411.39795       1.57854593    
 -0.274069011       1.33641505       0.00000000       4411.39795       1.57854593    
 -0.273027003       1.33229196     -0.303496003       4411.39795       1.57854593    
 -0.274069011       1.33641505       0.00000000       6436.70898       1.57836068    
 -0.425588995       1.29045200       0.00000000       6436.70898       1.57836068    
 -0.425258011       1.28953803     -0.303507000       6436.70898       1.57836068    
 -0.273027003       1.33229196     -0.303496003       6436.70898       1.57836068    
 -0.425258011       1.28953803     -0.303507000       6632.35107       1.57687521    
 -0.572302997       1.23206902     -0.303485990       6632.35107       1.57687521    
 -0.573064029       1.23399496     -0.606999993       6632.35107       1.57687521    
 -0.425651014       1.29043305     -0.606999993       6632.35107       1.57687521    
 -0.425258011       1.28953803     -0.303507000       5036.45166       1.57690322    
 -0.425651014       1.29043305     -0.606999993       5036.45166       1.57690322    
 -0.273876995       1.33647299     -0.606999993       5036.45166       1.57690322    
 -0.273027003       1.33229196     -0.303496003       5036.45166       1.57690322    
 -0.425258011       1.28953803     -0.303507000       8419.50391       1.57820892    
 -0.425588995       1.29045200       0.00000000       8419.50391       1.57820892    
 -0.573195994       1.23392498       0.00000000       8419.50391       1.57820892    
 -0.572302997       1.23206902     -0.303485990       8419.50391       1.57820892    
 -0.573195994       1.23392498       0.00000000       10319.6777       1.57811880    
 -0.712655008       1.15938199       0.00000000       10319.6777       1.57811880    
 -0.711889029       1.15749002     -0.303496003       10319.6777       1.57811880    
 -0.572302997       1.23206902     -0.303485990       10319.6777       1.57811880    
 -0.711889029       1.15749002     -0.303496003       9491.25195       1.57687831    
 -0.840825975       1.06629205     -0.303485990       9491.25195       1.57687831    
 -0.841368973       1.06682706     -0.606999993       9491.25195       1.57687831    
 -0.712980986       1.15920806     -0.606999993       9491.25195       1.57687831    
 -0.711889029       1.15749002     -0.303496003       8078.96680       1.57689297    
 -0.712980986       1.15920806     -0.606999993       8078.96680       1.57689297    
 -0.573064029       1.23399496     -0.606999993       8078.96680       1.57689297    
 -0.572302997       1.23206902     -0.303485990       8078.96680       1.57689297    
 -0.711889029       1.15749002     -0.303496003       12046.7812       1.57803869    
 -0.712655008       1.15938199       0.00000000       12046.7812       1.57803869    
 -0.841165006       1.06699395       0.00000000       12046.7812       1.57803869    
 -0.840825975       1.06629205     -0.303485990       12046.7812       1.57803869    
 -0.841165006       1.06699395       0.00000000       13747.5771       1.57802296    
 -0.963320017      0.966744006       0.00000000       13747.5771       1.57802296    
 -0.960084975      0.962615013     -0.303470999       13747.5771       1.57802296    
 -0.840825975       1.06629205     -0.303485990       13747.5771       1.57802296    
 -0.960084975      0.962615013     -0.303470999       12038.6543       1.57687640    
  -1.06383705      0.843237996     -0.303481996       12038.6543       1.57687640    
  -1.06481802      0.843816996     -0.606999993       12038.6543       1.57687640    
 -0.963873982      0.966289997     -0.606999993       12038.6543       1.57687640    
 -0.960084975      0.962615013     -0.303470999       10840.0215       1.57687068    
 -0.963873982      0.966289997     -0.606999993       10840.0215       1.57687068    
 -0.841368973       1.06682706     -0.606999993       10840.0215       1.57687068    
 -0.840825975       1.06629205     -0.303485990       10840.0215       1.57687068    
 -0.960084975      0.962615013     -0.303470999       15380.3320       1.57800210    
 -0.963320017      0.966744006       0.00000000       15380.3320       1.57800210    
  -1.06464398      0.844029009       0.00000000       15380.3320       1.57800210    
  -1.06383705      0.843237996     -0.303481996       15380.3320       1.57800210    
  -1.06464398      0.844029009       0.00000000       16864.8477       1.57801926    
  -1.15769398      0.715813994       0.00000000       16864.8477       1.57801926    
  -1.15564799      0.714680016     -0.303483993       16864.8477       1.57801926    
  -1.06383705      0.843237996     -0.303481996       16864.8477       1.57801926    
  -1.15564799      0.714680016     -0.303483993       14117.5820       1.57691967    
  -1.23108304      0.575536013     -0.303514004       14117.5820       1.57691967    
  -1.23232996      0.576179981     -0.606999993       14117.5820       1.57691967    
  -1.15756094      0.716063023     -0.606999993       14117.5820       1.57691967    
  -1.15564799      0.714680016     -0.303483993       13143.5762       1.57690513    
  -1.15756094      0.716063023     -0.606999993       13143.5762       1.57690513    
  -1.06481802      0.843816996     -0.606999993       13143.5762       1.57690513    
  -1.06383705      0.843237996     -0.303481996       13143.5762       1.57690513    
  -1.15564799      0.714680016     -0.303483993       18368.5508       1.57805288    
  -1.15769398      0.715813994       0.00000000       18368.5508       1.57805288    
  -1.23224795      0.576331973       0.00000000       18368.5508       1.57805288    
  -1.23108304      0.575536013     -0.303514004       18368.5508       1.57805288    
  -1.23224795      0.576331973       0.00000000       19501.4941       1.57806969    
  -1.28948605      0.428772002       0.00000000       19501.4941       1.57806969    
  -1.28842103      0.428404987     -0.303512990       19501.4941       1.57806969    
  -1.23108304      0.575536013     -0.303514004       19501.4941       1.57806969    
  -1.28842103      0.428404987     -0.303512990       15057.1309       1.57712102    
  -1.33082402      0.275959998     -0.303492010       15057.1309       1.57712102    
  -1.33550000      0.277083993     -0.606999993       15057.1309       1.57712102    