 VARIABLES="X" "Y" "Z" "abs(p) (Pa)" "angle(p) (rad)"
ZONE N=   2720,E =    2069, F=FEPOINT, ET=QUADRILATERAL
 -0.767116010      -1.12776399       0.00000000       14279.8555      -1.56562436    
 -0.769354999      -1.12002099     -0.303523988       14279.8555      -1.56562436    
 -0.896136999      -1.02028203     -0.303463012       14279.8555      -1.56562436    
 -0.894908011      -1.02288902       0.00000000       14279.8555      -1.56562436    
 -0.767116010      -1.12776399       0.00000000       15423.7139      -1.56560600    
 -0.630888999      -1.20308697       0.00000000       15423.7139      -1.56560600    
 -0.635528028      -1.19958198     -0.303541005       15423.7139      -1.56560600    
 -0.769354999      -1.12002099     -0.303523988       15423.7139      -1.56560600    
 -0.635528028      -1.19958198     -0.303541005       10823.3584      -1.56698334    
 -0.495362997      -1.26606500     -0.303519011       10823.3584      -1.56698334    
 -0.499298006      -1.26809204     -0.606999993       10823.3584      -1.56698334    
 -0.640147984      -1.19813800     -0.606998026       10823.3584      -1.56698334    
 -0.635528028      -1.19958198     -0.303541005       10168.3906      -1.56699526    
 -0.640147984      -1.19813800     -0.606998026       10168.3906      -1.56699526    
 -0.777105987      -1.11956596     -0.606999993       10168.3906      -1.56699526    
 -0.769354999      -1.12002099     -0.303523988       10168.3906      -1.56699526    
 -0.635528028      -1.19958198     -0.303541005       16292.5684      -1.56561124    
 -0.630888999      -1.20308697       0.00000000       16292.5684      -1.56561124    
 -0.494486004      -1.26955199       0.00000000       16292.5684      -1.56561124    
 -0.495362997      -1.26606500     -0.303519011       16292.5684      -1.56561124    
 -0.494486004      -1.26955199       0.00000000       17061.9453      -1.56560767    
 -0.346311986      -1.31449997       0.00000000       17061.9453      -1.56560767    
 -0.346753001      -1.31307304     -0.303510010       17061.9453      -1.56560767    
 -0.495362997      -1.26606500     -0.303519011       17061.9453      -1.56560767    
 -0.346753001      -1.31307304     -0.303510010       11676.3857      -1.56699324    
 -0.193608001      -1.34425998     -0.303494990       11676.3857      -1.56699324    
 -0.195028007      -1.34579206     -0.606999993       11676.3857      -1.56699324    
 -0.348751009      -1.31376004     -0.606999993       11676.3857      -1.56699324    
 -0.346753001      -1.31307304     -0.303510010       11320.3496      -1.56698203    
 -0.348751009      -1.31376004     -0.606999993       11320.3496      -1.56698203    
 -0.499298006      -1.26809204     -0.606999993       11320.3496      -1.56698203    
 -0.495362997      -1.26606500     -0.303519011       11320.3496      -1.56698203    
 -0.346753001      -1.31307304     -0.303510010       17605.2207      -1.56563568    
 -0.346311986      -1.31449997       0.00000000       17605.2207      -1.56563568    
 -0.193381995      -1.34595394       0.00000000       17605.2207      -1.56563568    
 -0.193608001      -1.34425998     -0.303494990       17605.2207      -1.56563568    
 -0.193381995      -1.34595394       0.00000000       17991.5156      -1.56563735    
  -3.75179984E-02  -1.36130500       0.00000000       17991.5156      -1.56563735    
  -3.73950005E-02  -1.35827899     -0.303512007       17991.5156      -1.56563735    
 -0.193608001      -1.34425998     -0.303494990       17991.5156      -1.56563735    
  -3.73950005E-02  -1.35827899     -0.303512007       11877.5186      -1.56701899    
  0.119547002      -1.35239303     -0.303498000       11877.5186      -1.56701899    
  0.119135000      -1.35326600     -0.606999993       11877.5186      -1.56701899    
  -3.82840000E-02  -1.36122894     -0.606998980       11877.5186      -1.56701899    
  -3.73950005E-02  -1.35827899     -0.303512007       11875.0957      -1.56700659    
  -3.82840000E-02  -1.36122894     -0.606998980       11875.0957      -1.56700659    
 -0.195028007      -1.34579206     -0.606999993       11875.0957      -1.56700659    
 -0.193608001      -1.34425998     -0.303494990       11875.0957      -1.56700659    
  -3.73950005E-02  -1.35827899     -0.303512007       17951.2520      -1.56565261    
  -3.75179984E-02  -1.36130500       0.00000000       17951.2520      -1.56565261    
  0.119788997      -1.35320199       0.00000000       17951.2520      -1.56565261    
  0.119547002      -1.35239303     -0.303498000       17951.2520      -1.56565261    
  0.119788997      -1.35320199       0.00000000       17735.0996      -1.56564164    
  0.276576012      -1.33565402       0.00000000       17735.0996      -1.56564164    
  0.275435001      -1.33191597     -0.303496003       17735.0996      -1.56564164    
  0.119547002      -1.35239303     -0.303498000       17735.0996      -1.56564164    
  0.275435001      -1.33191597     -0.303496003       11641.9941      -1.56709218    
  0.427076995      -1.28898001     -0.303507000       11641.9941      -1.56709218    
  0.427242011      -1.28995001     -0.606999993       11641.9941      -1.56709218    
  0.275831014      -1.33588004     -0.606999993       11641.9941      -1.56709218    
  0.275435001      -1.33191597     -0.303496003       11923.7324      -1.56706631    
  0.275831014      -1.33588004     -0.606999993       11923.7324      -1.56706631    
  0.119135000      -1.35326600     -0.606999993       11923.7324      -1.56706631    
  0.119547002      -1.35239303     -0.303498000       11923.7324      -1.56706631    
  0.275435001      -1.33191597     -0.303496003       17262.7070      -1.56565082    
  0.276576012      -1.33565402       0.00000000       17262.7070      -1.56565082    
  0.427509993      -1.28986895       0.00000000       17262.7070      -1.56565082    
  0.427076995      -1.28898001     -0.303507000       17262.7070      -1.56565082    
  0.427509993      -1.28986895       0.00000000       16454.8242      -1.56571233    
  0.574636996      -1.23315501       0.00000000       16454.8242      -1.56571233    
  0.573706985      -1.23136795     -0.303485990       16454.8242      -1.56571233    
  0.427076995      -1.28898001     -0.303507000       16454.8242      -1.56571233    
  0.573706985      -1.23136795     -0.303485990       10612.2500      -1.56714809    
  0.712854981      -1.15688002     -0.303496987       10612.2500      -1.56714809    
  0.713809013      -1.15876603     -0.606999993       10612.2500      -1.56714809    
  0.574283004      -1.23334301     -0.606999993       10612.2500      -1.56714809    
  0.573706985      -1.23136795     -0.303485990       11203.4766      -1.56712592    
  0.574283004      -1.23334301     -0.606999993       11203.4766      -1.56712592    
  0.427242011      -1.28995001     -0.606999993       11203.4766      -1.56712592    
  0.427076995      -1.28898001     -0.303507000       11203.4766      -1.56712592    
  0.573706985      -1.23136795     -0.303485990       15520.3857      -1.56574070    
  0.574636996      -1.23315501       0.00000000       15520.3857      -1.56574070    
  0.713741004      -1.15880203       0.00000000       15520.3857      -1.56574070    
  0.712854981      -1.15688002     -0.303496987       15520.3857      -1.56574070    
  0.713741004      -1.15880203       0.00000000       14457.6836      -1.56579030    
  0.841937006      -1.06636095       0.00000000       14457.6836      -1.56579030    
  0.841498017      -1.06573403     -0.303485990       14457.6836      -1.56579030    
  0.712854981      -1.15688002     -0.303496987       14457.6836      -1.56579030    
  0.841498017      -1.06573403     -0.303485990       9072.20117      -1.56721115    
  0.960639000     -0.962104976     -0.303470999       9072.20117      -1.56721115    
  0.964356005     -0.965893984     -0.606999993       9072.20117      -1.56721115    
  0.841796994      -1.06647599     -0.606999993       9072.20117      -1.56721115    
  0.841498017      -1.06573403     -0.303485990       9906.82129      -1.56718433    
  0.841796994      -1.06647599     -0.606999993       9906.82129      -1.56718433    
  0.713809013      -1.15876603     -0.606999993       9906.82129      -1.56718433    
  0.712854981      -1.15688002     -0.303496987       9906.82129      -1.56718433    
  0.841498017      -1.06573403     -0.303485990       13483.0498      -1.56582284    
  0.841937006      -1.06636095       0.00000000       13483.0498      -1.56582284    
  0.963932991     -0.966242015       0.00000000       13483.0498      -1.56582284    
  0.960639000     -0.962104976     -0.303470999       13483.0498      -1.56582284    
  0.963932991     -0.966242015       0.00000000       12182.6885      -1.56585038    
   1.06506598     -0.843514979       0.00000000       12182.6885      -1.56585038    
   1.06428695     -0.842682004     -0.303481996       12182.6885      -1.56585038    
  0.960639000     -0.962104976     -0.303470999       12182.6885      -1.56585038    
   1.06428695     -0.842682004     -0.303481996       7355.44385      -1.56740165    
   1.15591598     -0.714210987     -0.303485006       7355.44385      -1.56740165    
   1.15788805     -0.715448976     -0.606999993       7355.44385      -1.56740165    
   1.06537795     -0.843134999     -0.606999993       7355.44385      -1.56740165    
   1.06428695     -0.842682004     -0.303481996       8153.37842      -1.56724823    
   1.06537795     -0.843134999     -0.606999993       8153.37842      -1.56724823    
  0.964356005     -0.965893984     -0.606999993       8153.37842      -1.56724823    
  0.960639000     -0.962104976     -0.303470999       8153.37842      -1.56724823    
   1.06428695     -0.842682004     -0.303481996       10505.3145      -1.56592047    
   1.06506598     -0.843514979       0.00000000       10505.3145      -1.56592047    
   1.15792501     -0.715381980       0.00000000       10505.3145      -1.56592047    
   1.15591598     -0.714210987     -0.303485006       10505.3145      -1.56592047    
   1.15792501     -0.715381980       0.00000000       8849.58496      -1.56597829    
   1.23237598     -0.576093972       0.00000000       8849.58496      -1.56597829    
   1.23120904     -0.575251997     -0.303514004       8849.58496      -1.56597829    
   1.15591598     -0.714210987     -0.303485006       8849.58496      -1.56597829    
   1.23120904     -0.575251997     -0.303514004       4980.55273      -1.56758964    
   1.28844094     -0.428344995     -0.303512990       4980.55273      -1.56758964    
   1.28952503     -0.428642988     -0.606999993       4980.55273      -1.56758964    
   1.23252702     -0.575810015     -0.606999993       4980.55273      -1.56758964    
   1.23120904     -0.575251997     -0.303514004       6210.27441      -1.56746650    
   1.23252702     -0.575810015     -0.606999993       6210.27441      -1.56746650    
   1.15788805     -0.715448976     -0.606999993       6210.27441      -1.56746650    
   1.15591598     -0.714210987     -0.303485006       6210.27441      -1.56746650    
   1.23120904     -0.575251997     -0.303514004       7345.64795      -1.56627667    
   1.23237598     -0.576093972       0.00000000       7345.64795      -1.56627667    
   1.28947699     -0.428801000       0.00000000       7345.64795      -1.56627667    
   1.28844094     -0.428344995     -0.303512990       7345.64795      -1.56627667    
   1.28947699     -0.428801000       0.00000000       5310.40186      -1.56648004    
   1.33532202     -0.277671993       0.00000000       5310.40186      -1.56648004    
   1.33076501     -0.276203990     -0.303492010       5310.40186      -1.56648004    
   1.28844094     -0.428344995     -0.303512990       5310.40186      -1.56648004    
   1.33076501     -0.276203990     -0.303492010       2486.12573      -1.56833529    
   1.35229194     -0.119709998     -0.303514004       2486.12573      -1.56833529    
   1.35321999     -0.119608998     -0.606999993       2486.12573      -1.56833529    
   1.33549094     -0.277112991     -0.606999993       2486.12573      -1.56833529    
   1.33076501     -0.276203990     -0.303492010       3696.92163      -1.56781900    
   1.33549094     -0.277112991     -0.606999993       3696.92163      -1.56781900    
   1.28952503     -0.428642988     -0.606999993       3696.92163      -1.56781900    
   1.28844094     -0.428344995     -0.303512990       3696.92163      -1.56781900    
   1.33076501     -0.276203990     -0.303492010       3083.31909      -1.56681252    
   1.33532202     -0.277671993       0.00000000       3083.31909      -1.56681252    
   1.35319102     -0.119900003       0.00000000       3083.31909      -1.56681252    
   1.35229194     -0.119709998     -0.303514004       3083.31909      -1.56681252    
   1.35319102     -0.119900003       0.00000000       1010.41394      -1.56967425    
   1.36124396       3.81390005E-02   0.00000000       1010.41394      -1.56967425    
   1.35858905       3.79349999E-02 -0.303501010       1010.41394      -1.56967425    
   1.35229194     -0.119709998     -0.303514004       1010.41394      -1.56967425    
   1.35858905       3.79349999E-02 -0.303501010       491.587952       1.57965279    
   1.34464097      0.195331007     -0.303496003       491.587952       1.57965279    
   1.34573400      0.195616007     -0.606999993       491.587952       1.57965279    
   1.36126804       3.78950015E-02 -0.606999993       491.587952       1.57965279    
   1.35858905       3.79349999E-02 -0.303501010       829.279480      -1.56997740    
   1.36126804       3.78950015E-02 -0.606999993       829.279480      -1.56997740    
   1.35321999     -0.119608998     -0.606999993       829.279480      -1.56997740    
   1.35229194     -0.119709998     -0.303514004       829.279480      -1.56997740    
   1.35858905       3.79349999E-02 -0.303501010       903.336121       1.58142424    
   1.36124396       3.81390005E-02   0.00000000       903.336121       1.58142424    
   1.34575403      0.195406005       0.00000000       903.336121       1.58142424    
   1.34464097      0.195331007     -0.303496003       903.336121       1.58142424    
   1.34575403      0.195406005       0.00000000       2919.49976       1.57778251    
   1.31339800      0.349945009       0.00000000       2919.49976       1.57778251    
   1.31216300      0.349725991     -0.303487003       2919.49976       1.57778251    
   1.34464097      0.195331007     -0.303496003       2919.49976       1.57778251    
   1.31216300      0.349725991     -0.303487003       3258.65161       1.57520247    
   1.26341999      0.500032008     -0.303494006       3258.65161       1.57520247    
   1.26736605      0.501691997     -0.606999993       3258.65161       1.57520247    
   1.31333196      0.350163996     -0.606999993       3258.65161       1.57520247    
   1.31216300      0.349725991     -0.303487003       1830.74890       1.57592201    
   1.31333196      0.350163996     -0.606999993       1830.74890       1.57592201    
   1.34573400      0.195616007     -0.606999993       1830.74890       1.57592201    
   1.34464097      0.195331007     -0.303496003       1830.74890       1.57592201    
   1.31216300      0.349725991     -0.303487003       4912.19434       1.57713783    
   1.31339800      0.349945009       0.00000000       4912.19434       1.57713783    
   1.26751196      0.501209974       0.00000000       4912.19434       1.57713783    
   1.26341999      0.500032008     -0.303494006       4912.19434       1.57713783    
   1.26751196      0.501209974       0.00000000       6851.89844       1.57674325    
   1.19658697      0.643051028       0.00000000       6851.89844       1.57674325    
   1.19583094      0.642783999     -0.303505003       6851.89844       1.57674325    
   1.26341999      0.500032008     -0.303494006       6851.89844       1.57674325    
   1.19583094      0.642783999     -0.303505003       5760.85986       1.57487559    
   1.11495602      0.778467000     -0.303483993       5760.85986       1.57487559    
   1.11731696      0.779847026     -0.606999993       5760.85986       1.57487559    
   1.19653296      0.643149972     -0.606999993       5760.85986       1.57487559    
   1.19583094      0.642783999     -0.303505003       4491.20117       1.57499719    
   1.19653296      0.643149972     -0.606999993       4491.20117       1.57499719    
   1.26736605      0.501691997     -0.606999993       4491.20117       1.57499719    
   1.26341999      0.500032008     -0.303494006       4491.20117       1.57499719    
   1.19583094      0.642783999     -0.303505003       8614.42969       1.57658160    
   1.19658697      0.643051028       0.00000000       8614.42969       1.57658160    
   1.11705506      0.780165970       0.00000000       8614.42969       1.57658160    
   1.11495602      0.778467000     -0.303483993       8614.42969       1.57658160    
   1.11705506      0.780165970       0.00000000       10178.3604       1.57647741    
   1.01674199      0.902397990       0.00000000       10178.3604       1.57647741    
   1.01591504      0.901737988     -0.303478003       10178.3604       1.57647741    
   1.11495602      0.778467000     -0.303483993       10178.3604       1.57647741    
   1.01591504      0.901737988     -0.303478003       7912.38818       1.57470775    
  0.904204011       1.01322901     -0.303456992       7912.38818       1.57470775    
  0.905143023       1.01448905     -0.606999993       7912.38818       1.57470775    
   1.01659799      0.902572989     -0.606999993       7912.38818       1.57470775    
   1.01591504      0.901737988     -0.303478003       6919.59717       1.57476223    
   1.01659799      0.902572989     -0.606999993       6919.59717       1.57476223    
   1.11731696      0.779847026     -0.606999993       6919.59717       1.57476223    
   1.11495602      0.778467000     -0.303483993       6919.59717       1.57476223    
   1.01591504      0.901737988     -0.303478003       11589.3721       1.57638609    
   1.01674199      0.902397990       0.00000000       11589.3721       1.57638609    
  0.905318975       1.01434398       0.00000000       11589.3721       1.57638609    
  0.904204011       1.01322901     -0.303456992       11589.3721       1.57638609    
  0.905318975       1.01434398       0.00000000       13001.7109       1.57635176    
  0.782918990       1.11479497       0.00000000       13001.7109       1.57635176    
  0.780644000       1.11195600     -0.303485006       13001.7109       1.57635176    
  0.904204011       1.01322901     -0.303456992       13001.7109       1.57635176    
  0.780644000       1.11195600     -0.303485006       9535.57520       1.57465708    
  0.645825028       1.19414902     -0.303514004       9535.57520       1.57465708    
  0.646153986       1.19492805     -0.606999993       9535.57520       1.57465708    
  0.782611012       1.11504900     -0.606999993       9535.57520       1.57465708    
  0.780644000       1.11195600     -0.303485006       8788.69629       1.57468283    
  0.782611012       1.11504900     -0.606999993       8788.69629       1.57468283    
  0.905143023       1.01448905     -0.606999993       8788.69629       1.57468283    
  0.904204011       1.01322901     -0.303456992       8788.69629       1.57468283    
  0.780644000       1.11195600     -0.303485006       14086.3535       1.57632053    
  0.782918990       1.11479497       0.00000000       14086.3535       1.57632053    
  0.646345019       1.19482601       0.00000000       14086.3535       1.57632053    
  0.645825028       1.19414902     -0.303514004       14086.3535       1.57632053    
  0.646345019       1.19482601       0.00000000       15043.1963       1.57631862    
  0.504974008       1.26637006       0.00000000       15043.1963       1.57631862    
  0.503772974       1.26314998     -0.303521991       15043.1963       1.57631862    
  0.645825028       1.19414902     -0.303514004       15043.1963       1.57631862    
  0.503772974       1.26314998     -0.303521991       10711.3818       1.57463157    
  0.353130996       1.31116498     -0.303510994       10711.3818       1.57463157    
  0.353300005       1.31237996     -0.606999993       10711.3818       1.57463157    
  0.505183995       1.26630700     -0.606999993       10711.3818       1.57463157    
  0.503772974       1.26314998     -0.303521991       10196.9375       1.57464671    
  0.505183995       1.26630700     -0.606999993       10196.9375       1.57464671    
  0.646153986       1.19492805     -0.606999993       10196.9375       1.57464671    
  0.645825028       1.19414902     -0.303514004       10196.9375       1.57464671    
  0.503772974       1.26314998     -0.303521991       15794.6562       1.57629907    
  0.504974008       1.26637006       0.00000000       15794.6562       1.57629907    
  0.353493989       1.31232095       0.00000000       15794.6562       1.57629907    
  0.353130996       1.31116498     -0.303510994       15794.6562       1.57629907    
  0.353493989       1.31232095       0.00000000       16314.8809       1.57625639    
  0.199064001       1.34539402       0.00000000       16314.8809       1.57625639    
  0.198755994       1.34360003     -0.303496003       16314.8809       1.57625639    
  0.353130996       1.31116498     -0.303510994       16314.8809       1.57625639    
  0.198755994       1.34360003     -0.303496003       11229.4209       1.57463706    
   4.12769988E-02   1.35817802     -0.303508013       11229.4209       1.57463706    
   4.12410013E-02   1.36093795     -0.606999993       11229.4209       1.57463706    
  0.199025005       1.34539795     -0.606999993       11229.4209       1.57463706    
  0.198755994       1.34360003     -0.303496003       11080.9102       1.57462454    
  0.199025005       1.34539795     -0.606999993       11080.9102       1.57462454    
  0.353300005       1.31237996     -0.606999993       11080.9102       1.57462454    
  0.353130996       1.31116498     -0.303510994       11080.9102       1.57462454    
  0.198755994       1.34360003     -0.303496003       16689.2363       1.57625949    
  0.199064001       1.34539402       0.00000000       16689.2363       1.57625949    
   4.17769998E-02   1.36088502       0.00000000       16689.2363       1.57625949    
   4.12769988E-02   1.35817802     -0.303508013       16689.2363       1.57625949    
   4.17769998E-02   1.36088502       0.00000000       16899.2988       1.57621586    
 -0.116410002       1.35353506       0.00000000       16899.2988       1.57621586    
 -0.116471998       1.35271096     -0.303496987       16899.2988       1.57621586    
   4.12769988E-02   1.35817802     -0.303508013       16899.2988       1.57621586    
 -0.116471998       1.35271096     -0.303496987       11343.0840       1.57458651    
 -0.273027003       1.33229196     -0.303496003       11343.0840       1.57458651    
 -0.273876995       1.33647299     -0.606999993       11343.0840       1.57458651    
 -0.116722003       1.35350394     -0.606999993       11343.0840       1.57458651    
 -0.116471998       1.35271096     -0.303496987       11296.8555       1.57463408    
 -0.116722003       1.35350394     -0.606999993       11296.8555       1.57463408    
   4.12410013E-02   1.36093795     -0.606999993       11296.8555       1.57463408    
   4.12769988E-02   1.35817802     -0.303508013       11296.8555       1.57463408    
 -0.116471998       1.35271096     -0.303496987       16907.0762       1.57622528    
 -0.116410002       1.35353506       0.00000000       16907.0762       1.57622528    
 -0.274069011       1.33641505       0.00000000       16907.0762       1.57622528    
 -0.273027003       1.33229196     -0.303496003       16907.0762       1.57622528    
 -0.274069011       1.33641505       0.00000000       16538.6602       1.57621026    
 -0.425588995       1.29045200       0.00000000       16538.6602       1.57621026    
 -0.425258011       1.28953803     -0.303507000       16538.6602       1.57621026    
 -0.273027003       1.33229196     -0.303496003       16538.6602       1.57621026    
 -0.425258011       1.28953803     -0.303507000       10673.4219       1.57456338    
 -0.572302997       1.23206902     -0.303485990       10673.4219       1.57456338    
 -0.573064029       1.23399496     -0.606999993       10673.4219       1.57456338    
 -0.425651014       1.29043305     -0.606999993       10673.4219       1.57456338    
 -0.425258011       1.28953803     -0.303507000       11096.0293       1.57458460    
 -0.425651014       1.29043305     -0.606999993       11096.0293       1.57458460    
 -0.273876995       1.33647299     -0.606999993       11096.0293       1.57458460    
 -0.273027003       1.33229196     -0.303496003       11096.0293       1.57458460    
 -0.425258011       1.28953803     -0.303507000       15711.6699       1.57614279    
 -0.425588995       1.29045200       0.00000000       15711.6699       1.57614279    
 -0.573195994       1.23392498       0.00000000       15711.6699       1.57614279    
 -0.572302997       1.23206902     -0.303485990       15711.6699       1.57614279    
 -0.573195994       1.23392498       0.00000000       14731.1230       1.57611084    
 -0.712655008       1.15938199       0.00000000       14731.1230       1.57611084    
 -0.711889029       1.15749002     -0.303496003       14731.1230       1.57611084    
 -0.572302997       1.23206902     -0.303485990       14731.1230       1.57611084    
 -0.711889029       1.15749002     -0.303496003       9392.50000       1.57454562    
 -0.840825975       1.06629205     -0.303485990       9392.50000       1.57454562    
 -0.841368973       1.06682706     -0.606999993       9392.50000       1.57454562    
 -0.712980986       1.15920806     -0.606999993       9392.50000       1.57454562    
 -0.711889029       1.15749002     -0.303496003       10095.1211       1.57456255    
 -0.712980986       1.15920806     -0.606999993       10095.1211       1.57456255    
 -0.573064029       1.23399496     -0.606999993       10095.1211       1.57456255    
 -0.572302997       1.23206902     -0.303485990       10095.1211       1.57456255    
 -0.711889029       1.15749002     -0.303496003       13556.2490       1.57605278    
 -0.712655008       1.15938199       0.00000000       13556.2490       1.57605278    
 -0.841165006       1.06699395       0.00000000       13556.2490       1.57605278    
 -0.840825975       1.06629205     -0.303485990       13556.2490       1.57605278    
 -0.841165006       1.06699395       0.00000000       12345.6768       1.57606208    
 -0.963320017      0.966744006       0.00000000       12345.6768       1.57606208    
 -0.960084975      0.962615013     -0.303470999       12345.6768       1.57606208    
 -0.840825975       1.06629205     -0.303485990       12345.6768       1.57606208    
 -0.960084975      0.962615013     -0.303470999       7612.23828       1.57456398    
  -1.06383705      0.843237996     -0.303481996       7612.23828       1.57456398    
  -1.06481802      0.843816996     -0.606999993       7612.23828       1.57456398    
 -0.963873982      0.966289997     -0.606999993       7612.23828       1.57456398    
 -0.960084975      0.962615013     -0.303470999       8536.84375       1.57454515    
 -0.963873982      0.966289997     -0.606999993       8536.84375       1.57454515    
 -0.841368973       1.06682706     -0.606999993       8536.84375       1.57454515    
 -0.840825975       1.06629205     -0.303485990       8536.84375       1.57454515    
 -0.960084975      0.962615013     -0.303470999       11051.1221       1.57605934    
 -0.963320017      0.966744006       0.00000000       11051.1221       1.57605934    
  -1.06464398      0.844029009       0.00000000       11051.1221       1.57605934    
  -1.06383705      0.843237996     -0.303481996       11051.1221       1.57605934    
  -1.06464398      0.844029009       0.00000000       9490.43750       1.57604647    
  -1.15769398      0.715813994       0.00000000       9490.43750       1.57604647    
  -1.15564799      0.714680016     -0.303483993       9490.43750       1.57604647    
  -1.06383705      0.843237996     -0.303481996       9490.43750       1.57604647    
  -1.15564799      0.714680016     -0.303483993       5490.55762       1.57458377    
  -1.23108304      0.575536013     -0.303514004       5490.55762       1.57458377    
  -1.23232996      0.576179981     -0.606999993       5490.55762       1.57458377    
  -1.15756094      0.716063023     -0.606999993       5490.55762       1.57458377    
  -1.15564799      0.714680016     -0.303483993       6584.09961       1.57457018    
  -1.15756094      0.716063023     -0.606999993       6584.09961       1.57457018    
  -1.06481802      0.843816996     -0.606999993       6584.09961       1.57457018    
  -1.06383705      0.843237996     -0.303481996       6584.09961       1.57457018    
  -1.15564799      0.714680016     -0.303483993       7922.22510       1.57607913    
  -1.15769398      0.715813994       0.00000000       7922.22510       1.57607913    
  -1.23224795      0.576331973       0.00000000       7922.22510       1.57607913    
  -1.23108304      0.575536013     -0.303514004       7922.22510       1.57607913    
  -1.23224795      0.576331973       0.00000000       6167.27832       1.57607746    
  -1.28948605      0.428772002       0.00000000       6167.27832       1.57607746    
  -1.28842103      0.428404987     -0.303512990       6167.27832       1.57607746    
  -1.23108304      0.575536013     -0.303514004       6167.27832       1.57607746    
  -1.28842103      0.428404987     -0.303512990       2929.17822       1.57470548    
  -1.33082402      0.275959998     -0.303492010       2929.17822       1.57470548    
  -1.33550000      0.277083993     -0.606999993       2929.17822       1.57470548    