 VARIABLES="X" "Y" "Z" "abs(p) (Pa)" "angle(p) (rad)"
ZONE N=   2720,E =    2069, F=FEPOINT, ET=QUADRILATERAL
 -0.767116010      -1.12776399       0.00000000       612.797485       1.64709580    
 -0.769354999      -1.12002099     -0.303523988       612.797485       1.64709580    
 -0.896136999      -1.02028203     -0.303463012       612.797485       1.64709580    
 -0.894908011      -1.02288902       0.00000000       612.797485       1.64709580    
 -0.767116010      -1.12776399       0.00000000       662.560547       1.64701414    
 -0.630888999      -1.20308697       0.00000000       662.560547       1.64701414    
 -0.635528028      -1.19958198     -0.303541005       662.560547       1.64701414    
 -0.769354999      -1.12002099     -0.303523988       662.560547       1.64701414    
 -0.635528028      -1.19958198     -0.303541005       654.245300       1.66054082    
 -0.495362997      -1.26606500     -0.303519011       654.245300       1.66054082    
 -0.499298006      -1.26809204     -0.606999993       654.245300       1.66054082    
 -0.640147984      -1.19813800     -0.606998026       654.245300       1.66054082    
 -0.635528028      -1.19958198     -0.303541005       614.799255       1.66068852    
 -0.640147984      -1.19813800     -0.606998026       614.799255       1.66068852    
 -0.777105987      -1.11956596     -0.606999993       614.799255       1.66068852    
 -0.769354999      -1.12002099     -0.303523988       614.799255       1.66068852    
 -0.635528028      -1.19958198     -0.303541005       700.011902       1.64723051    
 -0.630888999      -1.20308697       0.00000000       700.011902       1.64723051    
 -0.494486004      -1.26955199       0.00000000       700.011902       1.64723051    
 -0.495362997      -1.26606500     -0.303519011       700.011902       1.64723051    
 -0.494486004      -1.26955199       0.00000000       731.656250       1.64711845    
 -0.346311986      -1.31449997       0.00000000       731.656250       1.64711845    
 -0.346753001      -1.31307304     -0.303510010       731.656250       1.64711845    
 -0.495362997      -1.26606500     -0.303519011       731.656250       1.64711845    
 -0.346753001      -1.31307304     -0.303510010       706.086975       1.66014707    
 -0.193608001      -1.34425998     -0.303494990       706.086975       1.66014707    
 -0.195028007      -1.34579206     -0.606999993       706.086975       1.66014707    
 -0.348751009      -1.31376004     -0.606999993       706.086975       1.66014707    
 -0.346753001      -1.31307304     -0.303510010       684.156250       1.66040480    
 -0.348751009      -1.31376004     -0.606999993       684.156250       1.66040480    
 -0.499298006      -1.26809204     -0.606999993       684.156250       1.66040480    
 -0.495362997      -1.26606500     -0.303519011       684.156250       1.66040480    
 -0.346753001      -1.31307304     -0.303510010       755.198120       1.64687705    
 -0.346311986      -1.31449997       0.00000000       755.198120       1.64687705    
 -0.193381995      -1.34595394       0.00000000       755.198120       1.64687705    
 -0.193608001      -1.34425998     -0.303494990       755.198120       1.64687705    
 -0.193381995      -1.34595394       0.00000000       772.385925       1.64644003    
  -3.75179984E-02  -1.36130500       0.00000000       772.385925       1.64644003    
  -3.73950005E-02  -1.35827899     -0.303512007       772.385925       1.64644003    
 -0.193608001      -1.34425998     -0.303494990       772.385925       1.64644003    
  -3.73950005E-02  -1.35827899     -0.303512007       719.761414       1.66004801    
  0.119547002      -1.35239303     -0.303498000       719.761414       1.66004801    
  0.119135000      -1.35326600     -0.606999993       719.761414       1.66004801    
  -3.82840000E-02  -1.36122894     -0.606998980       719.761414       1.66004801    
  -3.73950005E-02  -1.35827899     -0.303512007       718.711243       1.66004157    
  -3.82840000E-02  -1.36122894     -0.606998980       718.711243       1.66004157    
 -0.195028007      -1.34579206     -0.606999993       718.711243       1.66004157    
 -0.193608001      -1.34425998     -0.303494990       718.711243       1.66004157    
  -3.73950005E-02  -1.35827899     -0.303512007       775.307312       1.64628458    
  -3.75179984E-02  -1.36130500       0.00000000       775.307312       1.64628458    
  0.119788997      -1.35320199       0.00000000       775.307312       1.64628458    
  0.119547002      -1.35239303     -0.303498000       775.307312       1.64628458    
  0.119788997      -1.35320199       0.00000000       768.287598       1.64621091    
  0.276576012      -1.33565402       0.00000000       768.287598       1.64621091    
  0.275435001      -1.33191597     -0.303496003       768.287598       1.64621091    
  0.119547002      -1.35239303     -0.303498000       768.287598       1.64621091    
  0.275435001      -1.33191597     -0.303496003       711.325378       1.65861976    
  0.427076995      -1.28898001     -0.303507000       711.325378       1.65861976    
  0.427242011      -1.28995001     -0.606999993       711.325378       1.65861976    
  0.275831014      -1.33588004     -0.606999993       711.325378       1.65861976    
  0.275435001      -1.33191597     -0.303496003       726.749390       1.65878987    
  0.275831014      -1.33588004     -0.606999993       726.749390       1.65878987    
  0.119135000      -1.35326600     -0.606999993       726.749390       1.65878987    
  0.119547002      -1.35239303     -0.303498000       726.749390       1.65878987    
  0.275435001      -1.33191597     -0.303496003       751.513672       1.64611340    
  0.276576012      -1.33565402       0.00000000       751.513672       1.64611340    
  0.427509993      -1.28986895       0.00000000       751.513672       1.64611340    
  0.427076995      -1.28898001     -0.303507000       751.513672       1.64611340    
  0.427509993      -1.28986895       0.00000000       724.164734       1.64583051    
  0.574636996      -1.23315501       0.00000000       724.164734       1.64583051    
  0.573706985      -1.23136795     -0.303485990       724.164734       1.64583051    
  0.427076995      -1.28898001     -0.303507000       724.164734       1.64583051    
  0.573706985      -1.23136795     -0.303485990       651.025085       1.65821135    
  0.712854981      -1.15688002     -0.303496987       651.025085       1.65821135    
  0.713809013      -1.15876603     -0.606999993       651.025085       1.65821135    
  0.574283004      -1.23334301     -0.606999993       651.025085       1.65821135    
  0.573706985      -1.23136795     -0.303485990       686.382568       1.65825486    
  0.574283004      -1.23334301     -0.606999993       686.382568       1.65825486    
  0.427242011      -1.28995001     -0.606999993       686.382568       1.65825486    
  0.427076995      -1.28898001     -0.303507000       686.382568       1.65825486    
  0.573706985      -1.23136795     -0.303485990       685.903503       1.64575779    
  0.574636996      -1.23315501       0.00000000       685.903503       1.64575779    
  0.713741004      -1.15880203       0.00000000       685.903503       1.64575779    
  0.712854981      -1.15688002     -0.303496987       685.903503       1.64575779    
  0.713741004      -1.15880203       0.00000000       641.024292       1.64545941    
  0.841937006      -1.06636095       0.00000000       641.024292       1.64545941    
  0.841498017      -1.06573403     -0.303485990       641.024292       1.64545941    
  0.712854981      -1.15688002     -0.303496987       641.024292       1.64545941    
  0.841498017      -1.06573403     -0.303485990       556.927673       1.65771616    
  0.960639000     -0.962104976     -0.303470999       556.927673       1.65771616    
  0.964356005     -0.965893984     -0.606999993       556.927673       1.65771616    
  0.841796994      -1.06647599     -0.606999993       556.927673       1.65771616    
  0.841498017      -1.06573403     -0.303485990       608.417664       1.65791500    
  0.841796994      -1.06647599     -0.606999993       608.417664       1.65791500    
  0.713809013      -1.15876603     -0.606999993       608.417664       1.65791500    
  0.712854981      -1.15688002     -0.303496987       608.417664       1.65791500    
  0.841498017      -1.06573403     -0.303485990       596.449097       1.64461017    
  0.841937006      -1.06636095       0.00000000       596.449097       1.64461017    
  0.963932991     -0.966242015       0.00000000       596.449097       1.64461017    
  0.960639000     -0.962104976     -0.303470999       596.449097       1.64461017    
  0.963932991     -0.966242015       0.00000000       537.024963       1.64421904    
   1.06506598     -0.843514979       0.00000000       537.024963       1.64421904    
   1.06428695     -0.842682004     -0.303481996       537.024963       1.64421904    
  0.960639000     -0.962104976     -0.303470999       537.024963       1.64421904    
   1.06428695     -0.842682004     -0.303481996       450.300446       1.65440774    
   1.15591598     -0.714210987     -0.303485006       450.300446       1.65440774    
   1.15788805     -0.715448976     -0.606999993       450.300446       1.65440774    
   1.06537795     -0.843134999     -0.606999993       450.300446       1.65440774    
   1.06428695     -0.842682004     -0.303481996       500.230835       1.65732944    
   1.06537795     -0.843134999     -0.606999993       500.230835       1.65732944    
  0.964356005     -0.965893984     -0.606999993       500.230835       1.65732944    
  0.960639000     -0.962104976     -0.303470999       500.230835       1.65732944    
   1.06428695     -0.842682004     -0.303481996       466.618347       1.64369214    
   1.06506598     -0.843514979       0.00000000       466.618347       1.64369214    
   1.15792501     -0.715381980       0.00000000       466.618347       1.64369214    
   1.15591598     -0.714210987     -0.303485006       466.618347       1.64369214    
   1.15792501     -0.715381980       0.00000000       391.619659       1.64322352    
   1.23237598     -0.576093972       0.00000000       391.619659       1.64322352    
   1.23120904     -0.575251997     -0.303514004       391.619659       1.64322352    
   1.15591598     -0.714210987     -0.303485006       391.619659       1.64322352    
   1.23120904     -0.575251997     -0.303514004       304.291473       1.65182197    
   1.28844094     -0.428344995     -0.303512990       304.291473       1.65182197    
   1.28952503     -0.428642988     -0.606999993       304.291473       1.65182197    
   1.23252702     -0.575810015     -0.606999993       304.291473       1.65182197    
   1.23120904     -0.575251997     -0.303514004       379.680084       1.65345943    
   1.23252702     -0.575810015     -0.606999993       379.680084       1.65345943    
   1.15788805     -0.715448976     -0.606999993       379.680084       1.65345943    
   1.15591598     -0.714210987     -0.303485006       379.680084       1.65345943    
   1.23120904     -0.575251997     -0.303514004       328.626740       1.63970280    
   1.23237598     -0.576093972       0.00000000       328.626740       1.63970280    
   1.28947699     -0.428801000       0.00000000       328.626740       1.63970280    
   1.28844094     -0.428344995     -0.303512990       328.626740       1.63970280    
   1.28947699     -0.428801000       0.00000000       233.078705       1.63889372    
   1.33532202     -0.277671993       0.00000000       233.078705       1.63889372    
   1.33076501     -0.276203990     -0.303492010       233.078705       1.63889372    
   1.28844094     -0.428344995     -0.303512990       233.078705       1.63889372    
   1.33076501     -0.276203990     -0.303492010       149.579834       1.64069688    
   1.35229194     -0.119709998     -0.303514004       149.579834       1.64069688    
   1.35321999     -0.119608998     -0.606999993       149.579834       1.64069688    
   1.33549094     -0.277112991     -0.606999993       149.579834       1.64069688    
   1.33076501     -0.276203990     -0.303492010       226.396988       1.64847064    
   1.33549094     -0.277112991     -0.606999993       226.396988       1.64847064    
   1.28952503     -0.428642988     -0.606999993       226.396988       1.64847064    
   1.28844094     -0.428344995     -0.303512990       226.396988       1.64847064    
   1.33076501     -0.276203990     -0.303492010       131.438248       1.63967001    
   1.33532202     -0.277671993       0.00000000       131.438248       1.63967001    
   1.35319102     -0.119900003       0.00000000       131.438248       1.63967001    
   1.35229194     -0.119709998     -0.303514004       131.438248       1.63967001    
   1.35319102     -0.119900003       0.00000000       41.3107414       1.62454724    
   1.36124396       3.81390005E-02   0.00000000       41.3107414       1.62454724    
   1.35858905       3.79349999E-02 -0.303501010       41.3107414       1.62454724    
   1.35229194     -0.119709998     -0.303514004       41.3107414       1.62454724    
   1.35858905       3.79349999E-02 -0.303501010       31.5804348      -1.42186904    
   1.34464097      0.195331007     -0.303496003       31.5804348      -1.42186904    
   1.34573400      0.195616007     -0.606999993       31.5804348      -1.42186904    
   1.36126804       3.78950015E-02 -0.606999993       31.5804348      -1.42186904    
   1.35858905       3.79349999E-02 -0.303501010       49.2900085       1.62378991    
   1.36126804       3.78950015E-02 -0.606999993       49.2900085       1.62378991    
   1.35321999     -0.119608998     -0.606999993       49.2900085       1.62378991    
   1.35229194     -0.119709998     -0.303514004       49.2900085       1.62378991    
   1.35858905       3.79349999E-02 -0.303501010       43.4795876      -1.46857142    
   1.36124396       3.81390005E-02   0.00000000       43.4795876      -1.46857142    
   1.34575403      0.195406005       0.00000000       43.4795876      -1.46857142    
   1.34464097      0.195331007     -0.303496003       43.4795876      -1.46857142    
   1.34575403      0.195406005       0.00000000       131.607986      -1.48637891    
   1.31339800      0.349945009       0.00000000       131.607986      -1.48637891    
   1.31216300      0.349725991     -0.303487003       131.607986      -1.48637891    
   1.34464097      0.195331007     -0.303496003       131.607986      -1.48637891    
   1.31216300      0.349725991     -0.303487003       204.086563      -1.47505045    
   1.26341999      0.500032008     -0.303494006       204.086563      -1.47505045    
   1.26736605      0.501691997     -0.606999993       204.086563      -1.47505045    
   1.31333196      0.350163996     -0.606999993       204.086563      -1.47505045    
   1.31216300      0.349725991     -0.303487003       113.593582      -1.46498990    
   1.31333196      0.350163996     -0.606999993       113.593582      -1.46498990    
   1.34573400      0.195616007     -0.606999993       113.593582      -1.46498990    
   1.34464097      0.195331007     -0.303496003       113.593582      -1.46498990    
   1.31216300      0.349725991     -0.303487003       218.212692      -1.48979557    
   1.31339800      0.349945009       0.00000000       218.212692      -1.48979557    
   1.26751196      0.501209974       0.00000000       218.212692      -1.48979557    
   1.26341999      0.500032008     -0.303494006       218.212692      -1.48979557    
   1.26751196      0.501209974       0.00000000       303.244049      -1.49229336    
   1.19658697      0.643051028       0.00000000       303.244049      -1.49229336    
   1.19583094      0.642783999     -0.303505003       303.244049      -1.49229336    
   1.26341999      0.500032008     -0.303494006       303.244049      -1.49229336    
   1.19583094      0.642783999     -0.303505003       358.203583      -1.47884059    
   1.11495602      0.778467000     -0.303483993       358.203583      -1.47884059    
   1.11731696      0.779847026     -0.606999993       358.203583      -1.47884059    
   1.19653296      0.643149972     -0.606999993       358.203583      -1.47884059    
   1.19583094      0.642783999     -0.303505003       280.225677      -1.47694969    
   1.19653296      0.643149972     -0.606999993       280.225677      -1.47694969    
   1.26736605      0.501691997     -0.606999993       280.225677      -1.47694969    
   1.26341999      0.500032008     -0.303494006       280.225677      -1.47694969    
   1.19583094      0.642783999     -0.303505003       382.590485      -1.49300504    
   1.19658697      0.643051028       0.00000000       382.590485      -1.49300504    
   1.11705506      0.780165970       0.00000000       382.590485      -1.49300504    
   1.11495602      0.778467000     -0.303483993       382.590485      -1.49300504    
   1.11705506      0.780165970       0.00000000       453.817017      -1.49339151    
   1.01674199      0.902397990       0.00000000       453.817017      -1.49339151    
   1.01591504      0.901737988     -0.303478003       453.817017      -1.49339151    
   1.11495602      0.778467000     -0.303483993       453.817017      -1.49339151    
   1.01591504      0.901737988     -0.303478003       491.033264      -1.48033881    
  0.904204011       1.01322901     -0.303456992       491.033264      -1.48033881    
  0.905143023       1.01448905     -0.606999993       491.033264      -1.48033881    
   1.01659799      0.902572989     -0.606999993       491.033264      -1.48033881    
   1.01591504      0.901737988     -0.303478003       428.954620      -1.47999954    
   1.01659799      0.902572989     -0.606999993       428.954620      -1.47999954    
   1.11731696      0.779847026     -0.606999993       428.954620      -1.47999954    
   1.11495602      0.778467000     -0.303483993       428.954620      -1.47999954    
   1.01591504      0.901737988     -0.303478003       519.921753      -1.49371111    
   1.01674199      0.902397990       0.00000000       519.921753      -1.49371111    
  0.905318975       1.01434398       0.00000000       519.921753      -1.49371111    
  0.904204011       1.01322901     -0.303456992       519.921753      -1.49371111    
  0.905318975       1.01434398       0.00000000       582.450012      -1.49421310    
  0.782918990       1.11479497       0.00000000       582.450012      -1.49421310    
  0.780644000       1.11195600     -0.303485006       582.450012      -1.49421310    
  0.904204011       1.01322901     -0.303456992       582.450012      -1.49421310    
  0.780644000       1.11195600     -0.303485006       591.976624      -1.48049343    
  0.645825028       1.19414902     -0.303514004       591.976624      -1.48049343    
  0.646153986       1.19492805     -0.606999993       591.976624      -1.48049343    
  0.782611012       1.11504900     -0.606999993       591.976624      -1.48049343    
  0.780644000       1.11195600     -0.303485006       545.650452      -1.48036957    
  0.782611012       1.11504900     -0.606999993       545.650452      -1.48036957    
  0.905143023       1.01448905     -0.606999993       545.650452      -1.48036957    
  0.904204011       1.01322901     -0.303456992       545.650452      -1.48036957    
  0.780644000       1.11195600     -0.303485006       632.922180      -1.49427962    
  0.782918990       1.11479497       0.00000000       632.922180      -1.49427962    
  0.646345019       1.19482601       0.00000000       632.922180      -1.49427962    
  0.645825028       1.19414902     -0.303514004       632.922180      -1.49427962    
  0.646345019       1.19482601       0.00000000       671.177124      -1.49391460    
  0.504974008       1.26637006       0.00000000       671.177124      -1.49391460    
  0.503772974       1.26314998     -0.303521991       671.177124      -1.49391460    
  0.645825028       1.19414902     -0.303514004       671.177124      -1.49391460    
  0.503772974       1.26314998     -0.303521991       663.380493      -1.48087537    
  0.353130996       1.31116498     -0.303510994       663.380493      -1.48087537    
  0.353300005       1.31237996     -0.606999993       663.380493      -1.48087537    
  0.505183995       1.26630700     -0.606999993       663.380493      -1.48087537    
  0.503772974       1.26314998     -0.303521991       632.129883      -1.48063850    
  0.505183995       1.26630700     -0.606999993       632.129883      -1.48063850    
  0.646153986       1.19492805     -0.606999993       632.129883      -1.48063850    
  0.645825028       1.19414902     -0.303514004       632.129883      -1.48063850    
  0.503772974       1.26314998     -0.303521991       702.565552      -1.49393606    
  0.504974008       1.26637006       0.00000000       702.565552      -1.49393606    
  0.353493989       1.31232095       0.00000000       702.565552      -1.49393606    
  0.353130996       1.31116498     -0.303510994       702.565552      -1.49393606    
  0.353493989       1.31232095       0.00000000       725.458130      -1.49408674    
  0.199064001       1.34539402       0.00000000       725.458130      -1.49408674    
  0.198755994       1.34360003     -0.303496003       725.458130      -1.49408674    
  0.353130996       1.31116498     -0.303510994       725.458130      -1.49408674    
  0.198755994       1.34360003     -0.303496003       692.212341      -1.48058677    
   4.12769988E-02   1.35817802     -0.303508013       692.212341      -1.48058677    
   4.12410013E-02   1.36093795     -0.606999993       692.212341      -1.48058677    
  0.199025005       1.34539795     -0.606999993       692.212341      -1.48058677    
  0.198755994       1.34360003     -0.303496003       684.714783      -1.48104990    
  0.199025005       1.34539795     -0.606999993       684.714783      -1.48104990    
  0.353300005       1.31237996     -0.606999993       684.714783      -1.48104990    
  0.353130996       1.31116498     -0.303510994       684.714783      -1.48104990    
  0.198755994       1.34360003     -0.303496003       738.263123      -1.49413526    
  0.199064001       1.34539402       0.00000000       738.263123      -1.49413526    
   4.17769998E-02   1.36088502       0.00000000       738.263123      -1.49413526    
   4.12769988E-02   1.35817802     -0.303508013       738.263123      -1.49413526    
   4.17769998E-02   1.36088502       0.00000000       745.093628      -1.49456072    
 -0.116410002       1.35353506       0.00000000       745.093628      -1.49456072    
 -0.116471998       1.35271096     -0.303496987       745.093628      -1.49456072    
   4.12769988E-02   1.35817802     -0.303508013       745.093628      -1.49456072    
 -0.116471998       1.35271096     -0.303496987       701.633911      -1.48204446    
 -0.273027003       1.33229196     -0.303496003       701.633911      -1.48204446    
 -0.273876995       1.33647299     -0.606999993       701.633911      -1.48204446    
 -0.116722003       1.35350394     -0.606999993       701.633911      -1.48204446    
 -0.116471998       1.35271096     -0.303496987       694.693970      -1.48074377    
 -0.116722003       1.35350394     -0.606999993       694.693970      -1.48074377    
   4.12410013E-02   1.36093795     -0.606999993       694.693970      -1.48074377    
   4.12769988E-02   1.35817802     -0.303508013       694.693970      -1.48074377    
 -0.116471998       1.35271096     -0.303496987       738.275024      -1.49459302    
 -0.116410002       1.35353506       0.00000000       738.275024      -1.49459302    
 -0.274069011       1.33641505       0.00000000       738.275024      -1.49459302    
 -0.273027003       1.33229196     -0.303496003       738.275024      -1.49459302    
 -0.274069011       1.33641505       0.00000000       721.508606      -1.49469995    
 -0.425588995       1.29045200       0.00000000       721.508606      -1.49469995    
 -0.425258011       1.28953803     -0.303507000       721.508606      -1.49469995    
 -0.273027003       1.33229196     -0.303496003       721.508606      -1.49469995    
 -0.425258011       1.28953803     -0.303507000       661.393799      -1.48270392    
 -0.572302997       1.23206902     -0.303485990       661.393799      -1.48270392    
 -0.573064029       1.23399496     -0.606999993       661.393799      -1.48270392    
 -0.425651014       1.29043305     -0.606999993       661.393799      -1.48270392    
 -0.425258011       1.28953803     -0.303507000       686.152344      -1.48224676    
 -0.425651014       1.29043305     -0.606999993       686.152344      -1.48224676    
 -0.273876995       1.33647299     -0.606999993       686.152344      -1.48224676    
 -0.273027003       1.33229196     -0.303496003       686.152344      -1.48224676    
 -0.425258011       1.28953803     -0.303507000       692.989990      -1.49494946    
 -0.425588995       1.29045200       0.00000000       692.989990      -1.49494946    
 -0.573195994       1.23392498       0.00000000       692.989990      -1.49494946    
 -0.572302997       1.23206902     -0.303485990       692.989990      -1.49494946    
 -0.573195994       1.23392498       0.00000000       654.434143      -1.49503922    
 -0.712655008       1.15938199       0.00000000       654.434143      -1.49503922    
 -0.711889029       1.15749002     -0.303496003       654.434143      -1.49503922    
 -0.572302997       1.23206902     -0.303485990       654.434143      -1.49503922    
 -0.711889029       1.15749002     -0.303496003       585.756775      -1.48343527    
 -0.840825975       1.06629205     -0.303485990       585.756775      -1.48343527    
 -0.841368973       1.06682706     -0.606999993       585.756775      -1.48343527    
 -0.712980986       1.15920806     -0.606999993       585.756775      -1.48343527    
 -0.711889029       1.15749002     -0.303496003       627.291504      -1.48293126    
 -0.712980986       1.15920806     -0.606999993       627.291504      -1.48293126    
 -0.573064029       1.23399496     -0.606999993       627.291504      -1.48293126    
 -0.572302997       1.23206902     -0.303485990       627.291504      -1.48293126    
 -0.711889029       1.15749002     -0.303496003       608.001648      -1.49535227    
 -0.712655008       1.15938199       0.00000000       608.001648      -1.49535227    
 -0.841165006       1.06699395       0.00000000       608.001648      -1.49535227    
 -0.840825975       1.06629205     -0.303485990       608.001648      -1.49535227    
 -0.841165006       1.06699395       0.00000000       553.725159      -1.49557376    
 -0.963320017      0.966744006       0.00000000       553.725159      -1.49557376    
 -0.960084975      0.962615013     -0.303470999       553.725159      -1.49557376    
 -0.840825975       1.06629205     -0.303485990       553.725159      -1.49557376    
 -0.960084975      0.962615013     -0.303470999       476.454529      -1.48396266    
  -1.06383705      0.843237996     -0.303481996       476.454529      -1.48396266    
  -1.06481802      0.843816996     -0.606999993       476.454529      -1.48396266    
 -0.963873982      0.966289997     -0.606999993       476.454529      -1.48396266    
 -0.960084975      0.962615013     -0.303470999       533.973511      -1.48367321    
 -0.963873982      0.966289997     -0.606999993       533.973511      -1.48367321    
 -0.841368973       1.06682706     -0.606999993       533.973511      -1.48367321    
 -0.840825975       1.06629205     -0.303485990       533.973511      -1.48367321    
 -0.960084975      0.962615013     -0.303470999       494.691498      -1.49592149    
 -0.963320017      0.966744006       0.00000000       494.691498      -1.49592149    
  -1.06464398      0.844029009       0.00000000       494.691498      -1.49592149    
  -1.06383705      0.843237996     -0.303481996       494.691498      -1.49592149    
  -1.06464398      0.844029009       0.00000000       425.801453      -1.49638832    
  -1.15769398      0.715813994       0.00000000       425.801453      -1.49638832    
  -1.15564799      0.714680016     -0.303483993       425.801453      -1.49638832    
  -1.06383705      0.843237996     -0.303481996       425.801453      -1.49638832    
  -1.15564799      0.714680016     -0.303483993       343.604340      -1.48588240    
  -1.23108304      0.575536013     -0.303514004       343.604340      -1.48588240    
  -1.23232996      0.576179981     -0.606999993       343.604340      -1.48588240    
  -1.15756094      0.716063023     -0.606999993       343.604340      -1.48588240    
  -1.15564799      0.714680016     -0.303483993       412.780884      -1.48490000    
  -1.15756094      0.716063023     -0.606999993       412.780884      -1.48490000    
  -1.06481802      0.843816996     -0.606999993       412.780884      -1.48490000    
  -1.06383705      0.843237996     -0.303481996       412.780884      -1.48490000    
  -1.15564799      0.714680016     -0.303483993       352.378265      -1.49677861    
  -1.15769398      0.715813994       0.00000000       352.378265      -1.49677861    
  -1.23224795      0.576331973       0.00000000       352.378265      -1.49677861    
  -1.23108304      0.575536013     -0.303514004       352.378265      -1.49677861    
  -1.23224795      0.576331973       0.00000000       273.709656      -1.49752533    
  -1.28948605      0.428772002       0.00000000       273.709656      -1.49752533    
  -1.28842103      0.428404987     -0.303512990       273.709656      -1.49752533    
  -1.23108304      0.575536013     -0.303514004       273.709656      -1.49752533    
  -1.28842103      0.428404987     -0.303512990       189.428101      -1.48918998    
  -1.33082402      0.275959998     -0.303492010       189.428101      -1.48918998    
  -1.33550000      0.277083993     -0.606999993       189.428101      -1.48918998    