 VARIABLES="X" "Y" "Z" "abs(p) (Pa)" "angle(p) (rad)"
ZONE N=   2720,E =    2069, F=FEPOINT, ET=QUADRILATERAL
 -0.767116010      -1.12776399       0.00000000       12704.8330       1.65983033    
 -0.769354999      -1.12002099     -0.303523988       12704.8330       1.65983033    
 -0.896136999      -1.02028203     -0.303463012       12704.8330       1.65983033    
 -0.894908011      -1.02288902       0.00000000       12704.8330       1.65983033    
 -0.767116010      -1.12776399       0.00000000       12690.3223       1.65983224    
 -0.630888999      -1.20308697       0.00000000       12690.3223       1.65983224    
 -0.635528028      -1.19958198     -0.303541005       12690.3223       1.65983224    
 -0.769354999      -1.12002099     -0.303523988       12690.3223       1.65983224    
 -0.635528028      -1.19958198     -0.303541005       10555.8770       1.65769815    
 -0.495362997      -1.26606500     -0.303519011       10555.8770       1.65769815    
 -0.499298006      -1.26809204     -0.606999993       10555.8770       1.65769815    
 -0.640147984      -1.19813800     -0.606998026       10555.8770       1.65769815    
 -0.635528028      -1.19958198     -0.303541005       10563.6787       1.65769327    
 -0.640147984      -1.19813800     -0.606998026       10563.6787       1.65769327    
 -0.777105987      -1.11956596     -0.606999993       10563.6787       1.65769327    
 -0.769354999      -1.12002099     -0.303523988       10563.6787       1.65769327    
 -0.635528028      -1.19958198     -0.303541005       12662.0371       1.65980208    
 -0.630888999      -1.20308697       0.00000000       12662.0371       1.65980208    
 -0.494486004      -1.26955199       0.00000000       12662.0371       1.65980208    
 -0.495362997      -1.26606500     -0.303519011       12662.0371       1.65980208    
 -0.494486004      -1.26955199       0.00000000       12669.9590       1.65979791    
 -0.346311986      -1.31449997       0.00000000       12669.9590       1.65979791    
 -0.346753001      -1.31307304     -0.303510010       12669.9590       1.65979791    
 -0.495362997      -1.26606500     -0.303519011       12669.9590       1.65979791    
 -0.346753001      -1.31307304     -0.303510010       10539.3057       1.65772164    
 -0.193608001      -1.34425998     -0.303494990       10539.3057       1.65772164    
 -0.195028007      -1.34579206     -0.606999993       10539.3057       1.65772164    
 -0.348751009      -1.31376004     -0.606999993       10539.3057       1.65772164    
 -0.346753001      -1.31307304     -0.303510010       10550.6826       1.65769887    
 -0.348751009      -1.31376004     -0.606999993       10550.6826       1.65769887    
 -0.499298006      -1.26809204     -0.606999993       10550.6826       1.65769887    
 -0.495362997      -1.26606500     -0.303519011       10550.6826       1.65769887    
 -0.346753001      -1.31307304     -0.303510010       12669.7686       1.65980422    
 -0.346311986      -1.31449997       0.00000000       12669.7686       1.65980422    
 -0.193381995      -1.34595394       0.00000000       12669.7686       1.65980422    
 -0.193608001      -1.34425998     -0.303494990       12669.7686       1.65980422    
 -0.193381995      -1.34595394       0.00000000       12662.2061       1.65983629    
  -3.75179984E-02  -1.36130500       0.00000000       12662.2061       1.65983629    
  -3.73950005E-02  -1.35827899     -0.303512007       12662.2061       1.65983629    
 -0.193608001      -1.34425998     -0.303494990       12662.2061       1.65983629    
  -3.73950005E-02  -1.35827899     -0.303512007       10515.8438       1.65769708    
  0.119547002      -1.35239303     -0.303498000       10515.8438       1.65769708    
  0.119135000      -1.35326600     -0.606999993       10515.8438       1.65769708    
  -3.82840000E-02  -1.36122894     -0.606998980       10515.8438       1.65769708    
  -3.73950005E-02  -1.35827899     -0.303512007       10531.6240       1.65769351    
  -3.82840000E-02  -1.36122894     -0.606998980       10531.6240       1.65769351    
 -0.195028007      -1.34579206     -0.606999993       10531.6240       1.65769351    
 -0.193608001      -1.34425998     -0.303494990       10531.6240       1.65769351    
  -3.73950005E-02  -1.35827899     -0.303512007       12598.1299       1.65984559    
  -3.75179984E-02  -1.36130500       0.00000000       12598.1299       1.65984559    
  0.119788997      -1.35320199       0.00000000       12598.1299       1.65984559    
  0.119547002      -1.35239303     -0.303498000       12598.1299       1.65984559    
  0.119788997      -1.35320199       0.00000000       12560.0283       1.65983105    
  0.276576012      -1.33565402       0.00000000       12560.0283       1.65983105    
  0.275435001      -1.33191597     -0.303496003       12560.0283       1.65983105    
  0.119547002      -1.35239303     -0.303498000       12560.0283       1.65983105    
  0.275435001      -1.33191597     -0.303496003       10488.1328       1.65767467    
  0.427076995      -1.28898001     -0.303507000       10488.1328       1.65767467    
  0.427242011      -1.28995001     -0.606999993       10488.1328       1.65767467    
  0.275831014      -1.33588004     -0.606999993       10488.1328       1.65767467    
  0.275435001      -1.33191597     -0.303496003       10503.1924       1.65768480    
  0.275831014      -1.33588004     -0.606999993       10503.1924       1.65768480    
  0.119135000      -1.35326600     -0.606999993       10503.1924       1.65768480    
  0.119547002      -1.35239303     -0.303498000       10503.1924       1.65768480    
  0.275435001      -1.33191597     -0.303496003       12511.4590       1.65982735    
  0.276576012      -1.33565402       0.00000000       12511.4590       1.65982735    
  0.427509993      -1.28986895       0.00000000       12511.4590       1.65982735    
  0.427076995      -1.28898001     -0.303507000       12511.4590       1.65982735    
  0.427509993      -1.28986895       0.00000000       12426.4766       1.65984881    
  0.574636996      -1.23315501       0.00000000       12426.4766       1.65984881    
  0.573706985      -1.23136795     -0.303485990       12426.4766       1.65984881    
  0.427076995      -1.28898001     -0.303507000       12426.4766       1.65984881    
  0.573706985      -1.23136795     -0.303485990       10472.6523       1.65766418    
  0.712854981      -1.15688002     -0.303496987       10472.6523       1.65766418    
  0.713809013      -1.15876603     -0.606999993       10472.6523       1.65766418    
  0.574283004      -1.23334301     -0.606999993       10472.6523       1.65766418    
  0.573706985      -1.23136795     -0.303485990       10472.5928       1.65769243    
  0.574283004      -1.23334301     -0.606999993       10472.5928       1.65769243    
  0.427242011      -1.28995001     -0.606999993       10472.5928       1.65769243    
  0.427076995      -1.28898001     -0.303507000       10472.5928       1.65769243    
  0.573706985      -1.23136795     -0.303485990       12395.3594       1.65984976    
  0.574636996      -1.23315501       0.00000000       12395.3594       1.65984976    
  0.713741004      -1.15880203       0.00000000       12395.3594       1.65984976    
  0.712854981      -1.15688002     -0.303496987       12395.3594       1.65984976    
  0.713741004      -1.15880203       0.00000000       12385.6641       1.65984428    
  0.841937006      -1.06636095       0.00000000       12385.6641       1.65984428    
  0.841498017      -1.06573403     -0.303485990       12385.6641       1.65984428    
  0.712854981      -1.15688002     -0.303496987       12385.6641       1.65984428    
  0.841498017      -1.06573403     -0.303485990       10492.9697       1.65761971    
  0.960639000     -0.962104976     -0.303470999       10492.9697       1.65761971    
  0.964356005     -0.965893984     -0.606999993       10492.9697       1.65761971    
  0.841796994      -1.06647599     -0.606999993       10492.9697       1.65761971    
  0.841498017      -1.06573403     -0.303485990       10474.7842       1.65767217    
  0.841796994      -1.06647599     -0.606999993       10474.7842       1.65767217    
  0.713809013      -1.15876603     -0.606999993       10474.7842       1.65767217    
  0.712854981      -1.15688002     -0.303496987       10474.7842       1.65767217    
  0.841498017      -1.06573403     -0.303485990       12469.2832       1.65979183    
  0.841937006      -1.06636095       0.00000000       12469.2832       1.65979183    
  0.963932991     -0.966242015       0.00000000       12469.2832       1.65979183    
  0.960639000     -0.962104976     -0.303470999       12469.2832       1.65979183    
  0.963932991     -0.966242015       0.00000000       12506.6885       1.65976787    
   1.06506598     -0.843514979       0.00000000       12506.6885       1.65976787    
   1.06428695     -0.842682004     -0.303481996       12506.6885       1.65976787    
  0.960639000     -0.962104976     -0.303470999       12506.6885       1.65976787    
   1.06428695     -0.842682004     -0.303481996       10501.6768       1.65768516    
   1.15591598     -0.714210987     -0.303485006       10501.6768       1.65768516    
   1.15788805     -0.715448976     -0.606999993       10501.6768       1.65768516    
   1.06537795     -0.843134999     -0.606999993       10501.6768       1.65768516    
   1.06428695     -0.842682004     -0.303481996       10506.2959       1.65760040    
   1.06537795     -0.843134999     -0.606999993       10506.2959       1.65760040    
  0.964356005     -0.965893984     -0.606999993       10506.2959       1.65760040    
  0.960639000     -0.962104976     -0.303470999       10506.2959       1.65760040    
   1.06428695     -0.842682004     -0.303481996       12458.3701       1.65974748    
   1.06506598     -0.843514979       0.00000000       12458.3701       1.65974748    
   1.15792501     -0.715381980       0.00000000       12458.3701       1.65974748    
   1.15591598     -0.714210987     -0.303485006       12458.3701       1.65974748    
   1.15792501     -0.715381980       0.00000000       12543.1348       1.65969765    
   1.23237598     -0.576093972       0.00000000       12543.1348       1.65969765    
   1.23120904     -0.575251997     -0.303514004       12543.1348       1.65969765    
   1.15591598     -0.714210987     -0.303485006       12543.1348       1.65969765    
   1.23120904     -0.575251997     -0.303514004       10542.6318       1.65764928    
   1.28844094     -0.428344995     -0.303512990       10542.6318       1.65764928    
   1.28952503     -0.428642988     -0.606999993       10542.6318       1.65764928    
   1.23252702     -0.575810015     -0.606999993       10542.6318       1.65764928    
   1.23120904     -0.575251997     -0.303514004       10525.7412       1.65765417    
   1.23252702     -0.575810015     -0.606999993       10525.7412       1.65765417    
   1.15788805     -0.715448976     -0.606999993       10525.7412       1.65765417    
   1.15591598     -0.714210987     -0.303485006       10525.7412       1.65765417    
   1.23120904     -0.575251997     -0.303514004       12604.8047       1.65973067    
   1.23237598     -0.576093972       0.00000000       12604.8047       1.65973067    
   1.28947699     -0.428801000       0.00000000       12604.8047       1.65973067    
   1.28844094     -0.428344995     -0.303512990       12604.8047       1.65973067    
   1.28947699     -0.428801000       0.00000000       12676.3867       1.65973496    
   1.33532202     -0.277671993       0.00000000       12676.3867       1.65973496    
   1.33076501     -0.276203990     -0.303492010       12676.3867       1.65973496    
   1.28844094     -0.428344995     -0.303512990       12676.3867       1.65973496    
   1.33076501     -0.276203990     -0.303492010       10560.2070       1.65763104    
   1.35229194     -0.119709998     -0.303514004       10560.2070       1.65763104    
   1.35321999     -0.119608998     -0.606999993       10560.2070       1.65763104    
   1.33549094     -0.277112991     -0.606999993       10560.2070       1.65763104    
   1.33076501     -0.276203990     -0.303492010       10559.4609       1.65760446    
   1.33549094     -0.277112991     -0.606999993       10559.4609       1.65760446    
   1.28952503     -0.428642988     -0.606999993       10559.4609       1.65760446    
   1.28844094     -0.428344995     -0.303512990       10559.4609       1.65760446    
   1.33076501     -0.276203990     -0.303492010       12700.7891       1.65966296    
   1.33532202     -0.277671993       0.00000000       12700.7891       1.65966296    
   1.35319102     -0.119900003       0.00000000       12700.7891       1.65966296    
   1.35229194     -0.119709998     -0.303514004       12700.7891       1.65966296    
   1.35319102     -0.119900003       0.00000000       12719.2334       1.65964043    
   1.36124396       3.81390005E-02   0.00000000       12719.2334       1.65964043    
   1.35858905       3.79349999E-02 -0.303501010       12719.2334       1.65964043    
   1.35229194     -0.119709998     -0.303514004       12719.2334       1.65964043    
   1.35858905       3.79349999E-02 -0.303501010       10601.2773       1.65754652    
   1.34464097      0.195331007     -0.303496003       10601.2773       1.65754652    
   1.34573400      0.195616007     -0.606999993       10601.2773       1.65754652    
   1.36126804       3.78950015E-02 -0.606999993       10601.2773       1.65754652    
   1.35858905       3.79349999E-02 -0.303501010       10589.3398       1.65756392    
   1.36126804       3.78950015E-02 -0.606999993       10589.3398       1.65756392    
   1.35321999     -0.119608998     -0.606999993       10589.3398       1.65756392    
   1.35229194     -0.119709998     -0.303514004       10589.3398       1.65756392    
   1.35858905       3.79349999E-02 -0.303501010       12737.8398       1.65965092    
   1.36124396       3.81390005E-02   0.00000000       12737.8398       1.65965092    
   1.34575403      0.195406005       0.00000000       12737.8398       1.65965092    
   1.34464097      0.195331007     -0.303496003       12737.8398       1.65965092    
   1.34575403      0.195406005       0.00000000       12759.4990       1.65963352    
   1.31339800      0.349945009       0.00000000       12759.4990       1.65963352    
   1.31216300      0.349725991     -0.303487003       12759.4990       1.65963352    
   1.34464097      0.195331007     -0.303496003       12759.4990       1.65963352    
   1.31216300      0.349725991     -0.303487003       10614.2363       1.65753770    
   1.26341999      0.500032008     -0.303494006       10614.2363       1.65753770    
   1.26736605      0.501691997     -0.606999993       10614.2363       1.65753770    
   1.31333196      0.350163996     -0.606999993       10614.2363       1.65753770    
   1.31216300      0.349725991     -0.303487003       10605.7402       1.65755165    
   1.31333196      0.350163996     -0.606999993       10605.7402       1.65755165    
   1.34573400      0.195616007     -0.606999993       10605.7402       1.65755165    
   1.34464097      0.195331007     -0.303496003       10605.7402       1.65755165    
   1.31216300      0.349725991     -0.303487003       12807.9658       1.65961587    
   1.31339800      0.349945009       0.00000000       12807.9658       1.65961587    
   1.26751196      0.501209974       0.00000000       12807.9658       1.65961587    
   1.26341999      0.500032008     -0.303494006       12807.9658       1.65961587    
   1.26751196      0.501209974       0.00000000       12807.6934       1.65958273    
   1.19658697      0.643051028       0.00000000       12807.6934       1.65958273    
   1.19583094      0.642783999     -0.303505003       12807.6934       1.65958273    
   1.26341999      0.500032008     -0.303494006       12807.6934       1.65958273    
   1.19583094      0.642783999     -0.303505003       10585.8682       1.65750813    
   1.11495602      0.778467000     -0.303483993       10585.8682       1.65750813    
   1.11731696      0.779847026     -0.606999993       10585.8682       1.65750813    
   1.19653296      0.643149972     -0.606999993       10585.8682       1.65750813    
   1.19583094      0.642783999     -0.303505003       10606.1172       1.65753567    
   1.19653296      0.643149972     -0.606999993       10606.1172       1.65753567    
   1.26736605      0.501691997     -0.606999993       10606.1172       1.65753567    
   1.26341999      0.500032008     -0.303494006       10606.1172       1.65753567    
   1.19583094      0.642783999     -0.303505003       12715.6719       1.65959549    
   1.19658697      0.643051028       0.00000000       12715.6719       1.65959549    
   1.11705506      0.780165970       0.00000000       12715.6719       1.65959549    
   1.11495602      0.778467000     -0.303483993       12715.6719       1.65959549    
   1.11705506      0.780165970       0.00000000       12634.5371       1.65960956    
   1.01674199      0.902397990       0.00000000       12634.5371       1.65960956    
   1.01591504      0.901737988     -0.303478003       12634.5371       1.65960956    
   1.11495602      0.778467000     -0.303483993       12634.5371       1.65960956    
   1.01591504      0.901737988     -0.303478003       10547.9961       1.65747488    
  0.904204011       1.01322901     -0.303456992       10547.9961       1.65747488    
  0.905143023       1.01448905     -0.606999993       10547.9961       1.65747488    
   1.01659799      0.902572989     -0.606999993       10547.9961       1.65747488    
   1.01591504      0.901737988     -0.303478003       10574.8828       1.65745902    
   1.01659799      0.902572989     -0.606999993       10574.8828       1.65745902    
   1.11731696      0.779847026     -0.606999993       10574.8828       1.65745902    
   1.11495602      0.778467000     -0.303483993       10574.8828       1.65745902    
   1.01591504      0.901737988     -0.303478003       12547.0635       1.65962899    
   1.01674199      0.902397990       0.00000000       12547.0635       1.65962899    
  0.905318975       1.01434398       0.00000000       12547.0635       1.65962899    
  0.904204011       1.01322901     -0.303456992       12547.0635       1.65962899    
  0.905318975       1.01434398       0.00000000       12546.3311       1.65960336    
  0.782918990       1.11479497       0.00000000       12546.3311       1.65960336    
  0.780644000       1.11195600     -0.303485006       12546.3311       1.65960336    
  0.904204011       1.01322901     -0.303456992       12546.3311       1.65960336    
  0.780644000       1.11195600     -0.303485006       10521.5439       1.65745080    
  0.645825028       1.19414902     -0.303514004       10521.5439       1.65745080    
  0.646153986       1.19492805     -0.606999993       10521.5439       1.65745080    
  0.782611012       1.11504900     -0.606999993       10521.5439       1.65745080    
  0.780644000       1.11195600     -0.303485006       10533.3867       1.65744674    
  0.782611012       1.11504900     -0.606999993       10533.3867       1.65744674    
  0.905143023       1.01448905     -0.606999993       10533.3867       1.65744674    
  0.904204011       1.01322901     -0.303456992       10533.3867       1.65744674    
  0.780644000       1.11195600     -0.303485006       12522.9316       1.65960431    
  0.782918990       1.11479497       0.00000000       12522.9316       1.65960431    
  0.646345019       1.19482601       0.00000000       12522.9316       1.65960431    
  0.645825028       1.19414902     -0.303514004       12522.9316       1.65960431    
  0.646345019       1.19482601       0.00000000       12556.5654       1.65961730    
  0.504974008       1.26637006       0.00000000       12556.5654       1.65961730    
  0.503772974       1.26314998     -0.303521991       12556.5654       1.65961730    
  0.645825028       1.19414902     -0.303514004       12556.5654       1.65961730    
  0.503772974       1.26314998     -0.303521991       10529.4229       1.65743148    
  0.353130996       1.31116498     -0.303510994       10529.4229       1.65743148    
  0.353300005       1.31237996     -0.606999993       10529.4229       1.65743148    
  0.505183995       1.26630700     -0.606999993       10529.4229       1.65743148    
  0.503772974       1.26314998     -0.303521991       10523.2119       1.65743995    
  0.505183995       1.26630700     -0.606999993       10523.2119       1.65743995    
  0.646153986       1.19492805     -0.606999993       10523.2119       1.65743995    
  0.645825028       1.19414902     -0.303514004       10523.2119       1.65743995    
  0.503772974       1.26314998     -0.303521991       12568.8740       1.65961146    
  0.504974008       1.26637006       0.00000000       12568.8740       1.65961146    
  0.353493989       1.31232095       0.00000000       12568.8740       1.65961146    
  0.353130996       1.31116498     -0.303510994       12568.8740       1.65961146    
  0.353493989       1.31232095       0.00000000       12568.3555       1.65961516    
  0.199064001       1.34539402       0.00000000       12568.3555       1.65961516    
  0.198755994       1.34360003     -0.303496003       12568.3555       1.65961516    
  0.353130996       1.31116498     -0.303510994       12568.3555       1.65961516    
  0.198755994       1.34360003     -0.303496003       10554.9209       1.65747440    
   4.12769988E-02   1.35817802     -0.303508013       10554.9209       1.65747440    
   4.12410013E-02   1.36093795     -0.606999993       10554.9209       1.65747440    
  0.199025005       1.34539795     -0.606999993       10554.9209       1.65747440    
  0.198755994       1.34360003     -0.303496003       10534.7510       1.65745604    
  0.199025005       1.34539795     -0.606999993       10534.7510       1.65745604    
  0.353300005       1.31237996     -0.606999993       10534.7510       1.65745604    
  0.353130996       1.31116498     -0.303510994       10534.7510       1.65745604    
  0.198755994       1.34360003     -0.303496003       12602.3916       1.65961397    
  0.199064001       1.34539402       0.00000000       12602.3916       1.65961397    
   4.17769998E-02   1.36088502       0.00000000       12602.3916       1.65961397    
   4.12769988E-02   1.35817802     -0.303508013       12602.3916       1.65961397    
   4.17769998E-02   1.36088502       0.00000000       12662.7852       1.65960896    
 -0.116410002       1.35353506       0.00000000       12662.7852       1.65960896    
 -0.116471998       1.35271096     -0.303496987       12662.7852       1.65960896    
   4.12769988E-02   1.35817802     -0.303508013       12662.7852       1.65960896    
 -0.116471998       1.35271096     -0.303496987       10580.4053       1.65751827    
 -0.273027003       1.33229196     -0.303496003       10580.4053       1.65751827    
 -0.273876995       1.33647299     -0.606999993       10580.4053       1.65751827    
 -0.116722003       1.35350394     -0.606999993       10580.4053       1.65751827    
 -0.116471998       1.35271096     -0.303496987       10566.2949       1.65749252    
 -0.116722003       1.35350394     -0.606999993       10566.2949       1.65749252    
   4.12410013E-02   1.36093795     -0.606999993       10566.2949       1.65749252    
   4.12769988E-02   1.35817802     -0.303508013       10566.2949       1.65749252    
 -0.116471998       1.35271096     -0.303496987       12757.2275       1.65959799    
 -0.116410002       1.35353506       0.00000000       12757.2275       1.65959799    
 -0.274069011       1.33641505       0.00000000       12757.2275       1.65959799    
 -0.273027003       1.33229196     -0.303496003       12757.2275       1.65959799    
 -0.274069011       1.33641505       0.00000000       12767.9248       1.65960467    
 -0.425588995       1.29045200       0.00000000       12767.9248       1.65960467    
 -0.425258011       1.28953803     -0.303507000       12767.9248       1.65960467    
 -0.273027003       1.33229196     -0.303496003       12767.9248       1.65960467    
 -0.425258011       1.28953803     -0.303507000       10567.4277       1.65757978    
 -0.572302997       1.23206902     -0.303485990       10567.4277       1.65757978    
 -0.573064029       1.23399496     -0.606999993       10567.4277       1.65757978    
 -0.425651014       1.29043305     -0.606999993       10567.4277       1.65757978    
 -0.425258011       1.28953803     -0.303507000       10582.0225       1.65753102    
 -0.425651014       1.29043305     -0.606999993       10582.0225       1.65753102    
 -0.273876995       1.33647299     -0.606999993       10582.0225       1.65753102    
 -0.273027003       1.33229196     -0.303496003       10582.0225       1.65753102    
 -0.425258011       1.28953803     -0.303507000       12668.1191       1.65964651    
 -0.425588995       1.29045200       0.00000000       12668.1191       1.65964651    
 -0.573195994       1.23392498       0.00000000       12668.1191       1.65964651    
 -0.572302997       1.23206902     -0.303485990       12668.1191       1.65964651    
 -0.573195994       1.23392498       0.00000000       12599.3701       1.65968585    
 -0.712655008       1.15938199       0.00000000       12599.3701       1.65968585    
 -0.711889029       1.15749002     -0.303496003       12599.3701       1.65968585    
 -0.572302997       1.23206902     -0.303485990       12599.3701       1.65968585    
 -0.711889029       1.15749002     -0.303496003       10544.3623       1.65760934    
 -0.840825975       1.06629205     -0.303485990       10544.3623       1.65760934    
 -0.841368973       1.06682706     -0.606999993       10544.3623       1.65760934    
 -0.712980986       1.15920806     -0.606999993       10544.3623       1.65760934    
 -0.711889029       1.15749002     -0.303496003       10557.6074       1.65757596    
 -0.712980986       1.15920806     -0.606999993       10557.6074       1.65757596    
 -0.573064029       1.23399496     -0.606999993       10557.6074       1.65757596    
 -0.572302997       1.23206902     -0.303485990       10557.6074       1.65757596    
 -0.711889029       1.15749002     -0.303496003       12512.4307       1.65971816    
 -0.712655008       1.15938199       0.00000000       12512.4307       1.65971816    
 -0.841165006       1.06699395       0.00000000       12512.4307       1.65971816    
 -0.840825975       1.06629205     -0.303485990       12512.4307       1.65971816    
 -0.841165006       1.06699395       0.00000000       12518.6973       1.65973794    
 -0.963320017      0.966744006       0.00000000       12518.6973       1.65973794    
 -0.960084975      0.962615013     -0.303470999       12518.6973       1.65973794    
 -0.840825975       1.06629205     -0.303485990       12518.6973       1.65973794    
 -0.960084975      0.962615013     -0.303470999       10555.9141       1.65761268    
  -1.06383705      0.843237996     -0.303481996       10555.9141       1.65761268    
  -1.06481802      0.843816996     -0.606999993       10555.9141       1.65761268    
 -0.963873982      0.966289997     -0.606999993       10555.9141       1.65761268    
 -0.960084975      0.962615013     -0.303470999       10545.2471       1.65759861    
 -0.963873982      0.966289997     -0.606999993       10545.2471       1.65759861    
 -0.841368973       1.06682706     -0.606999993       10545.2471       1.65759861    
 -0.840825975       1.06629205     -0.303485990       10545.2471       1.65759861    
 -0.960084975      0.962615013     -0.303470999       12558.2197       1.65974975    
 -0.963320017      0.966744006       0.00000000       12558.2197       1.65974975    
  -1.06464398      0.844029009       0.00000000       12558.2197       1.65974975    
  -1.06383705      0.843237996     -0.303481996       12558.2197       1.65974975    
  -1.06464398      0.844029009       0.00000000       12589.7383       1.65974128    
  -1.15769398      0.715813994       0.00000000       12589.7383       1.65974128    
  -1.15564799      0.714680016     -0.303483993       12589.7383       1.65974128    
  -1.06383705      0.843237996     -0.303481996       12589.7383       1.65974128    
  -1.15564799      0.714680016     -0.303483993       10613.7568       1.65765297    
  -1.23108304      0.575536013     -0.303514004       10613.7568       1.65765297    
  -1.23232996      0.576179981     -0.606999993       10613.7568       1.65765297    
  -1.15756094      0.716063023     -0.606999993       10613.7568       1.65765297    
  -1.15564799      0.714680016     -0.303483993       10577.7959       1.65765584    
  -1.15756094      0.716063023     -0.606999993       10577.7959       1.65765584    
  -1.06481802      0.843816996     -0.606999993       10577.7959       1.65765584    
  -1.06383705      0.843237996     -0.303481996       10577.7959       1.65765584    
  -1.15564799      0.714680016     -0.303483993       12739.6182       1.65970576    
  -1.15769398      0.715813994       0.00000000       12739.6182       1.65970576    
  -1.23224795      0.576331973       0.00000000       12739.6182       1.65970576    
  -1.23108304      0.575536013     -0.303514004       12739.6182       1.65970576    
  -1.23224795      0.576331973       0.00000000       12820.3857       1.65969586    
  -1.28948605      0.428772002       0.00000000       12820.3857       1.65969586    
  -1.28842103      0.428404987     -0.303512990       12820.3857       1.65969586    
  -1.23108304      0.575536013     -0.303514004       12820.3857       1.65969586    
  -1.28842103      0.428404987     -0.303512990       10643.2129       1.65769911    
  -1.33082402      0.275959998     -0.303492010       10643.2129       1.65769911    
  -1.33550000      0.277083993     -0.606999993       10643.2129       1.65769911    