 VARIABLES="X" "Y" "Z" "abs(p) (Pa)" "angle(p) (rad)"
ZONE N=   2720,E =    2069, F=FEPOINT, ET=QUADRILATERAL
 -0.767116010      -1.12776399       0.00000000       11134.6592       1.67827773    
 -0.769354999      -1.12002099     -0.303523988       11134.6592       1.67827773    
 -0.896136999      -1.02028203     -0.303463012       11134.6592       1.67827773    
 -0.894908011      -1.02288902       0.00000000       11134.6592       1.67827773    
 -0.767116010      -1.12776399       0.00000000       11122.4902       1.67826629    
 -0.630888999      -1.20308697       0.00000000       11122.4902       1.67826629    
 -0.635528028      -1.19958198     -0.303541005       11122.4902       1.67826629    
 -0.769354999      -1.12002099     -0.303523988       11122.4902       1.67826629    
 -0.635528028      -1.19958198     -0.303541005       9722.96680       1.67590201    
 -0.495362997      -1.26606500     -0.303519011       9722.96680       1.67590201    
 -0.499298006      -1.26809204     -0.606999993       9722.96680       1.67590201    
 -0.640147984      -1.19813800     -0.606998026       9722.96680       1.67590201    
 -0.635528028      -1.19958198     -0.303541005       9729.34473       1.67589891    
 -0.640147984      -1.19813800     -0.606998026       9729.34473       1.67589891    
 -0.777105987      -1.11956596     -0.606999993       9729.34473       1.67589891    
 -0.769354999      -1.12002099     -0.303523988       9729.34473       1.67589891    
 -0.635528028      -1.19958198     -0.303541005       11103.2080       1.67823899    
 -0.630888999      -1.20308697       0.00000000       11103.2080       1.67823899    
 -0.494486004      -1.26955199       0.00000000       11103.2080       1.67823899    
 -0.495362997      -1.26606500     -0.303519011       11103.2080       1.67823899    
 -0.494486004      -1.26955199       0.00000000       11108.5908       1.67823184    
 -0.346311986      -1.31449997       0.00000000       11108.5908       1.67823184    
 -0.346753001      -1.31307304     -0.303510010       11108.5908       1.67823184    
 -0.495362997      -1.26606500     -0.303519011       11108.5908       1.67823184    
 -0.346753001      -1.31307304     -0.303510010       9711.03906       1.67592704    
 -0.193608001      -1.34425998     -0.303494990       9711.03906       1.67592704    
 -0.195028007      -1.34579206     -0.606999993       9711.03906       1.67592704    
 -0.348751009      -1.31376004     -0.606999993       9711.03906       1.67592704    
 -0.346753001      -1.31307304     -0.303510010       9718.98633       1.67589521    
 -0.348751009      -1.31376004     -0.606999993       9718.98633       1.67589521    
 -0.499298006      -1.26809204     -0.606999993       9718.98633       1.67589521    
 -0.495362997      -1.26606500     -0.303519011       9718.98633       1.67589521    
 -0.346753001      -1.31307304     -0.303510010       11112.7480       1.67823863    
 -0.346311986      -1.31449997       0.00000000       11112.7480       1.67823863    
 -0.193381995      -1.34595394       0.00000000       11112.7480       1.67823863    
 -0.193608001      -1.34425998     -0.303494990       11112.7480       1.67823863    
 -0.193381995      -1.34595394       0.00000000       11106.4561       1.67826843    
  -3.75179984E-02  -1.36130500       0.00000000       11106.4561       1.67826843    
  -3.73950005E-02  -1.35827899     -0.303512007       11106.4561       1.67826843    
 -0.193608001      -1.34425998     -0.303494990       11106.4561       1.67826843    
  -3.73950005E-02  -1.35827899     -0.303512007       9695.37109       1.67589748    
  0.119547002      -1.35239303     -0.303498000       9695.37109       1.67589748    
  0.119135000      -1.35326600     -0.606999993       9695.37109       1.67589748    
  -3.82840000E-02  -1.36122894     -0.606998980       9695.37109       1.67589748    
  -3.73950005E-02  -1.35827899     -0.303512007       9706.10059       1.67588997    
  -3.82840000E-02  -1.36122894     -0.606998980       9706.10059       1.67588997    
 -0.195028007      -1.34579206     -0.606999993       9706.10059       1.67588997    
 -0.193608001      -1.34425998     -0.303494990       9706.10059       1.67588997    
  -3.73950005E-02  -1.35827899     -0.303512007       11060.8887       1.67828429    
  -3.75179984E-02  -1.36130500       0.00000000       11060.8887       1.67828429    
  0.119788997      -1.35320199       0.00000000       11060.8887       1.67828429    
  0.119547002      -1.35239303     -0.303498000       11060.8887       1.67828429    
  0.119788997      -1.35320199       0.00000000       11031.5430       1.67827034    
  0.276576012      -1.33565402       0.00000000       11031.5430       1.67827034    
  0.275435001      -1.33191597     -0.303496003       11031.5430       1.67827034    
  0.119547002      -1.35239303     -0.303498000       11031.5430       1.67827034    
  0.275435001      -1.33191597     -0.303496003       9676.29688       1.67588747    
  0.427076995      -1.28898001     -0.303507000       9676.29688       1.67588747    
  0.427242011      -1.28995001     -0.606999993       9676.29688       1.67588747    
  0.275831014      -1.33588004     -0.606999993       9676.29688       1.67588747    
  0.275435001      -1.33191597     -0.303496003       9686.84668       1.67588675    
  0.275831014      -1.33588004     -0.606999993       9686.84668       1.67588675    
  0.119135000      -1.35326600     -0.606999993       9686.84668       1.67588675    
  0.119547002      -1.35239303     -0.303498000       9686.84668       1.67588675    
  0.275435001      -1.33191597     -0.303496003       10996.7695       1.67827511    
  0.276576012      -1.33565402       0.00000000       10996.7695       1.67827511    
  0.427509993      -1.28986895       0.00000000       10996.7695       1.67827511    
  0.427076995      -1.28898001     -0.303507000       10996.7695       1.67827511    
  0.427509993      -1.28986895       0.00000000       10940.9434       1.67830443    
  0.574636996      -1.23315501       0.00000000       10940.9434       1.67830443    
  0.573706985      -1.23136795     -0.303485990       10940.9434       1.67830443    
  0.427076995      -1.28898001     -0.303507000       10940.9434       1.67830443    
  0.573706985      -1.23136795     -0.303485990       9666.65820       1.67590117    
  0.712854981      -1.15688002     -0.303496987       9666.65820       1.67590117    
  0.713809013      -1.15876603     -0.606999993       9666.65820       1.67590117    
  0.574283004      -1.23334301     -0.606999993       9666.65820       1.67590117    
  0.573706985      -1.23136795     -0.303485990       9665.44336       1.67592096    
  0.574283004      -1.23334301     -0.606999993       9665.44336       1.67592096    
  0.427242011      -1.28995001     -0.606999993       9665.44336       1.67592096    
  0.427076995      -1.28898001     -0.303507000       9665.44336       1.67592096    
  0.573706985      -1.23136795     -0.303485990       10920.9619       1.67831755    
  0.574636996      -1.23315501       0.00000000       10920.9619       1.67831755    
  0.713741004      -1.15880203       0.00000000       10920.9619       1.67831755    
  0.712854981      -1.15688002     -0.303496987       10920.9619       1.67831755    
  0.713741004      -1.15880203       0.00000000       10916.3896       1.67833102    
  0.841937006      -1.06636095       0.00000000       10916.3896       1.67833102    
  0.841498017      -1.06573403     -0.303485990       10916.3896       1.67833102    
  0.712854981      -1.15688002     -0.303496987       10916.3896       1.67833102    
  0.841498017      -1.06573403     -0.303485990       9683.16113       1.67587292    
  0.960639000     -0.962104976     -0.303470999       9683.16113       1.67587292    
  0.964356005     -0.965893984     -0.606999993       9683.16113       1.67587292    
  0.841796994      -1.06647599     -0.606999993       9683.16113       1.67587292    
  0.841498017      -1.06573403     -0.303485990       9668.95020       1.67592084    
  0.841796994      -1.06647599     -0.606999993       9668.95020       1.67592084    
  0.713809013      -1.15876603     -0.606999993       9668.95020       1.67592084    
  0.712854981      -1.15688002     -0.303496987       9668.95020       1.67592084    
  0.841498017      -1.06573403     -0.303485990       10971.8623       1.67830133    
  0.841937006      -1.06636095       0.00000000       10971.8623       1.67830133    
  0.963932991     -0.966242015       0.00000000       10971.8623       1.67830133    
  0.960639000     -0.962104976     -0.303470999       10971.8623       1.67830133    
  0.963932991     -0.966242015       0.00000000       10997.0596       1.67829049    
   1.06506598     -0.843514979       0.00000000       10997.0596       1.67829049    
   1.06428695     -0.842682004     -0.303481996       10997.0596       1.67829049    
  0.960639000     -0.962104976     -0.303470999       10997.0596       1.67829049    
   1.06428695     -0.842682004     -0.303481996       9686.44531       1.67599809    
   1.15591598     -0.714210987     -0.303485006       9686.44531       1.67599809    
   1.15788805     -0.715448976     -0.606999993       9686.44531       1.67599809    
   1.06537795     -0.843134999     -0.606999993       9686.44531       1.67599809    
   1.06428695     -0.842682004     -0.303481996       9693.32422       1.67586744    
   1.06537795     -0.843134999     -0.606999993       9693.32422       1.67586744    
  0.964356005     -0.965893984     -0.606999993       9693.32422       1.67586744    
  0.960639000     -0.962104976     -0.303470999       9693.32422       1.67586744    
   1.06428695     -0.842682004     -0.303481996       10960.9023       1.67827916    
   1.06506598     -0.843514979       0.00000000       10960.9023       1.67827916    
   1.15792501     -0.715381980       0.00000000       10960.9023       1.67827916    
   1.15591598     -0.714210987     -0.303485006       10960.9023       1.67827916    
   1.15792501     -0.715381980       0.00000000       11021.3398       1.67824221    
   1.23237598     -0.576093972       0.00000000       11021.3398       1.67824221    
   1.23120904     -0.575251997     -0.303514004       11021.3398       1.67824221    
   1.15591598     -0.714210987     -0.303485006       11021.3398       1.67824221    
   1.23120904     -0.575251997     -0.303514004       9717.23926       1.67597306    
   1.28844094     -0.428344995     -0.303512990       9717.23926       1.67597306    
   1.28952503     -0.428642988     -0.606999993       9717.23926       1.67597306    
   1.23252702     -0.575810015     -0.606999993       9717.23926       1.67597306    
   1.23120904     -0.575251997     -0.303514004       9704.18555       1.67597055    
   1.23252702     -0.575810015     -0.606999993       9704.18555       1.67597055    
   1.15788805     -0.715448976     -0.606999993       9704.18555       1.67597055    
   1.15591598     -0.714210987     -0.303485006       9704.18555       1.67597055    
   1.23120904     -0.575251997     -0.303514004       11067.0537       1.67831540    
   1.23237598     -0.576093972       0.00000000       11067.0537       1.67831540    
   1.28947699     -0.428801000       0.00000000       11067.0537       1.67831540    
   1.28844094     -0.428344995     -0.303512990       11067.0537       1.67831540    
   1.28947699     -0.428801000       0.00000000       11119.0381       1.67832851    
   1.33532202     -0.277671993       0.00000000       11119.0381       1.67832851    
   1.33076501     -0.276203990     -0.303492010       11119.0381       1.67832851    
   1.28844094     -0.428344995     -0.303512990       11119.0381       1.67832851    
   1.33076501     -0.276203990     -0.303492010       9729.23926       1.67597747    
   1.35229194     -0.119709998     -0.303514004       9729.23926       1.67597747    
   1.35321999     -0.119608998     -0.606999993       9729.23926       1.67597747    
   1.33549094     -0.277112991     -0.606999993       9729.23926       1.67597747    
   1.33076501     -0.276203990     -0.303492010       9730.65820       1.67592704    
   1.33549094     -0.277112991     -0.606999993       9730.65820       1.67592704    
   1.28952503     -0.428642988     -0.606999993       9730.65820       1.67592704    
   1.28844094     -0.428344995     -0.303512990       9730.65820       1.67592704    
   1.33076501     -0.276203990     -0.303492010       11140.8135       1.67823517    
   1.33532202     -0.277671993       0.00000000       11140.8135       1.67823517    
   1.35319102     -0.119900003       0.00000000       11140.8135       1.67823517    
   1.35229194     -0.119709998     -0.303514004       11140.8135       1.67823517    
   1.35319102     -0.119900003       0.00000000       11156.1689       1.67821765    
   1.36124396       3.81390005E-02   0.00000000       11156.1689       1.67821765    
   1.35858905       3.79349999E-02 -0.303501010       11156.1689       1.67821765    
   1.35229194     -0.119709998     -0.303514004       11156.1689       1.67821765    
   1.35858905       3.79349999E-02 -0.303501010       9762.14258       1.67587864    
   1.34464097      0.195331007     -0.303496003       9762.14258       1.67587864    
   1.34573400      0.195616007     -0.606999993       9762.14258       1.67587864    
   1.36126804       3.78950015E-02 -0.606999993       9762.14258       1.67587864    
   1.35858905       3.79349999E-02 -0.303501010       9753.78906       1.67588866    
   1.36126804       3.78950015E-02 -0.606999993       9753.78906       1.67588866    
   1.35321999     -0.119608998     -0.606999993       9753.78906       1.67588866    
   1.35229194     -0.119709998     -0.303514004       9753.78906       1.67588866    
   1.35858905       3.79349999E-02 -0.303501010       11164.7969       1.67825067    
   1.36124396       3.81390005E-02   0.00000000       11164.7969       1.67825067    
   1.34575403      0.195406005       0.00000000       11164.7969       1.67825067    
   1.34464097      0.195331007     -0.303496003       11164.7969       1.67825067    
   1.34575403      0.195406005       0.00000000       11181.6465       1.67824030    
   1.31339800      0.349945009       0.00000000       11181.6465       1.67824030    
   1.31216300      0.349725991     -0.303487003       11181.6465       1.67824030    
   1.34464097      0.195331007     -0.303496003       11181.6465       1.67824030    
   1.31216300      0.349725991     -0.303487003       9772.99805       1.67587960    
   1.26341999      0.500032008     -0.303494006       9772.99805       1.67587960    
   1.26736605      0.501691997     -0.606999993       9772.99805       1.67587960    
   1.31333196      0.350163996     -0.606999993       9772.99805       1.67587960    
   1.31216300      0.349725991     -0.303487003       9765.51465       1.67589581    
   1.31333196      0.350163996     -0.606999993       9765.51465       1.67589581    
   1.34573400      0.195616007     -0.606999993       9765.51465       1.67589581    
   1.34464097      0.195331007     -0.303496003       9765.51465       1.67589581    
   1.31216300      0.349725991     -0.303487003       11214.2959       1.67823207    
   1.31339800      0.349945009       0.00000000       11214.2959       1.67823207    
   1.26751196      0.501209974       0.00000000       11214.2959       1.67823207    
   1.26341999      0.500032008     -0.303494006       11214.2959       1.67823207    
   1.26751196      0.501209974       0.00000000       11218.9189       1.67819512    
   1.19658697      0.643051028       0.00000000       11218.9189       1.67819512    
   1.19583094      0.642783999     -0.303505003       11218.9189       1.67819512    
   1.26341999      0.500032008     -0.303494006       11218.9189       1.67819512    
   1.19583094      0.642783999     -0.303505003       9752.65332       1.67588615    
   1.11495602      0.778467000     -0.303483993       9752.65332       1.67588615    
   1.11731696      0.779847026     -0.606999993       9752.65332       1.67588615    
   1.19653296      0.643149972     -0.606999993       9752.65332       1.67588615    
   1.19583094      0.642783999     -0.303505003       9767.82617       1.67588592    
   1.19653296      0.643149972     -0.606999993       9767.82617       1.67588592    
   1.26736605      0.501691997     -0.606999993       9767.82617       1.67588592    
   1.26341999      0.500032008     -0.303494006       9767.82617       1.67588592    
   1.19583094      0.642783999     -0.303505003       11153.0215       1.67821550    
   1.19658697      0.643051028       0.00000000       11153.0215       1.67821550    
   1.11705506      0.780165970       0.00000000       11153.0215       1.67821550    
   1.11495602      0.778467000     -0.303483993       11153.0215       1.67821550    
   1.11705506      0.780165970       0.00000000       11094.6816       1.67822683    
   1.01674199      0.902397990       0.00000000       11094.6816       1.67822683    
   1.01591504      0.901737988     -0.303478003       11094.6816       1.67822683    
   1.11495602      0.778467000     -0.303483993       11094.6816       1.67822683    
   1.01591504      0.901737988     -0.303478003       9727.40137       1.67586136    
  0.904204011       1.01322901     -0.303456992       9727.40137       1.67586136    
  0.905143023       1.01448905     -0.606999993       9727.40137       1.67586136    
   1.01659799      0.902572989     -0.606999993       9727.40137       1.67586136    
   1.01591504      0.901737988     -0.303478003       9746.78906       1.67583513    
   1.01659799      0.902572989     -0.606999993       9746.78906       1.67583513    
   1.11731696      0.779847026     -0.606999993       9746.78906       1.67583513    
   1.11495602      0.778467000     -0.303483993       9746.78906       1.67583513    
   1.01591504      0.901737988     -0.303478003       11034.5859       1.67825174    
   1.01674199      0.902397990       0.00000000       11034.5859       1.67825174    
  0.905318975       1.01434398       0.00000000       11034.5859       1.67825174    
  0.904204011       1.01322901     -0.303456992       11034.5859       1.67825174    
  0.905318975       1.01434398       0.00000000       11031.3223       1.67824197    
  0.782918990       1.11479497       0.00000000       11031.3223       1.67824197    
  0.780644000       1.11195600     -0.303485006       11031.3223       1.67824197    
  0.904204011       1.01322901     -0.303456992       11031.3223       1.67824197    
  0.780644000       1.11195600     -0.303485006       9708.46777       1.67583859    
  0.645825028       1.19414902     -0.303514004       9708.46777       1.67583859    
  0.646153986       1.19492805     -0.606999993       9708.46777       1.67583859    
  0.782611012       1.11504900     -0.606999993       9708.46777       1.67583859    
  0.780644000       1.11195600     -0.303485006       9717.20703       1.67583251    
  0.782611012       1.11504900     -0.606999993       9717.20703       1.67583251    
  0.905143023       1.01448905     -0.606999993       9717.20703       1.67583251    
  0.904204011       1.01322901     -0.303456992       9717.20703       1.67583251    
  0.780644000       1.11195600     -0.303485006       11013.4697       1.67825186    
  0.782918990       1.11479497       0.00000000       11013.4697       1.67825186    
  0.646345019       1.19482601       0.00000000       11013.4697       1.67825186    
  0.645825028       1.19414902     -0.303514004       11013.4697       1.67825186    
  0.646345019       1.19482601       0.00000000       11037.6729       1.67825818    
  0.504974008       1.26637006       0.00000000       11037.6729       1.67825818    
  0.503772974       1.26314998     -0.303521991       11037.6729       1.67825818    
  0.645825028       1.19414902     -0.303514004       11037.6729       1.67825818    
  0.503772974       1.26314998     -0.303521991       9713.90039       1.67582488    
  0.353130996       1.31116498     -0.303510994       9713.90039       1.67582488    
  0.353300005       1.31237996     -0.606999993       9713.90039       1.67582488    
  0.505183995       1.26630700     -0.606999993       9713.90039       1.67582488    
  0.503772974       1.26314998     -0.303521991       9709.52930       1.67582893    
  0.505183995       1.26630700     -0.606999993       9709.52930       1.67582893    
  0.646153986       1.19492805     -0.606999993       9709.52930       1.67582893    
  0.645825028       1.19414902     -0.303514004       9709.52930       1.67582893    
  0.503772974       1.26314998     -0.303521991       11044.8398       1.67825472    
  0.504974008       1.26637006       0.00000000       11044.8398       1.67825472    
  0.353493989       1.31232095       0.00000000       11044.8398       1.67825472    
  0.353130996       1.31116498     -0.303510994       11044.8398       1.67825472    
  0.353493989       1.31232095       0.00000000       11045.7637       1.67826402    
  0.199064001       1.34539402       0.00000000       11045.7637       1.67826402    
  0.198755994       1.34360003     -0.303496003       11045.7637       1.67826402    
  0.353130996       1.31116498     -0.303510994       11045.7637       1.67826402    
  0.198755994       1.34360003     -0.303496003       9732.25879       1.67586374    
   4.12769988E-02   1.35817802     -0.303508013       9732.25879       1.67586374    
   4.12410013E-02   1.36093795     -0.606999993       9732.25879       1.67586374    
  0.199025005       1.34539795     -0.606999993       9732.25879       1.67586374    
  0.198755994       1.34360003     -0.303496003       9717.19141       1.67585194    
  0.199025005       1.34539795     -0.606999993       9717.19141       1.67585194    
  0.353300005       1.31237996     -0.606999993       9717.19141       1.67585194    
  0.353130996       1.31116498     -0.303510994       9717.19141       1.67585194    
  0.198755994       1.34360003     -0.303496003       11066.5156       1.67827094    
  0.199064001       1.34539402       0.00000000       11066.5156       1.67827094    
   4.17769998E-02   1.36088502       0.00000000       11066.5156       1.67827094    
   4.12769988E-02   1.35817802     -0.303508013       11066.5156       1.67827094    
   4.17769998E-02   1.36088502       0.00000000       11112.6973       1.67826569    
 -0.116410002       1.35353506       0.00000000       11112.6973       1.67826569    
 -0.116471998       1.35271096     -0.303496987       11112.6973       1.67826569    
   4.12769988E-02   1.35817802     -0.303508013       11112.6973       1.67826569    
 -0.116471998       1.35271096     -0.303496987       9750.36914       1.67590594    
 -0.273027003       1.33229196     -0.303496003       9750.36914       1.67590594    
 -0.273876995       1.33647299     -0.606999993       9750.36914       1.67590594    
 -0.116722003       1.35350394     -0.606999993       9750.36914       1.67590594    
 -0.116471998       1.35271096     -0.303496987       9740.41504       1.67587984    
 -0.116722003       1.35350394     -0.606999993       9740.41504       1.67587984    
   4.12410013E-02   1.36093795     -0.606999993       9740.41504       1.67587984    
   4.12769988E-02   1.35817802     -0.303508013       9740.41504       1.67587984    
 -0.116471998       1.35271096     -0.303496987       11179.7285       1.67825663    
 -0.116410002       1.35353506       0.00000000       11179.7285       1.67825663    
 -0.274069011       1.33641505       0.00000000       11179.7285       1.67825663    
 -0.273027003       1.33229196     -0.303496003       11179.7285       1.67825663    
 -0.274069011       1.33641505       0.00000000       11188.0928       1.67825556    
 -0.425588995       1.29045200       0.00000000       11188.0928       1.67825556    
 -0.425258011       1.28953803     -0.303507000       11188.0928       1.67825556    
 -0.273027003       1.33229196     -0.303496003       11188.0928       1.67825556    
 -0.425258011       1.28953803     -0.303507000       9740.58789       1.67596149    
 -0.572302997       1.23206902     -0.303485990       9740.58789       1.67596149    
 -0.573064029       1.23399496     -0.606999993       9740.58789       1.67596149    
 -0.425651014       1.29043305     -0.606999993       9740.58789       1.67596149    
 -0.425258011       1.28953803     -0.303507000       9751.45703       1.67591631    
 -0.425651014       1.29043305     -0.606999993       9751.45703       1.67591631    
 -0.273876995       1.33647299     -0.606999993       9751.45703       1.67591631    
 -0.273027003       1.33229196     -0.303496003       9751.45703       1.67591631    
 -0.425258011       1.28953803     -0.303507000       11120.4561       1.67828918    
 -0.425588995       1.29045200       0.00000000       11120.4561       1.67828918    
 -0.573195994       1.23392498       0.00000000       11120.4561       1.67828918    
 -0.572302997       1.23206902     -0.303485990       11120.4561       1.67828918    
 -0.573195994       1.23392498       0.00000000       11071.6680       1.67832255    
 -0.712655008       1.15938199       0.00000000       11071.6680       1.67832255    
 -0.711889029       1.15749002     -0.303496003       11071.6680       1.67832255    
 -0.572302997       1.23206902     -0.303485990       11071.6680       1.67832255    
 -0.711889029       1.15749002     -0.303496003       9723.55273       1.67597711    
 -0.840825975       1.06629205     -0.303485990       9723.55273       1.67597711    
 -0.841368973       1.06682706     -0.606999993       9723.55273       1.67597711    
 -0.712980986       1.15920806     -0.606999993       9723.55273       1.67597711    
 -0.711889029       1.15749002     -0.303496003       9733.33887       1.67595053    
 -0.712980986       1.15920806     -0.606999993       9733.33887       1.67595053    
 -0.573064029       1.23399496     -0.606999993       9733.33887       1.67595053    
 -0.572302997       1.23206902     -0.303485990       9733.33887       1.67595053    
 -0.711889029       1.15749002     -0.303496003       11011.2637       1.67834187    
 -0.712655008       1.15938199       0.00000000       11011.2637       1.67834187    
 -0.841165006       1.06699395       0.00000000       11011.2637       1.67834187    
 -0.840825975       1.06629205     -0.303485990       11011.2637       1.67834187    
 -0.841165006       1.06699395       0.00000000       11011.5820       1.67835021    
 -0.963320017      0.966744006       0.00000000       11011.5820       1.67835021    
 -0.960084975      0.962615013     -0.303470999       11011.5820       1.67835021    
 -0.840825975       1.06629205     -0.303485990       11011.5820       1.67835021    
 -0.960084975      0.962615013     -0.303470999       9731.11426       1.67594075    
  -1.06383705      0.843237996     -0.303481996       9731.11426       1.67594075    
  -1.06481802      0.843816996     -0.606999993       9731.11426       1.67594075    
 -0.963873982      0.966289997     -0.606999993       9731.11426       1.67594075    
 -0.960084975      0.962615013     -0.303470999       9724.23730       1.67594337    
 -0.963873982      0.966289997     -0.606999993       9724.23730       1.67594337    
 -0.841368973       1.06682706     -0.606999993       9724.23730       1.67594337    
 -0.840825975       1.06629205     -0.303485990       9724.23730       1.67594337    
 -0.960084975      0.962615013     -0.303470999       11038.2539       1.67835283    
 -0.963320017      0.966744006       0.00000000       11038.2539       1.67835283    
  -1.06464398      0.844029009       0.00000000       11038.2539       1.67835283    
  -1.06383705      0.843237996     -0.303481996       11038.2539       1.67835283    
  -1.06464398      0.844029009       0.00000000       11059.3516       1.67832434    
  -1.15769398      0.715813994       0.00000000       11059.3516       1.67832434    
  -1.15564799      0.714680016     -0.303483993       11059.3516       1.67832434    
  -1.06383705      0.843237996     -0.303481996       11059.3516       1.67832434    
  -1.15564799      0.714680016     -0.303483993       9771.01562       1.67594171    
  -1.23108304      0.575536013     -0.303514004       9771.01562       1.67594171    
  -1.23232996      0.576179981     -0.606999993       9771.01562       1.67594171    
  -1.15756094      0.716063023     -0.606999993       9771.01562       1.67594171    
  -1.15564799      0.714680016     -0.303483993       9745.30664       1.67596543    
  -1.15756094      0.716063023     -0.606999993       9745.30664       1.67596543    
  -1.06481802      0.843816996     -0.606999993       9745.30664       1.67596543    
  -1.06383705      0.843237996     -0.303481996       9745.30664       1.67596543    
  -1.15564799      0.714680016     -0.303483993       11166.2236       1.67826760    
  -1.15769398      0.715813994       0.00000000       11166.2236       1.67826760    
  -1.23224795      0.576331973       0.00000000       11166.2236       1.67826760    
  -1.23108304      0.575536013     -0.303514004       11166.2236       1.67826760    
  -1.23224795      0.576331973       0.00000000       11226.4414       1.67823732    
  -1.28948605      0.428772002       0.00000000       11226.4414       1.67823732    
  -1.28842103      0.428404987     -0.303512990       11226.4414       1.67823732    
  -1.23108304      0.575536013     -0.303514004       11226.4414       1.67823732    
  -1.28842103      0.428404987     -0.303512990       9788.39551       1.67597020    
  -1.33082402      0.275959998     -0.303492010       9788.39551       1.67597020    
  -1.33550000      0.277083993     -0.606999993       9788.39551       1.67597020    