 VARIABLES="X" "Y" "Z" "abs(p) (Pa)" "angle(p) (rad)"
ZONE N=   2720,E =    2069, F=FEPOINT, ET=QUADRILATERAL
 -0.767116010      -1.12776399       0.00000000       1504.50598      -1.60951948    
 -0.769354999      -1.12002099     -0.303523988       1504.50598      -1.60951948    
 -0.896136999      -1.02028203     -0.303463012       1504.50598      -1.60951948    
 -0.894908011      -1.02288902       0.00000000       1504.50598      -1.60951948    
 -0.767116010      -1.12776399       0.00000000       1630.45569      -1.60948193    
 -0.630888999      -1.20308697       0.00000000       1630.45569      -1.60948193    
 -0.635528028      -1.19958198     -0.303541005       1630.45569      -1.60948193    
 -0.769354999      -1.12002099     -0.303523988       1630.45569      -1.60948193    
 -0.635528028      -1.19958198     -0.303541005       1331.67151      -1.62473023    
 -0.495362997      -1.26606500     -0.303519011       1331.67151      -1.62473023    
 -0.499298006      -1.26809204     -0.606999993       1331.67151      -1.62473023    
 -0.640147984      -1.19813800     -0.606998026       1331.67151      -1.62473023    
 -0.635528028      -1.19958198     -0.303541005       1253.70642      -1.62462103    
 -0.640147984      -1.19813800     -0.606998026       1253.70642      -1.62462103    
 -0.777105987      -1.11956596     -0.606999993       1253.70642      -1.62462103    
 -0.769354999      -1.12002099     -0.303523988       1253.70642      -1.62462103    
 -0.635528028      -1.19958198     -0.303541005       1730.28809      -1.60950780    
 -0.630888999      -1.20308697       0.00000000       1730.28809      -1.60950780    
 -0.494486004      -1.26955199       0.00000000       1730.28809      -1.60950780    
 -0.495362997      -1.26606500     -0.303519011       1730.28809      -1.60950780    
 -0.494486004      -1.26955199       0.00000000       1809.63989      -1.60948765    
 -0.346311986      -1.31449997       0.00000000       1809.63989      -1.60948765    
 -0.346753001      -1.31307304     -0.303510010       1809.63989      -1.60948765    
 -0.495362997      -1.26606500     -0.303519011       1809.63989      -1.60948765    
 -0.346753001      -1.31307304     -0.303510010       1438.66260      -1.62456667    
 -0.193608001      -1.34425998     -0.303494990       1438.66260      -1.62456667    
 -0.195028007      -1.34579206     -0.606999993       1438.66260      -1.62456667    
 -0.348751009      -1.31376004     -0.606999993       1438.66260      -1.62456667    
 -0.346753001      -1.31307304     -0.303510010       1395.10962      -1.62462258    
 -0.348751009      -1.31376004     -0.606999993       1395.10962      -1.62462258    
 -0.499298006      -1.26809204     -0.606999993       1395.10962      -1.62462258    
 -0.495362997      -1.26606500     -0.303519011       1395.10962      -1.62462258    
 -0.346753001      -1.31307304     -0.303510010       1866.75562      -1.60943270    
 -0.346311986      -1.31449997       0.00000000       1866.75562      -1.60943270    
 -0.193381995      -1.34595394       0.00000000       1866.75562      -1.60943270    
 -0.193608001      -1.34425998     -0.303494990       1866.75562      -1.60943270    
 -0.193381995      -1.34595394       0.00000000       1900.18311      -1.60940671    
  -3.75179984E-02  -1.36130500       0.00000000       1900.18311      -1.60940671    
  -3.73950005E-02  -1.35827899     -0.303512007       1900.18311      -1.60940671    
 -0.193608001      -1.34425998     -0.303494990       1900.18311      -1.60940671    
  -3.73950005E-02  -1.35827899     -0.303512007       1467.86816      -1.62453091    
  0.119547002      -1.35239303     -0.303498000       1467.86816      -1.62453091    
  0.119135000      -1.35326600     -0.606999993       1467.86816      -1.62453091    
  -3.82840000E-02  -1.36122894     -0.606998980       1467.86816      -1.62453091    
  -3.73950005E-02  -1.35827899     -0.303512007       1463.07788      -1.62459099    
  -3.82840000E-02  -1.36122894     -0.606998980       1463.07788      -1.62459099    
 -0.195028007      -1.34579206     -0.606999993       1463.07788      -1.62459099    
 -0.193608001      -1.34425998     -0.303494990       1463.07788      -1.62459099    
  -3.73950005E-02  -1.35827899     -0.303512007       1904.32227      -1.60939097    
  -3.75179984E-02  -1.36130500       0.00000000       1904.32227      -1.60939097    
  0.119788997      -1.35320199       0.00000000       1904.32227      -1.60939097    
  0.119547002      -1.35239303     -0.303498000       1904.32227      -1.60939097    
  0.119788997      -1.35320199       0.00000000       1882.91577      -1.60944486    
  0.276576012      -1.33565402       0.00000000       1882.91577      -1.60944486    
  0.275435001      -1.33191597     -0.303496003       1882.91577      -1.60944486    
  0.119547002      -1.35239303     -0.303498000       1882.91577      -1.60944486    
  0.275435001      -1.33191597     -0.303496003       1417.09705      -1.62493122    
  0.427076995      -1.28898001     -0.303507000       1417.09705      -1.62493122    
  0.427242011      -1.28995001     -0.606999993       1417.09705      -1.62493122    
  0.275831014      -1.33588004     -0.606999993       1417.09705      -1.62493122    
  0.275435001      -1.33191597     -0.303496003       1452.99524      -1.62483478    
  0.275831014      -1.33588004     -0.606999993       1452.99524      -1.62483478    
  0.119135000      -1.35326600     -0.606999993       1452.99524      -1.62483478    
  0.119547002      -1.35239303     -0.303498000       1452.99524      -1.62483478    
  0.275435001      -1.33191597     -0.303496003       1834.73682      -1.60954070    
  0.276576012      -1.33565402       0.00000000       1834.73682      -1.60954070    
  0.427509993      -1.28986895       0.00000000       1834.73682      -1.60954070    
  0.427076995      -1.28898001     -0.303507000       1834.73682      -1.60954070    
  0.427509993      -1.28986895       0.00000000       1764.85571      -1.60943544    
  0.574636996      -1.23315501       0.00000000       1764.85571      -1.60943544    
  0.573706985      -1.23136795     -0.303485990       1764.85571      -1.60943544    
  0.427076995      -1.28898001     -0.303507000       1764.85571      -1.60943544    
  0.573706985      -1.23136795     -0.303485990       1291.96118      -1.62488806    
  0.712854981      -1.15688002     -0.303496987       1291.96118      -1.62488806    
  0.713809013      -1.15876603     -0.606999993       1291.96118      -1.62488806    
  0.574283004      -1.23334301     -0.606999993       1291.96118      -1.62488806    
  0.573706985      -1.23136795     -0.303485990       1364.12305      -1.62483597    
  0.574283004      -1.23334301     -0.606999993       1364.12305      -1.62483597    
  0.427242011      -1.28995001     -0.606999993       1364.12305      -1.62483597    
  0.427076995      -1.28898001     -0.303507000       1364.12305      -1.62483597    
  0.573706985      -1.23136795     -0.303485990       1674.20581      -1.60932457    
  0.574636996      -1.23315501       0.00000000       1674.20581      -1.60932457    
  0.713741004      -1.15880203       0.00000000       1674.20581      -1.60932457    
  0.712854981      -1.15688002     -0.303496987       1674.20581      -1.60932457    
  0.713741004      -1.15880203       0.00000000       1558.83508      -1.60929179    
  0.841937006      -1.06636095       0.00000000       1558.83508      -1.60929179    
  0.841498017      -1.06573403     -0.303485990       1558.83508      -1.60929179    
  0.712854981      -1.15688002     -0.303496987       1558.83508      -1.60929179    
  0.841498017      -1.06573403     -0.303485990       1097.38062      -1.62493587    
  0.960639000     -0.962104976     -0.303470999       1097.38062      -1.62493587    
  0.964356005     -0.965893984     -0.606999993       1097.38062      -1.62493587    
  0.841796994      -1.06647599     -0.606999993       1097.38062      -1.62493587    
  0.841498017      -1.06573403     -0.303485990       1202.36023      -1.62491989    
  0.841796994      -1.06647599     -0.606999993       1202.36023      -1.62491989    
  0.713809013      -1.15876603     -0.606999993       1202.36023      -1.62491989    
  0.712854981      -1.15688002     -0.303496987       1202.36023      -1.62491989    
  0.841498017      -1.06573403     -0.303485990       1423.70374      -1.60957134    
  0.841937006      -1.06636095       0.00000000       1423.70374      -1.60957134    
  0.963932991     -0.966242015       0.00000000       1423.70374      -1.60957134    
  0.960639000     -0.962104976     -0.303470999       1423.70374      -1.60957134    
  0.963932991     -0.966242015       0.00000000       1265.06091      -1.60985541    
   1.06506598     -0.843514979       0.00000000       1265.06091      -1.60985541    
   1.06428695     -0.842682004     -0.303481996       1265.06091      -1.60985541    
  0.960639000     -0.962104976     -0.303470999       1265.06091      -1.60985541    
   1.06428695     -0.842682004     -0.303481996       843.508728      -1.62538934    
   1.15591598     -0.714210987     -0.303485006       843.508728      -1.62538934    
   1.15788805     -0.715448976     -0.606999993       843.508728      -1.62538934    
   1.06537795     -0.843134999     -0.606999993       843.508728      -1.62538934    
   1.06428695     -0.842682004     -0.303481996       973.537170      -1.62533379    
   1.06537795     -0.843134999     -0.606999993       973.537170      -1.62533379    
  0.964356005     -0.965893984     -0.606999993       973.537170      -1.62533379    
  0.960639000     -0.962104976     -0.303470999       973.537170      -1.62533379    
   1.06428695     -0.842682004     -0.303481996       1092.13000      -1.60973859    
   1.06506598     -0.843514979       0.00000000       1092.13000      -1.60973859    
   1.15792501     -0.715381980       0.00000000       1092.13000      -1.60973859    
   1.15591598     -0.714210987     -0.303485006       1092.13000      -1.60973859    
   1.15792501     -0.715381980       0.00000000       903.190796      -1.60998261    
   1.23237598     -0.576093972       0.00000000       903.190796      -1.60998261    
   1.23120904     -0.575251997     -0.303514004       903.190796      -1.60998261    
   1.15591598     -0.714210987     -0.303485006       903.190796      -1.60998261    
   1.23120904     -0.575251997     -0.303514004       543.197815      -1.62599552    
   1.28844094     -0.428344995     -0.303512990       543.197815      -1.62599552    
   1.28952503     -0.428642988     -0.606999993       543.197815      -1.62599552    
   1.23252702     -0.575810015     -0.606999993       543.197815      -1.62599552    
   1.23120904     -0.575251997     -0.303514004       697.820862      -1.62569523    
   1.23252702     -0.575810015     -0.606999993       697.820862      -1.62569523    
   1.15788805     -0.715448976     -0.606999993       697.820862      -1.62569523    
   1.15591598     -0.714210987     -0.303485006       697.820862      -1.62569523    
   1.23120904     -0.575251997     -0.303514004       702.662170      -1.61073220    
   1.23237598     -0.576093972       0.00000000       702.662170      -1.61073220    
   1.28947699     -0.428801000       0.00000000       702.662170      -1.61073220    
   1.28844094     -0.428344995     -0.303512990       702.662170      -1.61073220    
   1.28947699     -0.428801000       0.00000000       496.624207      -1.61005151    
   1.33532202     -0.277671993       0.00000000       496.624207      -1.61005151    
   1.33076501     -0.276203990     -0.303492010       496.624207      -1.61005151    
   1.28844094     -0.428344995     -0.303512990       496.624207      -1.61005151    
   1.33076501     -0.276203990     -0.303492010       212.969635      -1.62874854    
   1.35229194     -0.119709998     -0.303514004       212.969635      -1.62874854    
   1.35321999     -0.119608998     -0.606999993       212.969635      -1.62874854    
   1.33549094     -0.277112991     -0.606999993       212.969635      -1.62874854    
   1.33076501     -0.276203990     -0.303492010       383.847931      -1.62607729    
   1.33549094     -0.277112991     -0.606999993       383.847931      -1.62607729    
   1.28952503     -0.428642988     -0.606999993       383.847931      -1.62607729    
   1.28844094     -0.428344995     -0.303512990       383.847931      -1.62607729    
   1.33076501     -0.276203990     -0.303492010       277.895416      -1.61013520    
   1.33532202     -0.277671993       0.00000000       277.895416      -1.61013520    
   1.35319102     -0.119900003       0.00000000       277.895416      -1.61013520    
   1.35229194     -0.119709998     -0.303514004       277.895416      -1.61013520    
   1.35319102     -0.119900003       0.00000000       59.7737007      -1.60827959    
   1.36124396       3.81390005E-02   0.00000000       59.7737007      -1.60827959    
   1.35858905       3.79349999E-02 -0.303501010       59.7737007      -1.60827959    
   1.35229194     -0.119709998     -0.303514004       59.7737007      -1.60827959    
   1.35858905       3.79349999E-02 -0.303501010       125.940903       1.52010262    
   1.34464097      0.195331007     -0.303496003       125.940903       1.52010262    
   1.34573400      0.195616007     -0.606999993       125.940903       1.52010262    
   1.36126804       3.78950015E-02 -0.606999993       125.940903       1.52010262    
   1.35858905       3.79349999E-02 -0.303501010       46.3906441      -1.62891746    
   1.36126804       3.78950015E-02 -0.606999993       46.3906441      -1.62891746    
   1.35321999     -0.119608998     -0.606999993       46.3906441      -1.62891746    
   1.35229194     -0.119709998     -0.303514004       46.3906441      -1.62891746    
   1.35858905       3.79349999E-02 -0.303501010       162.662415       1.53218293    
   1.36124396       3.81390005E-02   0.00000000       162.662415       1.53218293    
   1.34575403      0.195406005       0.00000000       162.662415       1.53218293    
   1.34464097      0.195331007     -0.303496003       162.662415       1.53218293    
   1.34575403      0.195406005       0.00000000       380.571594       1.53198075    
   1.31339800      0.349945009       0.00000000       380.571594       1.53198075    
   1.31216300      0.349725991     -0.303487003       380.571594       1.53198075    
   1.34464097      0.195331007     -0.303496003       380.571594       1.53198075    
   1.31216300      0.349725991     -0.303487003       456.655396       1.51640487    
   1.26341999      0.500032008     -0.303494006       456.655396       1.51640487    
   1.26736605      0.501691997     -0.606999993       456.655396       1.51640487    
   1.31333196      0.350163996     -0.606999993       456.655396       1.51640487    
   1.31216300      0.349725991     -0.303487003       294.402740       1.51820683    
   1.31333196      0.350163996     -0.606999993       294.402740       1.51820683    
   1.34573400      0.195616007     -0.606999993       294.402740       1.51820683    
   1.34464097      0.195331007     -0.303496003       294.402740       1.51820683    
   1.31216300      0.349725991     -0.303487003       592.253235       1.53171504    
   1.31339800      0.349945009       0.00000000       592.253235       1.53171504    
   1.26751196      0.501209974       0.00000000       592.253235       1.53171504    
   1.26341999      0.500032008     -0.303494006       592.253235       1.53171504    
   1.26751196      0.501209974       0.00000000       800.427856       1.53216767    
   1.19658697      0.643051028       0.00000000       800.427856       1.53216767    
   1.19583094      0.642783999     -0.303505003       800.427856       1.53216767    
   1.26341999      0.500032008     -0.303494006       800.427856       1.53216767    
   1.19583094      0.642783999     -0.303505003       765.895081       1.51661181    
   1.11495602      0.778467000     -0.303483993       765.895081       1.51661181    
   1.11731696      0.779847026     -0.606999993       765.895081       1.51661181    
   1.19653296      0.643149972     -0.606999993       765.895081       1.51661181    
   1.19583094      0.642783999     -0.303505003       617.786621       1.51697183    
   1.19653296      0.643149972     -0.606999993       617.786621       1.51697183    
   1.26736605      0.501691997     -0.606999993       617.786621       1.51697183    
   1.26341999      0.500032008     -0.303494006       617.786621       1.51697183    
   1.19583094      0.642783999     -0.303505003       994.191467       1.53206456    
   1.19658697      0.643051028       0.00000000       994.191467       1.53206456    
   1.11705506      0.780165970       0.00000000       994.191467       1.53206456    
   1.11495602      0.778467000     -0.303483993       994.191467       1.53206456    
   1.11705506      0.780165970       0.00000000       1177.17664       1.53227437    
   1.01674199      0.902397990       0.00000000       1177.17664       1.53227437    
   1.01591504      0.901737988     -0.303478003       1177.17664       1.53227437    
   1.11495602      0.778467000     -0.303483993       1177.17664       1.53227437    
   1.01591504      0.901737988     -0.303478003       1034.81445       1.51686406    
  0.904204011       1.01322901     -0.303456992       1034.81445       1.51686406    
  0.905143023       1.01448905     -0.606999993       1034.81445       1.51686406    
   1.01659799      0.902572989     -0.606999993       1034.81445       1.51686406    
   1.01591504      0.901737988     -0.303478003       907.964172       1.51686203    
   1.01659799      0.902572989     -0.606999993       907.964172       1.51686203    
   1.11731696      0.779847026     -0.606999993       907.964172       1.51686203    
   1.11495602      0.778467000     -0.303483993       907.964172       1.51686203    
   1.01591504      0.901737988     -0.303478003       1340.20740       1.53224909    
   1.01674199      0.902397990       0.00000000       1340.20740       1.53224909    
  0.905318975       1.01434398       0.00000000       1340.20740       1.53224909    
  0.904204011       1.01322901     -0.303456992       1340.20740       1.53224909    
  0.905318975       1.01434398       0.00000000       1488.22498       1.53219259    
  0.782918990       1.11479497       0.00000000       1488.22498       1.53219259    
  0.780644000       1.11195600     -0.303485006       1488.22498       1.53219259    
  0.904204011       1.01322901     -0.303456992       1488.22498       1.53219259    
  0.780644000       1.11195600     -0.303485006       1246.77637       1.51692665    
  0.645825028       1.19414902     -0.303514004       1246.77637       1.51692665    
  0.646153986       1.19492805     -0.606999993       1246.77637       1.51692665    
  0.782611012       1.11504900     -0.606999993       1246.77637       1.51692665    
  0.780644000       1.11195600     -0.303485006       1147.43616       1.51677752    
  0.782611012       1.11504900     -0.606999993       1147.43616       1.51677752    
  0.905143023       1.01448905     -0.606999993       1147.43616       1.51677752    
  0.904204011       1.01322901     -0.303456992       1147.43616       1.51677752    
  0.780644000       1.11195600     -0.303485006       1615.08533       1.53217125    
  0.782918990       1.11479497       0.00000000       1615.08533       1.53217125    
  0.646345019       1.19482601       0.00000000       1615.08533       1.53217125    
  0.645825028       1.19414902     -0.303514004       1615.08533       1.53217125    
  0.646345019       1.19482601       0.00000000       1719.33203       1.53208876    
  0.504974008       1.26637006       0.00000000       1719.33203       1.53208876    
  0.503772974       1.26314998     -0.303521991       1719.33203       1.53208876    
  0.645825028       1.19414902     -0.303514004       1719.33203       1.53208876    
  0.503772974       1.26314998     -0.303521991       1390.82690       1.51686072    
  0.353130996       1.31116498     -0.303510994       1390.82690       1.51686072    
  0.353300005       1.31237996     -0.606999993       1390.82690       1.51686072    
  0.505183995       1.26630700     -0.606999993       1390.82690       1.51686072    
  0.503772974       1.26314998     -0.303521991       1326.51282       1.51679718    
  0.505183995       1.26630700     -0.606999993       1326.51282       1.51679718    
  0.646153986       1.19492805     -0.606999993       1326.51282       1.51679718    
  0.645825028       1.19414902     -0.303514004       1326.51282       1.51679718    
  0.503772974       1.26314998     -0.303521991       1801.25781       1.53210950    
  0.504974008       1.26637006       0.00000000       1801.25781       1.53210950    
  0.353493989       1.31232095       0.00000000       1801.25781       1.53210950    
  0.353130996       1.31116498     -0.303510994       1801.25781       1.53210950    
  0.353493989       1.31232095       0.00000000       1857.16931       1.53210258    
  0.199064001       1.34539402       0.00000000       1857.16931       1.53210258    
  0.198755994       1.34360003     -0.303496003       1857.16931       1.53210258    
  0.353130996       1.31116498     -0.303510994       1857.16931       1.53210258    
  0.198755994       1.34360003     -0.303496003       1459.00610       1.51684749    
   4.12769988E-02   1.35817802     -0.303508013       1459.00610       1.51684749    
   4.12410013E-02   1.36093795     -0.606999993       1459.00610       1.51684749    
  0.199025005       1.34539795     -0.606999993       1459.00610       1.51684749    
  0.198755994       1.34360003     -0.303496003       1434.69958       1.51688540    
  0.199025005       1.34539795     -0.606999993       1434.69958       1.51688540    
  0.353300005       1.31237996     -0.606999993       1434.69958       1.51688540    
  0.353130996       1.31116498     -0.303510994       1434.69958       1.51688540    
  0.198755994       1.34360003     -0.303496003       1890.94434       1.53210533    
  0.199064001       1.34539402       0.00000000       1890.94434       1.53210533    
   4.17769998E-02   1.36088502       0.00000000       1890.94434       1.53210533    
   4.12769988E-02   1.35817802     -0.303508013       1890.94434       1.53210533    
   4.17769998E-02   1.36088502       0.00000000       1899.93042       1.53209937    
 -0.116410002       1.35353506       0.00000000       1899.93042       1.53209937    
 -0.116471998       1.35271096     -0.303496987       1899.93042       1.53209937    
   4.12769988E-02   1.35817802     -0.303508013       1899.93042       1.53209937    
 -0.116471998       1.35271096     -0.303496987       1450.17725       1.51656210    
 -0.273027003       1.33229196     -0.303496003       1450.17725       1.51656210    
 -0.273876995       1.33647299     -0.606999993       1450.17725       1.51656210    
 -0.116722003       1.35350394     -0.606999993       1450.17725       1.51656210    
 -0.116471998       1.35271096     -0.303496987       1464.74805       1.51689565    
 -0.116722003       1.35350394     -0.606999993       1464.74805       1.51689565    
   4.12410013E-02   1.36093795     -0.606999993       1464.74805       1.51689565    
   4.12769988E-02   1.35817802     -0.303508013       1464.74805       1.51689565    
 -0.116471998       1.35271096     -0.303496987       1883.62817       1.53205621    
 -0.116410002       1.35353506       0.00000000       1883.62817       1.53205621    
 -0.274069011       1.33641505       0.00000000       1883.62817       1.53205621    
 -0.273027003       1.33229196     -0.303496003       1883.62817       1.53205621    
 -0.274069011       1.33641505       0.00000000       1838.45789       1.53199935    
 -0.425588995       1.29045200       0.00000000       1838.45789       1.53199935    
 -0.425258011       1.28953803     -0.303507000       1838.45789       1.53199935    
 -0.273027003       1.33229196     -0.303496003       1838.45789       1.53199935    
 -0.425258011       1.28953803     -0.303507000       1364.21631       1.51669478    
 -0.572302997       1.23206902     -0.303485990       1364.21631       1.51669478    
 -0.573064029       1.23399496     -0.606999993       1364.21631       1.51669478    
 -0.425651014       1.29043305     -0.606999993       1364.21631       1.51669478    
 -0.425258011       1.28953803     -0.303507000       1415.31201       1.51650023    
 -0.425651014       1.29043305     -0.606999993       1415.31201       1.51650023    
 -0.273876995       1.33647299     -0.606999993       1415.31201       1.51650023    
 -0.273027003       1.33229196     -0.303496003       1415.31201       1.51650023    
 -0.425258011       1.28953803     -0.303507000       1769.86865       1.53218067    
 -0.425588995       1.29045200       0.00000000       1769.86865       1.53218067    
 -0.573195994       1.23392498       0.00000000       1769.86865       1.53218067    
 -0.572302997       1.23206902     -0.303485990       1769.86865       1.53218067    
 -0.573195994       1.23392498       0.00000000       1679.12659       1.53234470    
 -0.712655008       1.15938199       0.00000000       1679.12659       1.53234470    
 -0.711889029       1.15749002     -0.303496003       1679.12659       1.53234470    
 -0.572302997       1.23206902     -0.303485990       1679.12659       1.53234470    
 -0.711889029       1.15749002     -0.303496003       1203.27856       1.51670206    
 -0.840825975       1.06629205     -0.303485990       1203.27856       1.51670206    
 -0.841368973       1.06682706     -0.606999993       1203.27856       1.51670206    
 -0.712980986       1.15920806     -0.606999993       1203.27856       1.51670206    
 -0.711889029       1.15749002     -0.303496003       1292.52954       1.51667702    
 -0.712980986       1.15920806     -0.606999993       1292.52954       1.51667702    
 -0.573064029       1.23399496     -0.606999993       1292.52954       1.51667702    
 -0.572302997       1.23206902     -0.303485990       1292.52954       1.51667702    
 -0.711889029       1.15749002     -0.303496003       1562.49731       1.53251314    
 -0.712655008       1.15938199       0.00000000       1562.49731       1.53251314    
 -0.841165006       1.06699395       0.00000000       1562.49731       1.53251314    
 -0.840825975       1.06629205     -0.303485990       1562.49731       1.53251314    
 -0.841165006       1.06699395       0.00000000       1427.28235       1.53261828    
 -0.963320017      0.966744006       0.00000000       1427.28235       1.53261828    
 -0.960084975      0.962615013     -0.303470999       1427.28235       1.53261828    
 -0.840825975       1.06629205     -0.303485990       1427.28235       1.53261828    
 -0.960084975      0.962615013     -0.303470999       975.316345       1.51645041    
  -1.06383705      0.843237996     -0.303481996       975.316345       1.51645041    
  -1.06481802      0.843816996     -0.606999993       975.316345       1.51645041    
 -0.963873982      0.966289997     -0.606999993       975.316345       1.51645041    
 -0.960084975      0.962615013     -0.303470999       1099.60352       1.51681530    
 -0.963873982      0.966289997     -0.606999993       1099.60352       1.51681530    
 -0.841368973       1.06682706     -0.606999993       1099.60352       1.51681530    
 -0.840825975       1.06629205     -0.303485990       1099.60352       1.51681530    
 -0.960084975      0.962615013     -0.303470999       1267.85461       1.53241122    
 -0.963320017      0.966744006       0.00000000       1267.85461       1.53241122    
  -1.06464398      0.844029009       0.00000000       1267.85461       1.53241122    
  -1.06383705      0.843237996     -0.303481996       1267.85461       1.53241122    
  -1.06464398      0.844029009       0.00000000       1094.56262       1.53253889    
  -1.15769398      0.715813994       0.00000000       1094.56262       1.53253889    
  -1.15564799      0.714680016     -0.303483993       1094.56262       1.53253889    
  -1.06383705      0.843237996     -0.303481996       1094.56262       1.53253889    
  -1.15564799      0.714680016     -0.303483993       698.057800       1.51651871    
  -1.23108304      0.575536013     -0.303514004       698.057800       1.51651871    
  -1.23232996      0.576179981     -0.606999993       698.057800       1.51651871    
  -1.15756094      0.716063023     -0.606999993       698.057800       1.51651871    
  -1.15564799      0.714680016     -0.303483993       844.042603       1.51667225    
  -1.15756094      0.716063023     -0.606999993       844.042603       1.51667225    
  -1.06481802      0.843816996     -0.606999993       844.042603       1.51667225    
  -1.06383705      0.843237996     -0.303481996       844.042603       1.51667225    
  -1.15564799      0.714680016     -0.303483993       905.962708       1.53237379    
  -1.15769398      0.715813994       0.00000000       905.962708       1.53237379    
  -1.23224795      0.576331973       0.00000000       905.962708       1.53237379    
  -1.23108304      0.575536013     -0.303514004       905.962708       1.53237379    
  -1.23224795      0.576331973       0.00000000       704.296631       1.53222001    
  -1.28948605      0.428772002       0.00000000       704.296631       1.53222001    
  -1.28842103      0.428404987     -0.303512990       704.296631       1.53222001    
  -1.23108304      0.575536013     -0.303514004       704.296631       1.53222001    
  -1.28842103      0.428404987     -0.303512990       382.402039       1.51618254    
  -1.33082402      0.275959998     -0.303492010       382.402039       1.51618254    
  -1.33550000      0.277083993     -0.606999993       382.402039       1.51618254    