 VARIABLES="X" "Y" "Z" "abs(p) (Pa)" "angle(p) (rad)"
ZONE N=   2720,E =    2069, F=FEPOINT, ET=QUADRILATERAL
 -0.767116010      -1.12776399       0.00000000       1038.83594       1.58567047    
 -0.769354999      -1.12002099     -0.303523988       1038.83594       1.58567047    
 -0.896136999      -1.02028203     -0.303463012       1038.83594       1.58567047    
 -0.894908011      -1.02288902       0.00000000       1038.83594       1.58567047    
 -0.767116010      -1.12776399       0.00000000       883.097778       1.58613420    
 -0.630888999      -1.20308697       0.00000000       883.097778       1.58613420    
 -0.635528028      -1.19958198     -0.303541005       883.097778       1.58613420    
 -0.769354999      -1.12002099     -0.303523988       883.097778       1.58613420    
 -0.635528028      -1.19958198     -0.303541005       595.147888       1.59009624    
 -0.495362997      -1.26606500     -0.303519011       595.147888       1.59009624    
 -0.499298006      -1.26809204     -0.606999993       595.147888       1.59009624    
 -0.640147984      -1.19813800     -0.606998026       595.147888       1.59009624    
 -0.635528028      -1.19958198     -0.303541005       740.165466       1.58931565    
 -0.640147984      -1.19813800     -0.606998026       740.165466       1.58931565    
 -0.777105987      -1.11956596     -0.606999993       740.165466       1.58931565    
 -0.769354999      -1.12002099     -0.303523988       740.165466       1.58931565    
 -0.635528028      -1.19958198     -0.303541005       678.355469       1.58741295    
 -0.630888999      -1.20308697       0.00000000       678.355469       1.58741295    
 -0.494486004      -1.26955199       0.00000000       678.355469       1.58741295    
 -0.495362997      -1.26606500     -0.303519011       678.355469       1.58741295    
 -0.494486004      -1.26955199       0.00000000       511.287811       1.58874214    
 -0.346311986      -1.31449997       0.00000000       511.287811       1.58874214    
 -0.346753001      -1.31307304     -0.303510010       511.287811       1.58874214    
 -0.495362997      -1.26606500     -0.303519011       511.287811       1.58874214    
 -0.346753001      -1.31307304     -0.303510010       290.293365       1.59415841    
 -0.193608001      -1.34425998     -0.303494990       290.293365       1.59415841    
 -0.195028007      -1.34579206     -0.606999993       290.293365       1.59415841    
 -0.348751009      -1.31376004     -0.606999993       290.293365       1.59415841    
 -0.346753001      -1.31307304     -0.303510010       447.302521       1.59139955    
 -0.348751009      -1.31376004     -0.606999993       447.302521       1.59139955    
 -0.499298006      -1.26809204     -0.606999993       447.302521       1.59139955    
 -0.495362997      -1.26606500     -0.303519011       447.302521       1.59139955    
 -0.346753001      -1.31307304     -0.303510010       333.512634       1.59150386    
 -0.346311986      -1.31449997       0.00000000       333.512634       1.59150386    
 -0.193381995      -1.34595394       0.00000000       333.512634       1.59150386    
 -0.193608001      -1.34425998     -0.303494990       333.512634       1.59150386    
 -0.193381995      -1.34595394       0.00000000       188.727890       1.59600770    
  -3.75179984E-02  -1.36130500       0.00000000       188.727890       1.59600770    
  -3.73950005E-02  -1.35827899     -0.303512007       188.727890       1.59600770    
 -0.193608001      -1.34425998     -0.303494990       188.727890       1.59600770    
  -3.73950005E-02  -1.35827899     -0.303512007       36.7751846      -1.61950350    
  0.119547002      -1.35239303     -0.303498000       36.7751846      -1.61950350    
  0.119135000      -1.35326600     -0.606999993       36.7751846      -1.61950350    
  -3.82840000E-02  -1.36122894     -0.606998980       36.7751846      -1.61950350    
  -3.73950005E-02  -1.35827899     -0.303512007       124.372482       1.60515988    
  -3.82840000E-02  -1.36122894     -0.606998980       124.372482       1.60515988    
 -0.195028007      -1.34579206     -0.606999993       124.372482       1.60515988    
 -0.193608001      -1.34425998     -0.303494990       124.372482       1.60515988    
  -3.73950005E-02  -1.35827899     -0.303512007       7.01743507       1.92262506    
  -3.75179984E-02  -1.36130500       0.00000000       7.01743507       1.92262506    
  0.119788997      -1.35320199       0.00000000       7.01743507       1.92262506    
  0.119547002      -1.35239303     -0.303498000       7.01743507       1.92262506    
  0.119788997      -1.35320199       0.00000000       185.597244      -1.57070422    
  0.276576012      -1.33565402       0.00000000       185.597244      -1.57070422    
  0.275435001      -1.33191597     -0.303496003       185.597244      -1.57070422    
  0.119547002      -1.35239303     -0.303498000       185.597244      -1.57070422    
  0.275435001      -1.33191597     -0.303496003       329.042450      -1.56145132    
  0.427076995      -1.28898001     -0.303507000       329.042450      -1.56145132    
  0.427242011      -1.28995001     -0.606999993       329.042450      -1.56145132    
  0.275831014      -1.33588004     -0.606999993       329.042450      -1.56145132    
  0.275435001      -1.33191597     -0.303496003       173.932571      -1.56705618    
  0.275831014      -1.33588004     -0.606999993       173.932571      -1.56705618    
  0.119135000      -1.35326600     -0.606999993       173.932571      -1.56705618    
  0.119547002      -1.35239303     -0.303498000       173.932571      -1.56705618    
  0.275435001      -1.33191597     -0.303496003       362.274475      -1.56445634    
  0.276576012      -1.33565402       0.00000000       362.274475      -1.56445634    
  0.427509993      -1.28986895       0.00000000       362.274475      -1.56445634    
  0.427076995      -1.28898001     -0.303507000       362.274475      -1.56445634    
  0.427509993      -1.28986895       0.00000000       532.759338      -1.56225300    
  0.574636996      -1.23315501       0.00000000       532.759338      -1.56225300    
  0.573706985      -1.23136795     -0.303485990       532.759338      -1.56225300    
  0.427076995      -1.28898001     -0.303507000       532.759338      -1.56225300    
  0.573706985      -1.23136795     -0.303485990       633.284302      -1.55842292    
  0.712854981      -1.15688002     -0.303496987       633.284302      -1.55842292    
  0.713809013      -1.15876603     -0.606999993       633.284302      -1.55842292    
  0.574283004      -1.23334301     -0.606999993       633.284302      -1.55842292    
  0.573706985      -1.23136795     -0.303485990       484.755920      -1.55941355    
  0.574283004      -1.23334301     -0.606999993       484.755920      -1.55941355    
  0.427242011      -1.28995001     -0.606999993       484.755920      -1.55941355    
  0.427076995      -1.28898001     -0.303507000       484.755920      -1.55941355    
  0.573706985      -1.23136795     -0.303485990       702.022888      -1.56121325    
  0.574636996      -1.23315501       0.00000000       702.022888      -1.56121325    
  0.713741004      -1.15880203       0.00000000       702.022888      -1.56121325    
  0.712854981      -1.15688002     -0.303496987       702.022888      -1.56121325    
  0.713741004      -1.15880203       0.00000000       859.602234      -1.56058526    
  0.841937006      -1.06636095       0.00000000       859.602234      -1.56058526    
  0.841498017      -1.06573403     -0.303485990       859.602234      -1.56058526    
  0.712854981      -1.15688002     -0.303496987       859.602234      -1.56058526    
  0.841498017      -1.06573403     -0.303485990       893.995483      -1.55729735    
  0.960639000     -0.962104976     -0.303470999       893.995483      -1.55729735    
  0.964356005     -0.965893984     -0.606999993       893.995483      -1.55729735    
  0.841796994      -1.06647599     -0.606999993       893.995483      -1.55729735    
  0.841498017      -1.06573403     -0.303485990       765.284302      -1.55774546    
  0.841796994      -1.06647599     -0.606999993       765.284302      -1.55774546    
  0.713809013      -1.15876603     -0.606999993       765.284302      -1.55774546    
  0.712854981      -1.15688002     -0.303496987       765.284302      -1.55774546    
  0.841498017      -1.06573403     -0.303485990       1021.21564      -1.56017220    
  0.841937006      -1.06636095       0.00000000       1021.21564      -1.56017220    
  0.963932991     -0.966242015       0.00000000       1021.21564      -1.56017220    
  0.960639000     -0.962104976     -0.303470999       1021.21564      -1.56017220    
  0.963932991     -0.966242015       0.00000000       1149.15613      -1.55986679    
   1.06506598     -0.843514979       0.00000000       1149.15613      -1.55986679    
   1.06428695     -0.842682004     -0.303481996       1149.15613      -1.55986679    
  0.960639000     -0.962104976     -0.303470999       1149.15613      -1.55986679    
   1.06428695     -0.842682004     -0.303481996       1135.28894      -1.55704308    
   1.15591598     -0.714210987     -0.303485006       1135.28894      -1.55704308    
   1.15788805     -0.715448976     -0.606999993       1135.28894      -1.55704308    
   1.06537795     -0.843134999     -0.606999993       1135.28894      -1.55704308    
   1.06428695     -0.842682004     -0.303481996       1006.25476      -1.55701172    
   1.06537795     -0.843134999     -0.606999993       1006.25476      -1.55701172    
  0.964356005     -0.965893984     -0.606999993       1006.25476      -1.55701172    
  0.960639000     -0.962104976     -0.303470999       1006.25476      -1.55701172    
   1.06428695     -0.842682004     -0.303481996       1260.92725      -1.55963218    
   1.06506598     -0.843514979       0.00000000       1260.92725      -1.55963218    
   1.15792501     -0.715381980       0.00000000       1260.92725      -1.55963218    
   1.15591598     -0.714210987     -0.303485006       1260.92725      -1.55963218    
   1.15792501     -0.715381980       0.00000000       1360.52075      -1.55942202    
   1.23237598     -0.576093972       0.00000000       1360.52075      -1.55942202    
   1.23120904     -0.575251997     -0.303514004       1360.52075      -1.55942202    
   1.15591598     -0.714210987     -0.303485006       1360.52075      -1.55942202    
   1.23120904     -0.575251997     -0.303514004       1288.45398      -1.55671597    
   1.28844094     -0.428344995     -0.303512990       1288.45398      -1.55671597    
   1.28952503     -0.428642988     -0.606999993       1288.45398      -1.55671597    
   1.23252702     -0.575810015     -0.606999993       1288.45398      -1.55671597    
   1.23120904     -0.575251997     -0.303514004       1219.74109      -1.55684412    
   1.23252702     -0.575810015     -0.606999993       1219.74109      -1.55684412    
   1.15788805     -0.715448976     -0.606999993       1219.74109      -1.55684412    
   1.15591598     -0.714210987     -0.303485006       1219.74109      -1.55684412    
   1.23120904     -0.575251997     -0.303514004       1467.78516      -1.55941355    
   1.23237598     -0.576093972       0.00000000       1467.78516      -1.55941355    
   1.28947699     -0.428801000       0.00000000       1467.78516      -1.55941355    
   1.28844094     -0.428344995     -0.303512990       1467.78516      -1.55941355    
   1.28947699     -0.428801000       0.00000000       1515.61780      -1.55924475    
   1.33532202     -0.277671993       0.00000000       1515.61780      -1.55924475    
   1.33076501     -0.276203990     -0.303492010       1515.61780      -1.55924475    
   1.28844094     -0.428344995     -0.303512990       1515.61780      -1.55924475    
   1.33076501     -0.276203990     -0.303492010       1416.39795      -1.55684233    
   1.35229194     -0.119709998     -0.303514004       1416.39795      -1.55684233    
   1.35321999     -0.119608998     -0.606999993       1416.39795      -1.55684233    
   1.33549094     -0.277112991     -0.606999993       1416.39795      -1.55684233    
   1.33076501     -0.276203990     -0.303492010       1337.62402      -1.55656791    
   1.33549094     -0.277112991     -0.606999993       1337.62402      -1.55656791    
   1.28952503     -0.428642988     -0.606999993       1337.62402      -1.55656791    
   1.28844094     -0.428344995     -0.303512990       1337.62402      -1.55656791    
   1.33076501     -0.276203990     -0.303492010       1524.02991      -1.55903363    
   1.33532202     -0.277671993       0.00000000       1524.02991      -1.55903363    
   1.35319102     -0.119900003       0.00000000       1524.02991      -1.55903363    
   1.35229194     -0.119709998     -0.303514004       1524.02991      -1.55903363    
   1.35319102     -0.119900003       0.00000000       1540.51611      -1.55897617    
   1.36124396       3.81390005E-02   0.00000000       1540.51611      -1.55897617    
   1.35858905       3.79349999E-02 -0.303501010       1540.51611      -1.55897617    
   1.35229194     -0.119709998     -0.303514004       1540.51611      -1.55897617    
   1.35858905       3.79349999E-02 -0.303501010       1394.29651      -1.55649543    
   1.34464097      0.195331007     -0.303496003       1394.29651      -1.55649543    
   1.34573400      0.195616007     -0.606999993       1394.29651      -1.55649543    
   1.36126804       3.78950015E-02 -0.606999993       1394.29651      -1.55649543    
   1.35858905       3.79349999E-02 -0.303501010       1402.57788      -1.55657995    
   1.36126804       3.78950015E-02 -0.606999993       1402.57788      -1.55657995    
   1.35321999     -0.119608998     -0.606999993       1402.57788      -1.55657995    
   1.35229194     -0.119709998     -0.303514004       1402.57788      -1.55657995    
   1.35858905       3.79349999E-02 -0.303501010       1582.31152      -1.55916297    
   1.36124396       3.81390005E-02   0.00000000       1582.31152      -1.55916297    
   1.34575403      0.195406005       0.00000000       1582.31152      -1.55916297    
   1.34464097      0.195331007     -0.303496003       1582.31152      -1.55916297    
   1.34575403      0.195406005       0.00000000       1553.98779      -1.55912852    
   1.31339800      0.349945009       0.00000000       1553.98779      -1.55912852    
   1.31216300      0.349725991     -0.303487003       1553.98779      -1.55912852    
   1.34464097      0.195331007     -0.303496003       1553.98779      -1.55912852    
   1.31216300      0.349725991     -0.303487003       1311.49329      -1.55636144    
   1.26341999      0.500032008     -0.303494006       1311.49329      -1.55636144    
   1.26736605      0.501691997     -0.606999993       1311.49329      -1.55636144    
   1.31333196      0.350163996     -0.606999993       1311.49329      -1.55636144    
   1.31216300      0.349725991     -0.303487003       1369.42261      -1.55647480    
   1.31333196      0.350163996     -0.606999993       1369.42261      -1.55647480    
   1.34573400      0.195616007     -0.606999993       1369.42261      -1.55647480    
   1.34464097      0.195331007     -0.303496003       1369.42261      -1.55647480    
   1.31216300      0.349725991     -0.303487003       1504.40259      -1.55907667    
   1.31339800      0.349945009       0.00000000       1504.40259      -1.55907667    
   1.26751196      0.501209974       0.00000000       1504.40259      -1.55907667    
   1.26341999      0.500032008     -0.303494006       1504.40259      -1.55907667    
   1.26751196      0.501209974       0.00000000       1386.64514      -1.55882180    
   1.19658697      0.643051028       0.00000000       1386.64514      -1.55882180    
   1.19583094      0.642783999     -0.303505003       1386.64514      -1.55882180    
   1.26341999      0.500032008     -0.303494006       1386.64514      -1.55882180    
   1.19583094      0.642783999     -0.303505003       1204.39270      -1.55668676    
   1.11495602      0.778467000     -0.303483993       1204.39270      -1.55668676    
   1.11731696      0.779847026     -0.606999993       1204.39270      -1.55668676    
   1.19653296      0.643149972     -0.606999993       1204.39270      -1.55668676    
   1.19583094      0.642783999     -0.303505003       1249.16467      -1.55636454    
   1.19653296      0.643149972     -0.606999993       1249.16467      -1.55636454    
   1.26736605      0.501691997     -0.606999993       1249.16467      -1.55636454    
   1.26341999      0.500032008     -0.303494006       1249.16467      -1.55636454    
   1.19583094      0.642783999     -0.303505003       1289.24402      -1.55886412    
   1.19658697      0.643051028       0.00000000       1289.24402      -1.55886412    
   1.11705506      0.780165970       0.00000000       1289.24402      -1.55886412    
   1.11495602      0.778467000     -0.303483993       1289.24402      -1.55886412    
   1.11705506      0.780165970       0.00000000       1177.73657      -1.55891013    
   1.01674199      0.902397990       0.00000000       1177.73657      -1.55891013    
   1.01591504      0.901737988     -0.303478003       1177.73657      -1.55891013    
   1.11495602      0.778467000     -0.303483993       1177.73657      -1.55891013    
   1.01591504      0.901737988     -0.303478003       957.515198      -1.55647910    
  0.904204011       1.01322901     -0.303456992       957.515198      -1.55647910    
  0.905143023       1.01448905     -0.606999993       957.515198      -1.55647910    
   1.01659799      0.902572989     -0.606999993       957.515198      -1.55647910    
   1.01591504      0.901737988     -0.303478003       1067.68872      -1.55635345    
   1.01659799      0.902572989     -0.606999993       1067.68872      -1.55635345    
   1.11731696      0.779847026     -0.606999993       1067.68872      -1.55635345    
   1.11495602      0.778467000     -0.303483993       1067.68872      -1.55635345    
   1.01591504      0.901737988     -0.303478003       1048.53162      -1.55901575    
   1.01674199      0.902397990       0.00000000       1048.53162      -1.55901575    
  0.905318975       1.01434398       0.00000000       1048.53162      -1.55901575    
  0.904204011       1.01322901     -0.303456992       1048.53162      -1.55901575    
  0.905318975       1.01434398       0.00000000       945.095337      -1.55939019    
  0.782918990       1.11479497       0.00000000       945.095337      -1.55939019    
  0.780644000       1.11195600     -0.303485006       945.095337      -1.55939019    
  0.904204011       1.01322901     -0.303456992       945.095337      -1.55939019    
  0.780644000       1.11195600     -0.303485006       699.911316      -1.55686176    
  0.645825028       1.19414902     -0.303514004       699.911316      -1.55686176    
  0.646153986       1.19492805     -0.606999993       699.911316      -1.55686176    
  0.782611012       1.11504900     -0.606999993       699.911316      -1.55686176    
  0.780644000       1.11195600     -0.303485006       833.291260      -1.55662036    
  0.782611012       1.11504900     -0.606999993       833.291260      -1.55662036    
  0.905143023       1.01448905     -0.606999993       833.291260      -1.55662036    
  0.904204011       1.01322901     -0.303456992       833.291260      -1.55662036    
  0.780644000       1.11195600     -0.303485006       798.100037      -1.55967152    
  0.782918990       1.11479497       0.00000000       798.100037      -1.55967152    
  0.646345019       1.19482601       0.00000000       798.100037      -1.55967152    
  0.645825028       1.19414902     -0.303514004       798.100037      -1.55967152    
  0.646345019       1.19482601       0.00000000       593.168762      -1.55970454    
  0.504974008       1.26637006       0.00000000       593.168762      -1.55970454    
  0.503772974       1.26314998     -0.303521991       593.168762      -1.55970454    
  0.645825028       1.19414902     -0.303514004       593.168762      -1.55970454    
  0.503772974       1.26314998     -0.303521991       407.934418      -1.55811632    
  0.353130996       1.31116498     -0.303510994       407.934418      -1.55811632    
  0.353300005       1.31237996     -0.606999993       407.934418      -1.55811632    
  0.505183995       1.26630700     -0.606999993       407.934418      -1.55811632    
  0.503772974       1.26314998     -0.303521991       555.514526      -1.55732131    
  0.505183995       1.26630700     -0.606999993       555.514526      -1.55732131    
  0.646153986       1.19492805     -0.606999993       555.514526      -1.55732131    
  0.645825028       1.19414902     -0.303514004       555.514526      -1.55732131    
  0.503772974       1.26314998     -0.303521991       421.718842      -1.56033063    
  0.504974008       1.26637006       0.00000000       421.718842      -1.56033063    
  0.353493989       1.31232095       0.00000000       421.718842      -1.56033063    
  0.353130996       1.31116498     -0.303510994       421.718842      -1.56033063    
  0.353493989       1.31232095       0.00000000       238.604202      -1.56210434    
  0.199064001       1.34539402       0.00000000       238.604202      -1.56210434    
  0.198755994       1.34360003     -0.303496003       238.604202      -1.56210434    
  0.353130996       1.31116498     -0.303510994       238.604202      -1.56210434    
  0.198755994       1.34360003     -0.303496003       47.2314644      -1.57117391    
   4.12769988E-02   1.35817802     -0.303508013       47.2314644      -1.57117391    
   4.12410013E-02   1.36093795     -0.606999993       47.2314644      -1.57117391    
  0.199025005       1.34539795     -0.606999993       47.2314644      -1.57117391    
  0.198755994       1.34360003     -0.303496003       248.118988      -1.55996490    
  0.199025005       1.34539795     -0.606999993       248.118988      -1.55996490    
  0.353300005       1.31237996     -0.606999993       248.118988      -1.55996490    
  0.353130996       1.31116498     -0.303510994       248.118988      -1.55996490    
  0.198755994       1.34360003     -0.303496003       52.1970978      -1.57653069    
  0.199064001       1.34539402       0.00000000       52.1970978      -1.57653069    
   4.17769998E-02   1.36088502       0.00000000       52.1970978      -1.57653069    
   4.12769988E-02   1.35817802     -0.303508013       52.1970978      -1.57653069    
   4.17769998E-02   1.36088502       0.00000000       129.474365       1.59151196    
 -0.116410002       1.35353506       0.00000000       129.474365       1.59151196    
 -0.116471998       1.35271096     -0.303496987       129.474365       1.59151196    
   4.12769988E-02   1.35817802     -0.303508013       129.474365       1.59151196    
 -0.116471998       1.35271096     -0.303496987       302.172760       1.58797789    
 -0.273027003       1.33229196     -0.303496003       302.172760       1.58797789    
 -0.273876995       1.33647299     -0.606999993       302.172760       1.58797789    
 -0.116722003       1.35350394     -0.606999993       302.172760       1.58797789    
 -0.116471998       1.35271096     -0.303496987       116.276085       1.59269726    
 -0.116722003       1.35350394     -0.606999993       116.276085       1.59269726    
   4.12410013E-02   1.36093795     -0.606999993       116.276085       1.59269726    
   4.12769988E-02   1.35817802     -0.303508013       116.276085       1.59269726    
 -0.116471998       1.35271096     -0.303496987       319.107574       1.58686090    
 -0.116410002       1.35353506       0.00000000       319.107574       1.58686090    
 -0.274069011       1.33641505       0.00000000       319.107574       1.58686090    
 -0.273027003       1.33229196     -0.303496003       319.107574       1.58686090    
 -0.274069011       1.33641505       0.00000000       498.196289       1.58567977    
 -0.425588995       1.29045200       0.00000000       498.196289       1.58567977    
 -0.425258011       1.28953803     -0.303507000       498.196289       1.58567977    
 -0.273027003       1.33229196     -0.303496003       498.196289       1.58567977    
 -0.425258011       1.28953803     -0.303507000       617.950012       1.58708572    
 -0.572302997       1.23206902     -0.303485990       617.950012       1.58708572    
 -0.573064029       1.23399496     -0.606999993       617.950012       1.58708572    
 -0.425651014       1.29043305     -0.606999993       617.950012       1.58708572    
 -0.425258011       1.28953803     -0.303507000       459.896423       1.58738005    
 -0.425651014       1.29043305     -0.606999993       459.896423       1.58738005    
 -0.273876995       1.33647299     -0.606999993       459.896423       1.58738005    
 -0.273027003       1.33229196     -0.303496003       459.896423       1.58738005    
 -0.425258011       1.28953803     -0.303507000       677.538330       1.58505630    
 -0.425588995       1.29045200       0.00000000       677.538330       1.58505630    
 -0.573195994       1.23392498       0.00000000       677.538330       1.58505630    
 -0.572302997       1.23206902     -0.303485990       677.538330       1.58505630    
 -0.573195994       1.23392498       0.00000000       846.979431       1.58472407    
 -0.712655008       1.15938199       0.00000000       846.979431       1.58472407    
 -0.711889029       1.15749002     -0.303496003       846.979431       1.58472407    
 -0.572302997       1.23206902     -0.303485990       846.979431       1.58472407    
 -0.711889029       1.15749002     -0.303496003       898.086304       1.58693707    
 -0.840825975       1.06629205     -0.303485990       898.086304       1.58693707    
 -0.841368973       1.06682706     -0.606999993       898.086304       1.58693707    
 -0.712980986       1.15920806     -0.606999993       898.086304       1.58693707    
 -0.711889029       1.15749002     -0.303496003       759.504761       1.58704937    
 -0.712980986       1.15920806     -0.606999993       759.504761       1.58704937    
 -0.573064029       1.23399496     -0.606999993       759.504761       1.58704937    
 -0.572302997       1.23206902     -0.303485990       759.504761       1.58704937    
 -0.711889029       1.15749002     -0.303496003       1001.91290       1.58453524    
 -0.712655008       1.15938199       0.00000000       1001.91290       1.58453524    
 -0.841165006       1.06699395       0.00000000       1001.91290       1.58453524    
 -0.840825975       1.06629205     -0.303485990       1001.91290       1.58453524    
 -0.841165006       1.06699395       0.00000000       1149.27905       1.58445299    
 -0.963320017      0.966744006       0.00000000       1149.27905       1.58445299    
 -0.960084975      0.962615013     -0.303470999       1149.27905       1.58445299    
 -0.840825975       1.06629205     -0.303485990       1149.27905       1.58445299    
 -0.960084975      0.962615013     -0.303470999       1143.89197       1.58680296    
  -1.06383705      0.843237996     -0.303481996       1143.89197       1.58680296    
  -1.06481802      0.843816996     -0.606999993       1143.89197       1.58680296    
 -0.963873982      0.966289997     -0.606999993       1143.89197       1.58680296    
 -0.960084975      0.962615013     -0.303470999       1029.32568       1.58686101    
 -0.963873982      0.966289997     -0.606999993       1029.32568       1.58686101    
 -0.841368973       1.06682706     -0.606999993       1029.32568       1.58686101    
 -0.840825975       1.06629205     -0.303485990       1029.32568       1.58686101    
 -0.960084975      0.962615013     -0.303470999       1284.89197       1.58435237    
 -0.963320017      0.966744006       0.00000000       1284.89197       1.58435237    
  -1.06464398      0.844029009       0.00000000       1284.89197       1.58435237    
  -1.06383705      0.843237996     -0.303481996       1284.89197       1.58435237    
  -1.06464398      0.844029009       0.00000000       1402.35132       1.58432591    
  -1.15769398      0.715813994       0.00000000       1402.35132       1.58432591    
  -1.15564799      0.714680016     -0.303483993       1402.35132       1.58432591    
  -1.06383705      0.843237996     -0.303481996       1402.35132       1.58432591    
  -1.15564799      0.714680016     -0.303483993       1338.12573       1.58675551    
  -1.23108304      0.575536013     -0.303514004       1338.12573       1.58675551    
  -1.23232996      0.576179981     -0.606999993       1338.12573       1.58675551    
  -1.15756094      0.716063023     -0.606999993       1338.12573       1.58675551    
  -1.15564799      0.714680016     -0.303483993       1247.09546       1.58678591    
  -1.15756094      0.716063023     -0.606999993       1247.09546       1.58678591    
  -1.06481802      0.843816996     -0.606999993       1247.09546       1.58678591    
  -1.06383705      0.843237996     -0.303481996       1247.09546       1.58678591    
  -1.15564799      0.714680016     -0.303483993       1507.25330       1.58434784    
  -1.15769398      0.715813994       0.00000000       1507.25330       1.58434784    
  -1.23224795      0.576331973       0.00000000       1507.25330       1.58434784    
  -1.23108304      0.575536013     -0.303514004       1507.25330       1.58434784    
  -1.23224795      0.576331973       0.00000000       1589.73291       1.58435643    
  -1.28948605      0.428772002       0.00000000       1589.73291       1.58435643    
  -1.28842103      0.428404987     -0.303512990       1589.73291       1.58435643    
  -1.23108304      0.575536013     -0.303514004       1589.73291       1.58435643    
  -1.28842103      0.428404987     -0.303512990       1414.93738       1.58718789    
  -1.33082402      0.275959998     -0.303492010       1414.93738       1.58718789    
  -1.33550000      0.277083993     -0.606999993       1414.93738       1.58718789    