VARIABLES="X" "Y" "Z" "NX" "NY" "NZ" "A"
 ZONE N=        2709 , E=        2358  , F=FEPOINT,ET=QUADRILATERAL
  -0.1365000E+01   0.0000000E+00  -0.6070000E+00   0.0000000E+00   0.0000000E+00   0.0000000E+00   0.0000000E+00
  -0.1338772E+01  -0.2662980E+00  -0.6070000E+00   0.0000000E+00   0.0000000E+00   0.0000000E+00   0.0000000E+00
  -0.1261096E+01  -0.5223630E+00  -0.6070000E+00   0.0000000E+00   0.0000000E+00   0.0000000E+00   0.0000000E+00
  -0.1134956E+01  -0.7583530E+00  -0.6070000E+00   0.0000000E+00   0.0000000E+00   0.0000000E+00   0.0000000E+00
  -0.9652010E+00  -0.9652010E+00  -0.6070000E+00   0.0000000E+00   0.0000000E+00   0.0000000E+00   0.0000000E+00
  -0.7583530E+00  -0.1134956E+01  -0.6070000E+00   0.0000000E+00   0.0000000E+00   0.0000000E+00   0.0000000E+00
  -0.5223630E+00  -0.1261096E+01  -0.6070000E+00   0.0000000E+00   0.0000000E+00   0.0000000E+00   0.0000000E+00
  -0.2662980E+00  -0.1338772E+01  -0.6070000E+00   0.0000000E+00   0.0000000E+00   0.0000000E+00   0.0000000E+00
   0.0000000E+00  -0.1365000E+01  -0.6070000E+00   0.0000000E+00   0.0000000E+00   0.0000000E+00   0.0000000E+00
   0.2662980E+00  -0.1338772E+01  -0.6070000E+00   0.0000000E+00   0.0000000E+00   0.0000000E+00   0.0000000E+00
   0.5223630E+00  -0.1261096E+01  -0.6070000E+00   0.0000000E+00   0.0000000E+00   0.0000000E+00   0.0000000E+00
   0.7583530E+00  -0.1134956E+01  -0.6070000E+00   0.0000000E+00   0.0000000E+00   0.0000000E+00   0.0000000E+00
   0.9652010E+00  -0.9652010E+00  -0.6070000E+00   0.0000000E+00   0.0000000E+00   0.0000000E+00   0.0000000E+00
   0.1134956E+01  -0.7583530E+00  -0.6070000E+00   0.0000000E+00   0.0000000E+00   0.0000000E+00   0.0000000E+00
   0.1261096E+01  -0.5223630E+00  -0.6070000E+00   0.0000000E+00   0.0000000E+00   0.0000000E+00   0.0000000E+00
   0.1338772E+01  -0.2662980E+00  -0.6070000E+00   0.0000000E+00   0.0000000E+00   0.0000000E+00   0.0000000E+00
   0.1365000E+01   0.0000000E+00  -0.6070000E+00   0.0000000E+00   0.0000000E+00   0.0000000E+00   0.0000000E+00
   0.1338772E+01   0.2662980E+00  -0.6070000E+00   0.0000000E+00   0.0000000E+00   0.0000000E+00   0.0000000E+00
   0.1261096E+01   0.5223630E+00  -0.6070000E+00   0.0000000E+00   0.0000000E+00   0.0000000E+00   0.0000000E+00
   0.1134956E+01   0.7583530E+00  -0.6070000E+00   0.0000000E+00   0.0000000E+00   0.0000000E+00   0.0000000E+00
   0.9652010E+00   0.9652010E+00  -0.6070000E+00   0.0000000E+00   0.0000000E+00   0.0000000E+00   0.0000000E+00
   0.7583530E+00   0.1134956E+01  -0.6070000E+00   0.0000000E+00   0.0000000E+00   0.0000000E+00   0.0000000E+00
   0.5223630E+00   0.1261096E+01  -0.6070000E+00   0.0000000E+00   0.0000000E+00   0.0000000E+00   0.0000000E+00
   0.2662980E+00   0.1338772E+01  -0.6070000E+00   0.0000000E+00   0.0000000E+00   0.0000000E+00   0.0000000E+00
   0.0000000E+00   0.1365000E+01  -0.6070000E+00   0.0000000E+00   0.0000000E+00   0.0000000E+00   0.0000000E+00
  -0.2662980E+00   0.1338772E+01  -0.6070000E+00   0.0000000E+00   0.0000000E+00   0.0000000E+00   0.0000000E+00
  -0.5223630E+00   0.1261096E+01  -0.6070000E+00   0.0000000E+00   0.0000000E+00   0.0000000E+00   0.0000000E+00
  -0.7583530E+00   0.1134956E+01  -0.6070000E+00   0.0000000E+00   0.0000000E+00   0.0000000E+00   0.0000000E+00
  -0.9652010E+00   0.9652010E+00  -0.6070000E+00   0.0000000E+00   0.0000000E+00   0.0000000E+00   0.0000000E+00
  -0.1134956E+01   0.7583530E+00  -0.6070000E+00   0.0000000E+00   0.0000000E+00   0.0000000E+00   0.0000000E+00
  -0.1261096E+01   0.5223630E+00  -0.6070000E+00   0.0000000E+00   0.0000000E+00   0.0000000E+00   0.0000000E+00
  -0.1338772E+01   0.2662980E+00  -0.6070000E+00   0.0000000E+00   0.0000000E+00   0.0000000E+00   0.0000000E+00
   0.0000000E+00  -0.5490000E+01  -0.1570000E+00   0.0000000E+00   0.0000000E+00   0.0000000E+00   0.0000000E+00
  -0.1071046E+01  -0.5384511E+01  -0.1570000E+00   0.0000000E+00   0.0000000E+00   0.0000000E+00   0.0000000E+00
  -0.2100932E+01  -0.5072099E+01  -0.1570000E+00   0.0000000E+00   0.0000000E+00   0.0000000E+00   0.0000000E+00
  -0.3050081E+01  -0.4564768E+01  -0.1570000E+00   0.0000000E+00   0.0000000E+00   0.0000000E+00   0.0000000E+00
  -0.3882016E+01  -0.3882016E+01  -0.1570000E+00   0.0000000E+00   0.0000000E+00   0.0000000E+00   0.0000000E+00
  -0.4564768E+01  -0.3050081E+01  -0.1570000E+00   0.0000000E+00   0.0000000E+00   0.0000000E+00   0.0000000E+00
  -0.5072099E+01  -0.2100932E+01  -0.1570000E+00   0.0000000E+00   0.0000000E+00   0.0000000E+00   0.0000000E+00
  -0.5384511E+01  -0.1071046E+01  -0.1570000E+00   0.0000000E+00   0.0000000E+00   0.0000000E+00   0.0000000E+00
  -0.5490000E+01   0.0000000E+00  -0.1570000E+00   0.0000000E+00   0.0000000E+00   0.0000000E+00   0.0000000E+00
  -0.5384511E+01   0.1071046E+01  -0.1570000E+00   0.0000000E+00   0.0000000E+00   0.0000000E+00   0.0000000E+00
  -0.5072099E+01   0.2100932E+01  -0.1570000E+00   0.0000000E+00   0.0000000E+00   0.0000000E+00   0.0000000E+00
  -0.4564768E+01   0.3050081E+01  -0.1570000E+00   0.0000000E+00   0.0000000E+00   0.0000000E+00   0.0000000E+00
  -0.3882016E+01   0.3882016E+01  -0.1570000E+00   0.0000000E+00   0.0000000E+00   0.0000000E+00   0.0000000E+00
  -0.3050081E+01   0.4564768E+01  -0.1570000E+00   0.0000000E+00   0.0000000E+00   0.0000000E+00   0.0000000E+00
  -0.2100932E+01   0.5072099E+01  -0.1570000E+00   0.0000000E+00   0.0000000E+00   0.0000000E+00   0.0000000E+00
  -0.1071046E+01   0.5384511E+01  -0.1570000E+00   0.0000000E+00   0.0000000E+00   0.0000000E+00   0.0000000E+00
   0.0000000E+00   0.5490000E+01  -0.1570000E+00   0.0000000E+00   0.0000000E+00   0.0000000E+00   0.0000000E+00
   0.1071046E+01   0.5384511E+01  -0.1570000E+00   0.0000000E+00   0.0000000E+00   0.0000000E+00   0.0000000E+00
   0.2100932E+01   0.5072099E+01  -0.1570000E+00   0.0000000E+00   0.0000000E+00   0.0000000E+00   0.0000000E+00
   0.3050081E+01   0.4564768E+01  -0.1570000E+00   0.0000000E+00   0.0000000E+00   0.0000000E+00   0.0000000E+00
   0.3882016E+01   0.3882016E+01  -0.1570000E+00   0.0000000E+00   0.0000000E+00   0.0000000E+00   0.0000000E+00
   0.4564768E+01   0.3050081E+01  -0.1570000E+00   0.0000000E+00   0.0000000E+00   0.0000000E+00   0.0000000E+00
   0.5072099E+01   0.2100932E+01  -0.1570000E+00   0.0000000E+00   0.0000000E+00   0.0000000E+00   0.0000000E+00
   0.5384511E+01   0.1071046E+01  -0.1570000E+00   0.0000000E+00   0.0000000E+00   0.0000000E+00   0.0000000E+00
   0.5490000E+01   0.0000000E+00  -0.1570000E+00   0.0000000E+00   0.0000000E+00   0.0000000E+00   0.0000000E+00
   0.5384511E+01  -0.1071046E+01  -0.1570000E+00   0.0000000E+00   0.0000000E+00   0.0000000E+00   0.0000000E+00
   0.5072099E+01  -0.2100932E+01  -0.1570000E+00   0.0000000E+00   0.0000000E+00   0.0000000E+00   0.0000000E+00
   0.4564768E+01  -0.3050081E+01  -0.1570000E+00   0.0000000E+00   0.0000000E+00   0.0000000E+00   0.0000000E+00
   0.3882016E+01  -0.3882016E+01  -0.1570000E+00   0.0000000E+00   0.0000000E+00   0.0000000E+00   0.0000000E+00
   0.3050081E+01  -0.4564768E+01  -0.1570000E+00   0.0000000E+00   0.0000000E+00   0.0000000E+00   0.0000000E+00
   0.2100932E+01  -0.5072099E+01  -0.1570000E+00   0.0000000E+00   0.0000000E+00   0.0000000E+00   0.0000000E+00
   0.1071046E+01  -0.5384511E+01  -0.1570000E+00   0.0000000E+00   0.0000000E+00   0.0000000E+00   0.0000000E+00
   0.0000000E+00  -0.1877100E+01  -0.6070000E+00   0.0000000E+00   0.0000000E+00   0.0000000E+00   0.0000000E+00
  -0.3662040E+00  -0.1841032E+01  -0.6070000E+00   0.0000000E+00   0.0000000E+00   0.0000000E+00   0.0000000E+00
  -0.7183350E+00  -0.1734214E+01  -0.6070000E+00   0.0000000E+00   0.0000000E+00   0.0000000E+00   0.0000000E+00
  -0.1042861E+01  -0.1560752E+01  -0.6070000E+00   0.0000000E+00   0.0000000E+00   0.0000000E+00   0.0000000E+00
  -0.1327310E+01  -0.1327310E+01  -0.6070000E+00   0.0000000E+00   0.0000000E+00   0.0000000E+00   0.0000000E+00
  -0.1560752E+01  -0.1042861E+01  -0.6070000E+00   0.0000000E+00   0.0000000E+00   0.0000000E+00   0.0000000E+00
  -0.1734214E+01  -0.7183350E+00  -0.6070000E+00   0.0000000E+00   0.0000000E+00   0.0000000E+00   0.0000000E+00
  -0.1841032E+01  -0.3662040E+00  -0.6070000E+00   0.0000000E+00   0.0000000E+00   0.0000000E+00   0.0000000E+00
  -0.1877100E+01   0.0000000E+00  -0.6070000E+00   0.0000000E+00   0.0000000E+00   0.0000000E+00   0.0000000E+00
  -0.1841032E+01   0.3662040E+00  -0.6070000E+00   0.0000000E+00   0.0000000E+00   0.0000000E+00   0.0000000E+00
  -0.1734214E+01   0.7183350E+00  -0.6070000E+00   0.0000000E+00   0.0000000E+00   0.0000000E+00   0.0000000E+00
  -0.1560752E+01   0.1042861E+01  -0.6070000E+00   0.0000000E+00   0.0000000E+00   0.0000000E+00   0.0000000E+00
  -0.1327310E+01   0.1327310E+01  -0.6070000E+00   0.0000000E+00   0.0000000E+00   0.0000000E+00   0.0000000E+00
  -0.1042861E+01   0.1560752E+01  -0.6070000E+00   0.0000000E+00   0.0000000E+00   0.0000000E+00   0.0000000E+00
  -0.7183350E+00   0.1734214E+01  -0.6070000E+00   0.0000000E+00   0.0000000E+00   0.0000000E+00   0.0000000E+00
  -0.3662040E+00   0.1841032E+01  -0.6070000E+00   0.0000000E+00   0.0000000E+00   0.0000000E+00   0.0000000E+00
   0.0000000E+00   0.1877100E+01  -0.6070000E+00   0.0000000E+00   0.0000000E+00   0.0000000E+00   0.0000000E+00
   0.3662040E+00   0.1841032E+01  -0.6070000E+00   0.0000000E+00   0.0000000E+00   0.0000000E+00   0.0000000E+00
   0.7183350E+00   0.1734214E+01  -0.6070000E+00   0.0000000E+00   0.0000000E+00   0.0000000E+00   0.0000000E+00
   0.1042861E+01   0.1560752E+01  -0.6070000E+00   0.0000000E+00   0.0000000E+00   0.0000000E+00   0.0000000E+00
   0.1327310E+01   0.1327310E+01  -0.6070000E+00   0.0000000E+00   0.0000000E+00   0.0000000E+00   0.0000000E+00
   0.1560752E+01   0.1042861E+01  -0.6070000E+00   0.0000000E+00   0.0000000E+00   0.0000000E+00   0.0000000E+00
   0.1734214E+01   0.7183350E+00  -0.6070000E+00   0.0000000E+00   0.0000000E+00   0.0000000E+00   0.0000000E+00
   0.1841032E+01   0.3662040E+00  -0.6070000E+00   0.0000000E+00   0.0000000E+00   0.0000000E+00   0.0000000E+00
   0.1877100E+01   0.0000000E+00  -0.6070000E+00   0.0000000E+00   0.0000000E+00   0.0000000E+00   0.0000000E+00
   0.1841032E+01  -0.3662040E+00  -0.6070000E+00   0.0000000E+00   0.0000000E+00   0.0000000E+00   0.0000000E+00
   0.1734214E+01  -0.7183350E+00  -0.6070000E+00   0.0000000E+00   0.0000000E+00   0.0000000E+00   0.0000000E+00
   0.1560752E+01  -0.1042861E+01  -0.6070000E+00   0.0000000E+00   0.0000000E+00   0.0000000E+00   0.0000000E+00
   0.1327310E+01  -0.1327310E+01  -0.6070000E+00   0.0000000E+00   0.0000000E+00   0.0000000E+00   0.0000000E+00
   0.1042861E+01  -0.1560752E+01  -0.6070000E+00   0.0000000E+00   0.0000000E+00   0.0000000E+00   0.0000000E+00
   0.7183350E+00  -0.1734214E+01  -0.6070000E+00   0.0000000E+00   0.0000000E+00   0.0000000E+00   0.0000000E+00
   0.3662040E+00  -0.1841032E+01  -0.6070000E+00   0.0000000E+00   0.0000000E+00   0.0000000E+00   0.0000000E+00
   0.0000000E+00  -0.1365000E+01  -0.6070000E+00   0.0000000E+00   0.0000000E+00   0.0000000E+00   0.0000000E+00
  -0.2662980E+00  -0.1338772E+01  -0.6070000E+00   0.0000000E+00   0.0000000E+00   0.0000000E+00   0.0000000E+00
  -0.5223630E+00  -0.1261096E+01  -0.6070000E+00   0.0000000E+00   0.0000000E+00   0.0000000E+00   0.0000000E+00
  -0.7583530E+00  -0.1134956E+01  -0.6070000E+00   0.0000000E+00   0.0000000E+00   0.0000000E+00   0.0000000E+00
  -0.9652010E+00  -0.9652010E+00  -0.6070000E+00   0.0000000E+00   0.0000000E+00   0.0000000E+00   0.0000000E+00
  -0.1134956E+01  -0.7583530E+00  -0.6070000E+00   0.0000000E+00   0.0000000E+00   0.0000000E+00   0.0000000E+00
  -0.1261096E+01  -0.5223630E+00  -0.6070000E+00   0.0000000E+00   0.0000000E+00   0.0000000E+00   0.0000000E+00
  -0.1338772E+01  -0.2662980E+00  -0.6070000E+00   0.0000000E+00   0.0000000E+00   0.0000000E+00   0.0000000E+00
  -0.1365000E+01   0.0000000E+00  -0.6070000E+00   0.0000000E+00   0.0000000E+00   0.0000000E+00   0.0000000E+00
  -0.1338772E+01   0.2662980E+00  -0.6070000E+00   0.0000000E+00   0.0000000E+00   0.0000000E+00   0.0000000E+00
  -0.1261096E+01   0.5223630E+00  -0.6070000E+00   0.0000000E+00   0.0000000E+00   0.0000000E+00   0.0000000E+00
  -0.1134956E+01   0.7583530E+00  -0.6070000E+00   0.0000000E+00   0.0000000E+00   0.0000000E+00   0.0000000E+00
  -0.9652010E+00   0.9652010E+00  -0.6070000E+00   0.0000000E+00   0.0000000E+00   0.0000000E+00   0.0000000E+00
  -0.7583530E+00   0.1134956E+01  -0.6070000E+00   0.0000000E+00   0.0000000E+00   0.0000000E+00   0.0000000E+00
  -0.5223630E+00   0.1261096E+01  -0.6070000E+00   0.0000000E+00   0.0000000E+00   0.0000000E+00   0.0000000E+00
  -0.2662980E+00   0.1338772E+01  -0.6070000E+00   0.0000000E+00   0.0000000E+00   0.0000000E+00   0.0000000E+00
   0.0000000E+00   0.1365000E+01  -0.6070000E+00   0.0000000E+00   0.0000000E+00   0.0000000E+00   0.0000000E+00
   0.2662980E+00   0.1338772E+01  -0.6070000E+00   0.0000000E+00   0.0000000E+00   0.0000000E+00   0.0000000E+00
   0.5223630E+00   0.1261096E+01  -0.6070000E+00   0.0000000E+00   0.0000000E+00   0.0000000E+00   0.0000000E+00
   0.7583530E+00   0.1134956E+01  -0.6070000E+00   0.0000000E+00   0.0000000E+00   0.0000000E+00   0.0000000E+00
   0.9652010E+00   0.9652010E+00  -0.6070000E+00   0.0000000E+00   0.0000000E+00   0.0000000E+00   0.0000000E+00
   0.1134956E+01   0.7583530E+00  -0.6070000E+00   0.0000000E+00   0.0000000E+00   0.0000000E+00   0.0000000E+00
   0.1261096E+01   0.5223630E+00  -0.6070000E+00   0.0000000E+00   0.0000000E+00   0.0000000E+00   0.0000000E+00
   0.1338772E+01   0.2662980E+00  -0.6070000E+00   0.0000000E+00   0.0000000E+00   0.0000000E+00   0.0000000E+00
   0.1365000E+01   0.0000000E+00  -0.6070000E+00   0.0000000E+00   0.0000000E+00   0.0000000E+00   0.0000000E+00
   0.1338772E+01  -0.2662980E+00  -0.6070000E+00   0.0000000E+00   0.0000000E+00   0.0000000E+00   0.0000000E+00
   0.1261096E+01  -0.5223630E+00  -0.6070000E+00   0.0000000E+00   0.0000000E+00   0.0000000E+00   0.0000000E+00
   0.1134956E+01  -0.7583530E+00  -0.6070000E+00   0.0000000E+00   0.0000000E+00   0.0000000E+00   0.0000000E+00
   0.9652010E+00  -0.9652010E+00  -0.6070000E+00   0.0000000E+00   0.0000000E+00   0.0000000E+00   0.0000000E+00
   0.7583530E+00  -0.1134956E+01  -0.6070000E+00   0.0000000E+00   0.0000000E+00   0.0000000E+00   0.0000000E+00
   0.5223630E+00  -0.1261096E+01  -0.6070000E+00   0.0000000E+00   0.0000000E+00   0.0000000E+00   0.0000000E+00
   0.2662980E+00  -0.1338772E+01  -0.6070000E+00   0.0000000E+00   0.0000000E+00   0.0000000E+00   0.0000000E+00
   0.0000000E+00  -0.4767420E+01  -0.2470000E+00   0.0000000E+00   0.0000000E+00   0.0000000E+00   0.0000000E+00
   0.0000000E+00  -0.4044840E+01  -0.3370000E+00   0.0000000E+00   0.0000000E+00   0.0000000E+00   0.0000000E+00
   0.0000000E+00  -0.3322260E+01  -0.4270000E+00   0.0000000E+00   0.0000000E+00   0.0000000E+00   0.0000000E+00
   0.0000000E+00  -0.2599680E+01  -0.5170000E+00   0.0000000E+00   0.0000000E+00   0.0000000E+00   0.0000000E+00
  -0.9300770E+00  -0.4675816E+01  -0.2470000E+00   0.0000000E+00   0.0000000E+00   0.0000000E+00   0.0000000E+00
  -0.7891090E+00  -0.3967119E+01  -0.3370000E+00   0.0000000E+00   0.0000000E+00   0.0000000E+00   0.0000000E+00
  -0.6481410E+00  -0.3258424E+01  -0.4270000E+00   0.0000000E+00   0.0000000E+00   0.0000000E+00   0.0000000E+00
  -0.5071720E+00  -0.2549728E+01  -0.5170000E+00   0.0000000E+00   0.0000000E+00   0.0000000E+00   0.0000000E+00
  -0.1824413E+01  -0.4404522E+01  -0.2470000E+00   0.0000000E+00   0.0000000E+00   0.0000000E+00   0.0000000E+00
  -0.1547893E+01  -0.3736945E+01  -0.3370000E+00   0.0000000E+00   0.0000000E+00   0.0000000E+00   0.0000000E+00
  -0.1271374E+01  -0.3069368E+01  -0.4270000E+00   0.0000000E+00   0.0000000E+00   0.0000000E+00   0.0000000E+00
  -0.9948540E+00  -0.2401791E+01  -0.5170000E+00   0.0000000E+00   0.0000000E+00   0.0000000E+00   0.0000000E+00
  -0.2648637E+01  -0.3963965E+01  -0.2470000E+00   0.0000000E+00   0.0000000E+00   0.0000000E+00   0.0000000E+00
  -0.2247193E+01  -0.3363162E+01  -0.3370000E+00   0.0000000E+00   0.0000000E+00   0.0000000E+00   0.0000000E+00
  -0.1845749E+01  -0.2762358E+01  -0.4270000E+00   0.0000000E+00   0.0000000E+00   0.0000000E+00   0.0000000E+00
  -0.1444305E+01  -0.2161555E+01  -0.5170000E+00   0.0000000E+00   0.0000000E+00   0.0000000E+00   0.0000000E+00
  -0.3371075E+01  -0.3371075E+01  -0.2470000E+00   0.0000000E+00   0.0000000E+00   0.0000000E+00   0.0000000E+00
  -0.2860134E+01  -0.2860134E+01  -0.3370000E+00   0.0000000E+00   0.0000000E+00   0.0000000E+00   0.0000000E+00
  -0.2349193E+01  -0.2349193E+01  -0.4270000E+00   0.0000000E+00   0.0000000E+00   0.0000000E+00   0.0000000E+00
  -0.1838251E+01  -0.1838251E+01  -0.5170000E+00   0.0000000E+00   0.0000000E+00   0.0000000E+00   0.0000000E+00
  -0.3963965E+01  -0.2648637E+01  -0.2470000E+00   0.0000000E+00   0.0000000E+00   0.0000000E+00   0.0000000E+00
  -0.3363162E+01  -0.2247193E+01  -0.3370000E+00   0.0000000E+00   0.0000000E+00   0.0000000E+00   0.0000000E+00
  -0.2762358E+01  -0.1845749E+01  -0.4270000E+00   0.0000000E+00   0.0000000E+00   0.0000000E+00   0.0000000E+00
  -0.2161555E+01  -0.1444305E+01  -0.5170000E+00   0.0000000E+00   0.0000000E+00   0.0000000E+00   0.0000000E+00
  -0.4404522E+01  -0.1824413E+01  -0.2470000E+00   0.0000000E+00   0.0000000E+00   0.0000000E+00   0.0000000E+00
  -0.3736945E+01  -0.1547893E+01  -0.3370000E+00   0.0000000E+00   0.0000000E+00   0.0000000E+00   0.0000000E+00
  -0.3069368E+01  -0.1271374E+01  -0.4270000E+00   0.0000000E+00   0.0000000E+00   0.0000000E+00   0.0000000E+00
  -0.2401791E+01  -0.9948540E+00  -0.5170000E+00   0.0000000E+00   0.0000000E+00   0.0000000E+00   0.0000000E+00
  -0.4675816E+01  -0.9300770E+00  -0.2470000E+00   0.0000000E+00   0.0000000E+00   0.0000000E+00   0.0000000E+00
  -0.3967119E+01  -0.7891090E+00  -0.3370000E+00   0.0000000E+00   0.0000000E+00   0.0000000E+00   0.0000000E+00
  -0.3258424E+01  -0.6481410E+00  -0.4270000E+00   0.0000000E+00   0.0000000E+00   0.0000000E+00   0.0000000E+00
  -0.2549728E+01  -0.5071720E+00  -0.5170000E+00   0.0000000E+00   0.0000000E+00   0.0000000E+00   0.0000000E+00
  -0.4767420E+01   0.0000000E+00  -0.2470000E+00   0.0000000E+00   0.0000000E+00   0.0000000E+00   0.0000000E+00
  -0.4044840E+01   0.0000000E+00  -0.3370000E+00   0.0000000E+00   0.0000000E+00   0.0000000E+00   0.0000000E+00
  -0.3322260E+01   0.0000000E+00  -0.4270000E+00   0.0000000E+00   0.0000000E+00   0.0000000E+00   0.0000000E+00
  -0.2599680E+01   0.0000000E+00  -0.5170000E+00   0.0000000E+00   0.0000000E+00   0.0000000E+00   0.0000000E+00
  -0.4675816E+01   0.9300770E+00  -0.2470000E+00   0.0000000E+00   0.0000000E+00   0.0000000E+00   0.0000000E+00
  -0.3967119E+01   0.7891090E+00  -0.3370000E+00   0.0000000E+00   0.0000000E+00   0.0000000E+00   0.0000000E+00
  -0.3258424E+01   0.6481410E+00  -0.4270000E+00   0.0000000E+00   0.0000000E+00   0.0000000E+00   0.0000000E+00
  -0.2549728E+01   0.5071720E+00  -0.5170000E+00   0.0000000E+00   0.0000000E+00   0.0000000E+00   0.0000000E+00
  -0.4404522E+01   0.1824413E+01  -0.2470000E+00   0.0000000E+00   0.0000000E+00   0.0000000E+00   0.0000000E+00
  -0.3736945E+01   0.1547893E+01  -0.3370000E+00   0.0000000E+00   0.0000000E+00   0.0000000E+00   0.0000000E+00
  -0.3069368E+01   0.1271374E+01  -0.4270000E+00   0.0000000E+00   0.0000000E+00   0.0000000E+00   0.0000000E+00
  -0.2401791E+01   0.9948540E+00  -0.5170000E+00   0.0000000E+00   0.0000000E+00   0.0000000E+00   0.0000000E+00
  -0.3963965E+01   0.2648637E+01  -0.2470000E+00   0.0000000E+00   0.0000000E+00   0.0000000E+00   0.0000000E+00
  -0.3363162E+01   0.2247193E+01  -0.3370000E+00   0.0000000E+00   0.0000000E+00   0.0000000E+00   0.0000000E+00
  -0.2762358E+01   0.1845749E+01  -0.4270000E+00   0.0000000E+00   0.0000000E+00   0.0000000E+00   0.0000000E+00
  -0.2161555E+01   0.1444305E+01  -0.5170000E+00   0.0000000E+00   0.0000000E+00   0.0000000E+00   0.0000000E+00
  -0.3371075E+01   0.3371075E+01  -0.2470000E+00   0.0000000E+00   0.0000000E+00   0.0000000E+00   0.0000000E+00
  -0.2860134E+01   0.2860134E+01  -0.3370000E+00   0.0000000E+00   0.0000000E+00   0.0000000E+00   0.0000000E+00
  -0.2349193E+01   0.2349193E+01  -0.4270000E+00   0.0000000E+00   0.0000000E+00   0.0000000E+00   0.0000000E+00
  -0.1838251E+01   0.1838251E+01  -0.5170000E+00   0.0000000E+00   0.0000000E+00   0.0000000E+00   0.0000000E+00
  -0.2648637E+01   0.3963965E+01  -0.2470000E+00   0.0000000E+00   0.0000000E+00   0.0000000E+00   0.0000000E+00
  -0.2247193E+01   0.3363162E+01  -0.3370000E+00   0.0000000E+00   0.0000000E+00   0.0000000E+00   0.0000000E+00
  -0.1845749E+01   0.2762358E+01  -0.4270000E+00   0.0000000E+00   0.0000000E+00   0.0000000E+00   0.0000000E+00
  -0.1444305E+01   0.2161555E+01  -0.5170000E+00   0.0000000E+00   0.0000000E+00   0.0000000E+00   0.0000000E+00
  -0.1824413E+01   0.4404522E+01  -0.2470000E+00   0.0000000E+00   0.0000000E+00   0.0000000E+00   0.0000000E+00
  -0.1547893E+01   0.3736945E+01  -0.3370000E+00   0.0000000E+00   0.0000000E+00   0.0000000E+00   0.0000000E+00
  -0.1271374E+01   0.3069368E+01  -0.4270000E+00   0.0000000E+00   0.0000000E+00   0.0000000E+00   0.0000000E+00
  -0.9948540E+00   0.2401791E+01  -0.5170000E+00   0.0000000E+00   0.0000000E+00   0.0000000E+00   0.0000000E+00
  -0.9300770E+00   0.4675816E+01  -0.2470000E+00   0.0000000E+00   0.0000000E+00   0.0000000E+00   0.0000000E+00
  -0.7891090E+00   0.3967119E+01  -0.3370000E+00   0.0000000E+00   0.0000000E+00   0.0000000E+00   0.0000000E+00
  -0.6481410E+00   0.3258424E+01  -0.4270000E+00   0.0000000E+00   0.0000000E+00   0.0000000E+00   0.0000000E+00
  -0.5071720E+00   0.2549728E+01  -0.5170000E+00   0.0000000E+00   0.0000000E+00   0.0000000E+00   0.0000000E+00
   0.0000000E+00   0.4767420E+01  -0.2470000E+00   0.0000000E+00   0.0000000E+00   0.0000000E+00   0.0000000E+00
   0.0000000E+00   0.4044840E+01  -0.3370000E+00   0.0000000E+00   0.0000000E+00   0.0000000E+00   0.0000000E+00
   0.0000000E+00   0.3322260E+01  -0.4270000E+00   0.0000000E+00   0.0000000E+00   0.0000000E+00   0.0000000E+00
   0.0000000E+00   0.2599680E+01  -0.5170000E+00   0.0000000E+00   0.0000000E+00   0.0000000E+00   0.0000000E+00
   0.9300770E+00   0.4675816E+01  -0.2470000E+00   0.0000000E+00   0.0000000E+00   0.0000000E+00   0.0000000E+00
   0.7891090E+00   0.3967119E+01  -0.3370000E+00   0.0000000E+00   0.0000000E+00   0.0000000E+00   0.0000000E+00
   0.6481410E+00   0.3258424E+01  -0.4270000E+00   0.0000000E+00   0.0000000E+00   0.0000000E+00   0.0000000E+00
   0.5071720E+00   0.2549728E+01  -0.5170000E+00   0.0000000E+00   0.0000000E+00   0.0000000E+00   0.0000000E+00
   0.1824413E+01   0.4404522E+01  -0.2470000E+00   0.0000000E+00   0.0000000E+00   0.0000000E+00   0.0000000E+00
   0.1547893E+01   0.3736945E+01  -0.3370000E+00   0.0000000E+00   0.0000000E+00   0.0000000E+00   0.0000000E+00
   0.1271374E+01   0.3069368E+01  -0.4270000E+00   0.0000000E+00   0.0000000E+00   0.0000000E+00   0.0000000E+00
   0.9948540E+00   0.2401791E+01  -0.5170000E+00   0.0000000E+00   0.0000000E+00   0.0000000E+00   0.0000000E+00
   0.2648637E+01   0.3963965E+01  -0.2470000E+00   0.0000000E+00   0.0000000E+00   0.0000000E+00   0.0000000E+00
   0.2247193E+01   0.3363162E+01  -0.3370000E+00   0.0000000E+00   0.0000000E+00   0.0000000E+00   0.0000000E+00
   0.1845749E+01   0.2762358E+01  -0.4270000E+00   0.0000000E+00   0.0000000E+00   0.0000000E+00   0.0000000E+00
   0.1444305E+01   0.2161555E+01  -0.5170000E+00   0.0000000E+00   0.0000000E+00   0.0000000E+00   0.0000000E+00
   0.3371075E+01   0.3371075E+01  -0.2470000E+00   0.0000000E+00   0.0000000E+00   0.0000000E+00   0.0000000E+00
   0.2860134E+01   0.2860134E+01  -0.3370000E+00   0.0000000E+00   0.0000000E+00   0.0000000E+00   0.0000000E+00
   0.2349193E+01   0.2349193E+01  -0.4270000E+00   0.0000000E+00   0.0000000E+00   0.0000000E+00   0.0000000E+00
   0.1838251E+01   0.1838251E+01  -0.5170000E+00   0.0000000E+00   0.0000000E+00   0.0000000E+00   0.0000000E+00
   0.3963965E+01   0.2648637E+01  -0.2470000E+00   0.0000000E+00   0.0000000E+00   0.0000000E+00   0.0000000E+00
   0.3363162E+01   0.2247193E+01  -0.3370000E+00   0.0000000E+00   0.0000000E+00   0.0000000E+00   0.0000000E+00
   0.2762358E+01   0.1845749E+01  -0.4270000E+00   0.0000000E+00   0.0000000E+00   0.0000000E+00   0.0000000E+00
   0.2161555E+01   0.1444305E+01  -0.5170000E+00   0.0000000E+00   0.0000000E+00   0.0000000E+00   0.0000000E+00
   0.4404522E+01   0.1824413E+01  -0.2470000E+00   0.0000000E+00   0.0000000E+00   0.0000000E+00   0.0000000E+00
   0.3736945E+01   0.1547893E+01  -0.3370000E+00   0.0000000E+00   0.0000000E+00   0.0000000E+00   0.0000000E+00
   0.3069368E+01   0.1271374E+01  -0.4270000E+00   0.0000000E+00   0.0000000E+00   0.0000000E+00   0.0000000E+00
   0.2401791E+01   0.9948540E+00  -0.5170000E+00   0.0000000E+00   0.0000000E+00   0.0000000E+00   0.0000000E+00
   0.4675816E+01   0.9300770E+00  -0.2470000E+00   0.0000000E+00   0.0000000E+00   0.0000000E+00   0.0000000E+00
   0.3967119E+01   0.7891090E+00  -0.3370000E+00   0.0000000E+00   0.0000000E+00   0.0000000E+00   0.0000000E+00
   0.3258424E+01   0.6481410E+00  -0.4270000E+00   0.0000000E+00   0.0000000E+00   0.0000000E+00   0.0000000E+00
   0.2549728E+01   0.5071720E+00  -0.5170000E+00   0.0000000E+00   0.0000000E+00   0.0000000E+00   0.0000000E+00
   0.4767420E+01   0.0000000E+00  -0.2470000E+00   0.0000000E+00   0.0000000E+00   0.0000000E+00   0.0000000E+00
   0.4044840E+01   0.0000000E+00  -0.3370000E+00   0.0000000E+00   0.0000000E+00   0.0000000E+00   0.0000000E+00
   0.3322260E+01   0.0000000E+00  -0.4270000E+00   0.0000000E+00   0.0000000E+00   0.0000000E+00   0.0000000E+00
   0.2599680E+01   0.0000000E+00  -0.5170000E+00   0.0000000E+00   0.0000000E+00   0.0000000E+00   0.0000000E+00
   0.4675816E+01  -0.9300770E+00  -0.2470000E+00   0.0000000E+00   0.0000000E+00   0.0000000E+00   0.0000000E+00
   0.3967119E+01  -0.7891090E+00  -0.3370000E+00   0.0000000E+00   0.0000000E+00   0.0000000E+00   0.0000000E+00
   0.3258424E+01  -0.6481410E+00  -0.4270000E+00   0.0000000E+00   0.0000000E+00   0.0000000E+00   0.0000000E+00
   0.2549728E+01  -0.5071720E+00  -0.5170000E+00   0.0000000E+00   0.0000000E+00   0.0000000E+00   0.0000000E+00
   0.4404522E+01  -0.1824413E+01  -0.2470000E+00   0.0000000E+00   0.0000000E+00   0.0000000E+00   0.0000000E+00
   0.3736945E+01  -0.1547893E+01  -0.3370000E+00   0.0000000E+00   0.0000000E+00   0.0000000E+00   0.0000000E+00
   0.3069368E+01  -0.1271374E+01  -0.4270000E+00   0.0000000E+00   0.0000000E+00   0.0000000E+00   0.0000000E+00
   0.2401791E+01  -0.9948540E+00  -0.5170000E+00   0.0000000E+00   0.0000000E+00   0.0000000E+00   0.0000000E+00
   0.3963965E+01  -0.2648637E+01  -0.2470000E+00   0.0000000E+00   0.0000000E+00   0.0000000E+00   0.0000000E+00
   0.3363162E+01  -0.2247193E+01  -0.3370000E+00   0.0000000E+00   0.0000000E+00   0.0000000E+00   0.0000000E+00
   0.2762358E+01  -0.1845749E+01  -0.4270000E+00   0.0000000E+00   0.0000000E+00   0.0000000E+00   0.0000000E+00
   0.2161555E+01  -0.1444305E+01  -0.5170000E+00   0.0000000E+00   0.0000000E+00   0.0000000E+00   0.0000000E+00
   0.3371075E+01  -0.3371075E+01  -0.2470000E+00   0.0000000E+00   0.0000000E+00   0.0000000E+00   0.0000000E+00
   0.2860134E+01  -0.2860134E+01  -0.3370000E+00   0.0000000E+00   0.0000000E+00   0.0000000E+00   0.0000000E+00
   0.2349193E+01  -0.2349193E+01  -0.4270000E+00   0.0000000E+00   0.0000000E+00   0.0000000E+00   0.0000000E+00
   0.1838251E+01  -0.1838251E+01  -0.5170000E+00   0.0000000E+00   0.0000000E+00   0.0000000E+00   0.0000000E+00
   0.2648637E+01  -0.3963965E+01  -0.2470000E+00   0.0000000E+00   0.0000000E+00   0.0000000E+00   0.0000000E+00
   0.2247193E+01  -0.3363162E+01  -0.3370000E+00   0.0000000E+00   0.0000000E+00   0.0000000E+00   0.0000000E+00
   0.1845749E+01  -0.2762358E+01  -0.4270000E+00   0.0000000E+00   0.0000000E+00   0.0000000E+00   0.0000000E+00
   0.1444305E+01  -0.2161555E+01  -0.5170000E+00   0.0000000E+00   0.0000000E+00   0.0000000E+00   0.0000000E+00
   0.1824413E+01  -0.4404522E+01  -0.2470000E+00   0.0000000E+00   0.0000000E+00   0.0000000E+00   0.0000000E+00
   0.1547893E+01  -0.3736945E+01  -0.3370000E+00   0.0000000E+00   0.0000000E+00   0.0000000E+00   0.0000000E+00
   0.1271374E+01  -0.3069368E+01  -0.4270000E+00   0.0000000E+00   0.0000000E+00   0.0000000E+00   0.0000000E+00
   0.9948540E+00  -0.2401791E+01  -0.5170000E+00   0.0000000E+00   0.0000000E+00   0.0000000E+00   0.0000000E+00
   0.9300770E+00  -0.4675816E+01  -0.2470000E+00   0.0000000E+00   0.0000000E+00   0.0000000E+00   0.0000000E+00
   0.7891090E+00  -0.3967119E+01  -0.3370000E+00   0.0000000E+00   0.0000000E+00   0.0000000E+00   0.0000000E+00
   0.6481410E+00  -0.3258424E+01  -0.4270000E+00   0.0000000E+00   0.0000000E+00   0.0000000E+00   0.0000000E+00
   0.5071720E+00  -0.2549728E+01  -0.5170000E+00   0.0000000E+00   0.0000000E+00   0.0000000E+00   0.0000000E+00
  -0.1348063E+01  -0.1719610E+00   0.0000000E+00   0.0000000E+00   0.0000000E+00   0.0000000E+00   0.0000000E+00
  -0.1365000E+01   0.0000000E+00   0.0000000E+00   0.0000000E+00   0.0000000E+00   0.0000000E+00   0.0000000E+00
  -0.1338772E+01  -0.2662980E+00   0.0000000E+00   0.0000000E+00   0.0000000E+00   0.0000000E+00   0.0000000E+00
  -0.1288613E+01  -0.4316510E+00   0.0000000E+00   0.0000000E+00   0.0000000E+00   0.0000000E+00   0.0000000E+00
  -0.1261096E+01  -0.5223630E+00   0.0000000E+00   0.0000000E+00   0.0000000E+00   0.0000000E+00   0.0000000E+00
  -0.1179642E+01  -0.6747520E+00   0.0000000E+00   0.0000000E+00   0.0000000E+00   0.0000000E+00   0.0000000E+00
  -0.1134956E+01  -0.7583530E+00   0.0000000E+00   0.0000000E+00   0.0000000E+00   0.0000000E+00   0.0000000E+00
  -0.1025337E+01  -0.8919240E+00   0.0000000E+00   0.0000000E+00   0.0000000E+00   0.0000000E+00   0.0000000E+00