 VARIABLES="X" "Y" "Z" "abs(p) (Pa)" "angle(p) (rad)"
ZONE N=   2709,E =    2358, F=FEPOINT, ET=QUADRILATERAL
   0.00000000      -5.48999977     -0.157000005       28.2234306      -1.41252065    
   0.00000000      -4.76741982     -0.246999994       28.2234306      -1.41252065    
  0.930077016      -4.67581606     -0.246999994       28.2234306      -1.41252065    
   1.07104599      -5.38451099     -0.157000005       28.2234306      -1.41252065    
  -1.07104599      -5.38451099     -0.157000005       29.1991291       1.73445737    
 -0.930077016      -4.67581606     -0.246999994       29.1991291       1.73445737    
   0.00000000      -4.76741982     -0.246999994       29.1991291       1.73445737    
   0.00000000      -5.48999977     -0.157000005       29.1991291       1.73445737    
  -2.10093188      -5.07209921     -0.157000005       83.7332077       1.69940305    
  -1.82441294      -4.40452194     -0.246999994       83.7332077       1.69940305    
 -0.930077016      -4.67581606     -0.246999994       83.7332077       1.69940305    
  -1.07104599      -5.38451099     -0.157000005       83.7332077       1.69940305    
  -3.05008101      -4.56476784     -0.157000005       118.672325       1.69572544    
  -2.64863706      -3.96396494     -0.246999994       118.672325       1.69572544    
  -1.82441294      -4.40452194     -0.246999994       118.672325       1.69572544    
  -2.10093188      -5.07209921     -0.157000005       118.672325       1.69572544    
  -3.88201594      -3.88201594     -0.157000005       154.623245       1.68985963    
  -3.37107491      -3.37107491     -0.246999994       154.623245       1.68985963    
  -2.64863706      -3.96396494     -0.246999994       154.623245       1.68985963    
  -3.05008101      -4.56476784     -0.157000005       154.623245       1.68985963    
  -4.56476784      -3.05008101     -0.157000005       197.102753       1.68676770    
  -3.96396494      -2.64863706     -0.246999994       197.102753       1.68676770    
  -3.37107491      -3.37107491     -0.246999994       197.102753       1.68676770    
  -3.88201594      -3.88201594     -0.157000005       197.102753       1.68676770    
  -5.07209921      -2.10093188     -0.157000005       221.086533       1.70251024    
  -4.40452194      -1.82441294     -0.246999994       221.086533       1.70251024    
  -3.96396494      -2.64863706     -0.246999994       221.086533       1.70251024    
  -4.56476784      -3.05008101     -0.157000005       221.086533       1.70251024    
  -5.38451099      -1.07104599     -0.157000005       242.612823       1.69732869    
  -4.67581606     -0.930077016     -0.246999994       242.612823       1.69732869    
  -4.40452194      -1.82441294     -0.246999994       242.612823       1.69732869    
  -5.07209921      -2.10093188     -0.157000005       242.612823       1.69732869    
  -5.48999977       0.00000000     -0.157000005       258.854279       1.67856038    
  -4.76741982       0.00000000     -0.246999994       258.854279       1.67856038    
  -4.67581606     -0.930077016     -0.246999994       258.854279       1.67856038    
  -5.38451099      -1.07104599     -0.157000005       258.854279       1.67856038    
  -5.38451099       1.07104599     -0.157000005       261.608856       1.67474926    
  -4.67581606      0.930077016     -0.246999994       261.608856       1.67474926    
  -4.76741982       0.00000000     -0.246999994       261.608856       1.67474926    
  -5.48999977       0.00000000     -0.157000005       261.608856       1.67474926    
  -5.07209921       2.10093188     -0.157000005       257.980927       1.67643976    
  -4.40452194       1.82441294     -0.246999994       257.980927       1.67643976    
  -4.67581606      0.930077016     -0.246999994       257.980927       1.67643976    
  -5.38451099       1.07104599     -0.157000005       257.980927       1.67643976    
  -4.56476784       3.05008101     -0.157000005       235.198029       1.67836404    
  -3.96396494       2.64863706     -0.246999994       235.198029       1.67836404    
  -4.40452194       1.82441294     -0.246999994       235.198029       1.67836404    
  -5.07209921       2.10093188     -0.157000005       235.198029       1.67836404    
  -3.88201594       3.88201594     -0.157000005       194.630783       1.68289816    
  -3.37107491       3.37107491     -0.246999994       194.630783       1.68289816    
  -3.96396494       2.64863706     -0.246999994       194.630783       1.68289816    
  -4.56476784       3.05008101     -0.157000005       194.630783       1.68289816    
  -3.05008101       4.56476784     -0.157000005       162.443741       1.67101693    
  -2.64863706       3.96396494     -0.246999994       162.443741       1.67101693    
  -3.37107491       3.37107491     -0.246999994       162.443741       1.67101693    
  -3.88201594       3.88201594     -0.157000005       162.443741       1.67101693    
  -2.10093188       5.07209921     -0.157000005       118.855759       1.69090569    
  -1.82441294       4.40452194     -0.246999994       118.855759       1.69090569    
  -2.64863706       3.96396494     -0.246999994       118.855759       1.69090569    
  -3.05008101       4.56476784     -0.157000005       118.855759       1.69090569    
  -1.07104599       5.38451099     -0.157000005       81.9182053       1.69639492    
 -0.930077016       4.67581606     -0.246999994       81.9182053       1.69639492    
  -1.82441294       4.40452194     -0.246999994       81.9182053       1.69639492    
  -2.10093188       5.07209921     -0.157000005       81.9182053       1.69639492    
   0.00000000       5.48999977     -0.157000005       28.4011230       1.70803118    
   0.00000000       4.76741982     -0.246999994       28.4011230       1.70803118    
 -0.930077016       4.67581606     -0.246999994       28.4011230       1.70803118    
  -1.07104599       5.38451099     -0.157000005       28.4011230       1.70803118    
   1.07104599       5.38451099     -0.157000005       29.8879375      -1.42189384    
  0.930077016       4.67581606     -0.246999994       29.8879375      -1.42189384    
   0.00000000       4.76741982     -0.246999994       29.8879375      -1.42189384    
   0.00000000       5.48999977     -0.157000005       29.8879375      -1.42189384    
   2.10093188       5.07209921     -0.157000005       79.3132477      -1.43119550    
   1.82441294       4.40452194     -0.246999994       79.3132477      -1.43119550    
  0.930077016       4.67581606     -0.246999994       79.3132477      -1.43119550    
   1.07104599       5.38451099     -0.157000005       79.3132477      -1.43119550    
   3.05008101       4.56476784     -0.157000005       117.720917      -1.44773149    
   2.64863706       3.96396494     -0.246999994       117.720917      -1.44773149    
   1.82441294       4.40452194     -0.246999994       117.720917      -1.44773149    
   2.10093188       5.07209921     -0.157000005       117.720917      -1.44773149    
   3.88201594       3.88201594     -0.157000005       162.653961      -1.46497405    
   3.37107491       3.37107491     -0.246999994       162.653961      -1.46497405    
   2.64863706       3.96396494     -0.246999994       162.653961      -1.46497405    
   3.05008101       4.56476784     -0.157000005       162.653961      -1.46497405    
   4.56476784       3.05008101     -0.157000005       198.520737      -1.45451796    
   3.96396494       2.64863706     -0.246999994       198.520737      -1.45451796    
   3.37107491       3.37107491     -0.246999994       198.520737      -1.45451796    
   3.88201594       3.88201594     -0.157000005       198.520737      -1.45451796    
   5.07209921       2.10093188     -0.157000005       234.150177      -1.45516884    
   4.40452194       1.82441294     -0.246999994       234.150177      -1.45516884    
   3.96396494       2.64863706     -0.246999994       234.150177      -1.45516884    
   4.56476784       3.05008101     -0.157000005       234.150177      -1.45516884    
   5.38451099       1.07104599     -0.157000005       245.173706      -1.44631553    
   4.67581606      0.930077016     -0.246999994       245.173706      -1.44631553    
   4.40452194       1.82441294     -0.246999994       245.173706      -1.44631553    
   5.07209921       2.10093188     -0.157000005       245.173706      -1.44631553    
   5.48999977       0.00000000     -0.157000005       247.562973      -1.44752824    
   4.76741982       0.00000000     -0.246999994       247.562973      -1.44752824    
   4.67581606      0.930077016     -0.246999994       247.562973      -1.44752824    
   5.38451099       1.07104599     -0.157000005       247.562973      -1.44752824    
   5.38451099      -1.07104599     -0.157000005       246.874695      -1.44523823    
   4.67581606     -0.930077016     -0.246999994       246.874695      -1.44523823    
   4.76741982       0.00000000     -0.246999994       246.874695      -1.44523823    
   5.48999977       0.00000000     -0.157000005       246.874695      -1.44523823    
   5.07209921      -2.10093188     -0.157000005       241.660538      -1.44270778    
   4.40452194      -1.82441294     -0.246999994       241.660538      -1.44270778    
   4.67581606     -0.930077016     -0.246999994       241.660538      -1.44270778    
   5.38451099      -1.07104599     -0.157000005       241.660538      -1.44270778    
   4.56476784      -3.05008101     -0.157000005       219.693619      -1.44511807    
   3.96396494      -2.64863706     -0.246999994       219.693619      -1.44511807    
   4.40452194      -1.82441294     -0.246999994       219.693619      -1.44511807    
   5.07209921      -2.10093188     -0.157000005       219.693619      -1.44511807    
   3.88201594      -3.88201594     -0.157000005       189.597717      -1.45637560    
   3.37107491      -3.37107491     -0.246999994       189.597717      -1.45637560    
   3.96396494      -2.64863706     -0.246999994       189.597717      -1.45637560    
   4.56476784      -3.05008101     -0.157000005       189.597717      -1.45637560    
   3.05008101      -4.56476784     -0.157000005       160.704330      -1.46980262    
   2.64863706      -3.96396494     -0.246999994       160.704330      -1.46980262    
   3.37107491      -3.37107491     -0.246999994       160.704330      -1.46980262    
   3.88201594      -3.88201594     -0.157000005       160.704330      -1.46980262    
   2.10093188      -5.07209921     -0.157000005       119.360313      -1.44591069    
   1.82441294      -4.40452194     -0.246999994       119.360313      -1.44591069    
   2.64863706      -3.96396494     -0.246999994       119.360313      -1.44591069    
   3.05008101      -4.56476784     -0.157000005       119.360313      -1.44591069    
   1.07104599      -5.38451099     -0.157000005       80.1790466      -1.42380250    
  0.930077016      -4.67581606     -0.246999994       80.1790466      -1.42380250    
   1.82441294      -4.40452194     -0.246999994       80.1790466      -1.42380250    
   2.10093188      -5.07209921     -0.157000005       80.1790466      -1.42380250    
   0.00000000      -1.87709999     -0.606999993       1196.62781      -1.56995440    
   0.00000000      -1.36500001     -0.606999993       1196.62781      -1.56995440    
  0.266297996      -1.33877206     -0.606999993       1196.62781      -1.56995440    
  0.366203994      -1.84103203     -0.606999993       1196.62781      -1.56995440    
   0.00000000      -1.87709999     -0.606999993       542.429443       1.57134461    
   0.00000000      -2.59967995     -0.517000020       542.429443       1.57134461    
 -0.507171988      -2.54972792     -0.517000020       542.429443       1.57134461    
 -0.366203994      -1.84103203     -0.606999993       542.429443       1.57134461    
 -0.366203994      -1.84103203     -0.606999993       1179.33276       1.57124364    
 -0.266297996      -1.33877206     -0.606999993       1179.33276       1.57124364    
   0.00000000      -1.36500001     -0.606999993       1179.33276       1.57124364    
   0.00000000      -1.87709999     -0.606999993       1179.33276       1.57124364    
 -0.366203994      -1.84103203     -0.606999993       1568.57568       1.57152390    
 -0.507171988      -2.54972792     -0.517000020       1568.57568       1.57152390    
 -0.994853973      -2.40179110     -0.517000020       1568.57568       1.57152390    
 -0.718334973      -1.73421395     -0.606999993       1568.57568       1.57152390    
 -0.718334973      -1.73421395     -0.606999993       3476.13086       1.57137930    
 -0.522363007      -1.26109600     -0.606999993       3476.13086       1.57137930    
 -0.266297996      -1.33877206     -0.606999993       3476.13086       1.57137930    
 -0.366203994      -1.84103203     -0.606999993       3476.13086       1.57137930    
 -0.718334973      -1.73421395     -0.606999993       2408.22583       1.57156348    
 -0.994853973      -2.40179110     -0.517000020       2408.22583       1.57156348    
  -1.44430494      -2.16155505     -0.517000020       2408.22583       1.57156348    
  -1.04286098      -1.56075203     -0.606999993       2408.22583       1.57156348    
  -1.04286098      -1.56075203     -0.606999993       5566.87793       1.57141113    
 -0.758352995      -1.13495600     -0.606999993       5566.87793       1.57141113    
 -0.522363007      -1.26109600     -0.606999993       5566.87793       1.57141113    
 -0.718334973      -1.73421395     -0.606999993       5566.87793       1.57141113    
  -1.04286098      -1.56075203     -0.606999993       3089.82373       1.57159960    
  -1.44430494      -2.16155505     -0.517000020       3089.82373       1.57159960    
  -1.83825099      -1.83825099     -0.517000020       3089.82373       1.57159960    
  -1.32730997      -1.32730997     -0.606999993       3089.82373       1.57159960    
  -1.32730997      -1.32730997     -0.606999993       7396.03125       1.57143486    
 -0.965201020     -0.965201020     -0.606999993       7396.03125       1.57143486    
 -0.758352995      -1.13495600     -0.606999993       7396.03125       1.57143486    
  -1.04286098      -1.56075203     -0.606999993       7396.03125       1.57143486    
  -1.32730997      -1.32730997     -0.606999993       3685.15649       1.57163751    
  -1.83825099      -1.83825099     -0.517000020       3685.15649       1.57163751    
  -2.16155505      -1.44430494     -0.517000020       3685.15649       1.57163751    
  -1.56075203      -1.04286098     -0.606999993       3685.15649       1.57163751    
  -1.56075203      -1.04286098     -0.606999993       8953.34961       1.57145262    
  -1.13495600     -0.758352995     -0.606999993       8953.34961       1.57145262    
 -0.965201020     -0.965201020     -0.606999993       8953.34961       1.57145262    
  -1.32730997      -1.32730997     -0.606999993       8953.34961       1.57145262    
  -1.56075203      -1.04286098     -0.606999993       4232.59570       1.57166517    
  -2.16155505      -1.44430494     -0.517000020       4232.59570       1.57166517    
  -2.40179110     -0.994853973     -0.517000020       4232.59570       1.57166517    
  -1.73421395     -0.718334973     -0.606999993       4232.59570       1.57166517    
  -1.73421395     -0.718334973     -0.606999993       10226.6162       1.57146621    
  -1.26109600     -0.522363007     -0.606999993       10226.6162       1.57146621    
  -1.13495600     -0.758352995     -0.606999993       10226.6162       1.57146621    
  -1.56075203      -1.04286098     -0.606999993       10226.6162       1.57146621    
  -1.73421395     -0.718334973     -0.606999993       4687.49561       1.57167280    
  -2.40179110     -0.994853973     -0.517000020       4687.49561       1.57167280    
  -2.54972792     -0.507171988     -0.517000020       4687.49561       1.57167280    
  -1.84103203     -0.366203994     -0.606999993       4687.49561       1.57167280    
  -1.84103203     -0.366203994     -0.606999993       11158.3887       1.57147348    
  -1.33877206     -0.266297996     -0.606999993       11158.3887       1.57147348    
  -1.26109600     -0.522363007     -0.606999993       11158.3887       1.57147348    
  -1.73421395     -0.718334973     -0.606999993       11158.3887       1.57147348    
  -1.84103203     -0.366203994     -0.606999993       4959.69629       1.57167697    
  -2.54972792     -0.507171988     -0.517000020       4959.69629       1.57167697    
  -2.59967995       0.00000000     -0.517000020       4959.69629       1.57167697    
  -1.87709999       0.00000000     -0.606999993       4959.69629       1.57167697    
  -1.87709999       0.00000000     -0.606999993       11666.8867       1.57147861    
  -1.36500001       0.00000000     -0.606999993       11666.8867       1.57147861    
  -1.33877206     -0.266297996     -0.606999993       11666.8867       1.57147861    
  -1.84103203     -0.366203994     -0.606999993       11666.8867       1.57147861    
  -1.87709999       0.00000000     -0.606999993       4975.84229       1.57169259    
  -2.59967995       0.00000000     -0.517000020       4975.84229       1.57169259    
  -2.54972792      0.507171988     -0.517000020       4975.84229       1.57169259    
  -1.84103203      0.366203994     -0.606999993       4975.84229       1.57169259    
  -1.84103203      0.366203994     -0.606999993       11687.7783       1.57148576    
  -1.33877206      0.266297996     -0.606999993       11687.7783       1.57148576    
  -1.36500001       0.00000000     -0.606999993       11687.7783       1.57148576    
  -1.87709999       0.00000000     -0.606999993       11687.7783       1.57148576    
  -1.84103203      0.366203994     -0.606999993       4725.37939       1.57172525    
  -2.54972792      0.507171988     -0.517000020       4725.37939       1.57172525    
  -2.40179110      0.994853973     -0.517000020       4725.37939       1.57172525    
  -1.73421395      0.718334973     -0.606999993       4725.37939       1.57172525    
  -1.73421395      0.718334973     -0.606999993       11212.2275       1.57149768    
  -1.26109600      0.522363007     -0.606999993       11212.2275       1.57149768    
  -1.33877206      0.266297996     -0.606999993       11212.2275       1.57149768    
  -1.84103203      0.366203994     -0.606999993       11212.2275       1.57149768    
  -1.73421395      0.718334973     -0.606999993       4268.17236       1.57176089    
  -2.40179110      0.994853973     -0.517000020       4268.17236       1.57176089    
  -2.16155505       1.44430494     -0.517000020       4268.17236       1.57176089    
  -1.56075203       1.04286098     -0.606999993       4268.17236       1.57176089    
  -1.56075203       1.04286098     -0.606999993       10294.9160       1.57150972    
  -1.13495600      0.758352995     -0.606999993       10294.9160       1.57150972    
  -1.26109600      0.522363007     -0.606999993       10294.9160       1.57150972    
  -1.73421395      0.718334973     -0.606999993       10294.9160       1.57150972    
  -1.56075203       1.04286098     -0.606999993       3702.53784       1.57178402    
  -2.16155505       1.44430494     -0.517000020       3702.53784       1.57178402    
  -1.83825099       1.83825099     -0.517000020       3702.53784       1.57178402    
  -1.32730997       1.32730997     -0.606999993       3702.53784       1.57178402    
  -1.32730997       1.32730997     -0.606999993       9018.12891       1.57151997    
 -0.965201020      0.965201020     -0.606999993       9018.12891       1.57151997    
  -1.13495600      0.758352995     -0.606999993       9018.12891       1.57151997    
  -1.56075203       1.04286098     -0.606999993       9018.12891       1.57151997    
  -1.32730997       1.32730997     -0.606999993       3092.15356       1.57179248    
  -1.83825099       1.83825099     -0.517000020       3092.15356       1.57179248    
  -1.44430494       2.16155505     -0.517000020       3092.15356       1.57179248    
  -1.04286098       1.56075203     -0.606999993       3092.15356       1.57179248    
  -1.04286098       1.56075203     -0.606999993       7447.77637       1.57152498    
 -0.758352995       1.13495600     -0.606999993       7447.77637       1.57152498    
 -0.965201020      0.965201020     -0.606999993       7447.77637       1.57152498    
  -1.32730997       1.32730997     -0.606999993       7447.77637       1.57152498    
  -1.04286098       1.56075203     -0.606999993       2408.23340       1.57181120    
  -1.44430494       2.16155505     -0.517000020       2408.23340       1.57181120    
 -0.994853973       2.40179110     -0.517000020       2408.23340       1.57181120    
 -0.718334973       1.73421395     -0.606999993       2408.23340       1.57181120    
 -0.718334973       1.73421395     -0.606999993       5606.24756       1.57153833    
 -0.522363007       1.26109600     -0.606999993       5606.24756       1.57153833    
 -0.758352995       1.13495600     -0.606999993       5606.24756       1.57153833    
  -1.04286098       1.56075203     -0.606999993       5606.24756       1.57153833    
 -0.718334973       1.73421395     -0.606999993       1576.62317       1.57186472    
 -0.994853973       2.40179110     -0.517000020       1576.62317       1.57186472    
 -0.507171988       2.54972792     -0.517000020       1576.62317       1.57186472    
 -0.366203994       1.84103203     -0.606999993       1576.62317       1.57186472    
 -0.366203994       1.84103203     -0.606999993       3509.80591       1.57157242    
 -0.266297996       1.33877206     -0.606999993       3509.80591       1.57157242    
 -0.522363007       1.26109600     -0.606999993       3509.80591       1.57157242    
 -0.718334973       1.73421395     -0.606999993       3509.80591       1.57157242    
 -0.366203994       1.84103203     -0.606999993       563.741150       1.57216680    
 -0.507171988       2.54972792     -0.517000020       563.741150       1.57216680    
   0.00000000       2.59967995     -0.517000020       563.741150       1.57216680    
   0.00000000       1.87709999     -0.606999993       563.741150       1.57216680    
   0.00000000       1.87709999     -0.606999993       1210.52698       1.57175124    
   0.00000000       1.36500001     -0.606999993       1210.52698       1.57175124    
 -0.266297996       1.33877206     -0.606999993       1210.52698       1.57175124    
 -0.366203994       1.84103203     -0.606999993       1210.52698       1.57175124    
   0.00000000       1.87709999     -0.606999993       530.189453      -1.57035172    
   0.00000000       2.59967995     -0.517000020       530.189453      -1.57035172    
  0.507171988       2.54972792     -0.517000020       530.189453      -1.57035172    
  0.366203994       1.84103203     -0.606999993       530.189453      -1.57035172    
  0.366203994       1.84103203     -0.606999993       1167.74414      -1.57038355    
  0.266297996       1.33877206     -0.606999993       1167.74414      -1.57038355    
   0.00000000       1.36500001     -0.606999993       1167.74414      -1.57038355    
   0.00000000       1.87709999     -0.606999993       1167.74414      -1.57038355    
  0.366203994       1.84103203     -0.606999993       1545.73633      -1.57001853    
  0.507171988       2.54972792     -0.517000020       1545.73633      -1.57001853    
  0.994853973       2.40179110     -0.517000020       1545.73633      -1.57001853    
  0.718334973       1.73421395     -0.606999993       1545.73633      -1.57001853    
  0.718334973       1.73421395     -0.606999993       3470.59204      -1.57019198    
  0.522363007       1.26109600     -0.606999993       3470.59204      -1.57019198    
  0.266297996       1.33877206     -0.606999993       3470.59204      -1.57019198    
  0.366203994       1.84103203     -0.606999993       3470.59204      -1.57019198    
  0.718334973       1.73421395     -0.606999993       2381.75415      -1.56993270    
  0.994853973       2.40179110     -0.517000020       2381.75415      -1.56993270    
   1.44430494       2.16155505     -0.517000020       2381.75415      -1.56993270    
   1.04286098       1.56075203     -0.606999993       2381.75415      -1.56993270    
   1.04286098       1.56075203     -0.606999993       5574.94775      -1.57014871    
  0.758352995       1.13495600     -0.606999993       5574.94775      -1.57014871    
  0.522363007       1.26109600     -0.606999993       5574.94775      -1.57014871    
  0.718334973       1.73421395     -0.606999993       5574.94775      -1.57014871    
   1.04286098       1.56075203     -0.606999993       3071.56567      -1.56987298    
   1.44430494       2.16155505     -0.517000020       3071.56567      -1.56987298    
   1.83825099       1.83825099     -0.517000020       3071.56567      -1.56987298    
   1.32730997       1.32730997     -0.606999993       3071.56567      -1.56987298    
   1.32730997       1.32730997     -0.606999993       7426.29932      -1.57012212    
  0.965201020      0.965201020     -0.606999993       7426.29932      -1.57012212    
  0.758352995       1.13495600     -0.606999993       7426.29932      -1.57012212    
   1.04286098       1.56075203     -0.606999993       7426.29932      -1.57012212    
   1.32730997       1.32730997     -0.606999993       3688.20630      -1.56982529    
   1.83825099       1.83825099     -0.517000020       3688.20630      -1.56982529    
   2.16155505       1.44430494     -0.517000020       3688.20630      -1.56982529    
   1.56075203       1.04286098     -0.606999993       3688.20630      -1.56982529    
   1.56075203       1.04286098     -0.606999993       9007.02734      -1.57010567    
   1.13495600      0.758352995     -0.606999993       9007.02734      -1.57010567    
  0.965201020      0.965201020     -0.606999993       9007.02734      -1.57010567    
   1.32730997       1.32730997     -0.606999993       9007.02734      -1.57010567    
   1.56075203       1.04286098     -0.606999993       4259.52686      -1.56981015    
   2.16155505       1.44430494     -0.517000020       4259.52686      -1.56981015    
   2.40179110      0.994853973     -0.517000020       4259.52686      -1.56981015    
   1.73421395      0.718334973     -0.606999993       4259.52686      -1.56981015    
   1.73421395      0.718334973     -0.606999993       10290.6992      -1.57009900    
   1.26109600      0.522363007     -0.606999993       10290.6992      -1.57009900    
   1.13495600      0.758352995     -0.606999993       10290.6992      -1.57009900    
   1.56075203       1.04286098     -0.606999993       10290.6992      -1.57009900    
   1.73421395      0.718334973     -0.606999993       4721.64160      -1.56981444    
   2.40179110      0.994853973     -0.517000020       4721.64160      -1.56981444    
   2.54972792      0.507171988     -0.517000020       4721.64160      -1.56981444    
   1.84103203      0.366203994     -0.606999993       4721.64160      -1.56981444    
   1.84103203      0.366203994     -0.606999993       11213.6035      -1.57009661    
   1.33877206      0.266297996     -0.606999993       11213.6035      -1.57009661    
   1.26109600      0.522363007     -0.606999993       11213.6035      -1.57009661    
   1.73421395      0.718334973     -0.606999993       11213.6035      -1.57009661    
   1.84103203      0.366203994     -0.606999993       4976.46680      -1.56982493    
   2.54972792      0.507171988     -0.517000020       4976.46680      -1.56982493    
   2.59967995       0.00000000     -0.517000020       4976.46680      -1.56982493    
   1.87709999       0.00000000     -0.606999993       4976.46680      -1.56982493    
   1.87709999       0.00000000     -0.606999993       11693.9971      -1.57009900    
   1.36500001       0.00000000     -0.606999993       11693.9971      -1.57009900    
   1.33877206      0.266297996     -0.606999993       11693.9971      -1.57009900    
   1.84103203      0.366203994     -0.606999993       11693.9971      -1.57009900    
   1.87709999       0.00000000     -0.606999993       4964.38281      -1.56982660    
   2.59967995       0.00000000     -0.517000020       4964.38281      -1.56982660    
   2.54972792     -0.507171988     -0.517000020       4964.38281      -1.56982660    
   1.84103203     -0.366203994     -0.606999993       4964.38281      -1.56982660    
   1.84103203     -0.366203994     -0.606999993       11676.8193      -1.57009542    
   1.33877206     -0.266297996     -0.606999993       11676.8193      -1.57009542    
   1.36500001       0.00000000     -0.606999993       11676.8193      -1.57009542    
   1.87709999       0.00000000     -0.606999993       11676.8193      -1.57009542    
   1.84103203     -0.366203994     -0.606999993       4696.06836      -1.56981719    
   2.54972792     -0.507171988     -0.517000020       4696.06836      -1.56981719    
   2.40179110     -0.994853973     -0.517000020       4696.06836      -1.56981719    
   1.73421395     -0.718334973     -0.606999993       4696.06836      -1.56981719    
   1.73421395     -0.718334973     -0.606999993       11171.9062      -1.57009280    
   1.26109600     -0.522363007     -0.606999993       11171.9062      -1.57009280    
   1.33877206     -0.266297996     -0.606999993       11171.9062      -1.57009280    
   1.84103203     -0.366203994     -0.606999993       11171.9062      -1.57009280    
   1.73421395     -0.718334973     -0.606999993       4244.72412      -1.56981885    
   2.40179110     -0.994853973     -0.517000020       4244.72412      -1.56981885    
   2.16155505      -1.44430494     -0.517000020       4244.72412      -1.56981885    
   1.56075203      -1.04286098     -0.606999993       4244.72412      -1.56981885    
   1.56075203      -1.04286098     -0.606999993       10244.7861      -1.57009184    
   1.13495600     -0.758352995     -0.606999993       10244.7861      -1.57009184    
   1.26109600     -0.522363007     -0.606999993       10244.7861      -1.57009184    