 VARIABLES="X" "Y" "Z" "abs(p) (Pa)" "angle(p) (rad)"
ZONE N=   2709,E =    2358, F=FEPOINT, ET=QUADRILATERAL
   0.00000000      -5.48999977     -0.157000005       908.895691       1.83013296    
   0.00000000      -4.76741982     -0.246999994       908.895691       1.83013296    
  0.930077016      -4.67581606     -0.246999994       908.895691       1.83013296    
   1.07104599      -5.38451099     -0.157000005       908.895691       1.83013296    
  -1.07104599      -5.38451099     -0.157000005       909.000671       1.83054090    
 -0.930077016      -4.67581606     -0.246999994       909.000671       1.83054090    
   0.00000000      -4.76741982     -0.246999994       909.000671       1.83054090    
   0.00000000      -5.48999977     -0.157000005       909.000671       1.83054090    
  -2.10093188      -5.07209921     -0.157000005       921.625000       1.82440996    
  -1.82441294      -4.40452194     -0.246999994       921.625000       1.82440996    
 -0.930077016      -4.67581606     -0.246999994       921.625000       1.82440996    
  -1.07104599      -5.38451099     -0.157000005       921.625000       1.82440996    
  -3.05008101      -4.56476784     -0.157000005       911.676758       1.83314347    
  -2.64863706      -3.96396494     -0.246999994       911.676758       1.83314347    
  -1.82441294      -4.40452194     -0.246999994       911.676758       1.83314347    
  -2.10093188      -5.07209921     -0.157000005       911.676758       1.83314347    
  -3.88201594      -3.88201594     -0.157000005       914.480713       1.83370924    
  -3.37107491      -3.37107491     -0.246999994       914.480713       1.83370924    
  -2.64863706      -3.96396494     -0.246999994       914.480713       1.83370924    
  -3.05008101      -4.56476784     -0.157000005       914.480713       1.83370924    
  -4.56476784      -3.05008101     -0.157000005       930.873657       1.82451093    
  -3.96396494      -2.64863706     -0.246999994       930.873657       1.82451093    
  -3.37107491      -3.37107491     -0.246999994       930.873657       1.82451093    
  -3.88201594      -3.88201594     -0.157000005       930.873657       1.82451093    
  -5.07209921      -2.10093188     -0.157000005       917.645752       1.83209991    
  -4.40452194      -1.82441294     -0.246999994       917.645752       1.83209991    
  -3.96396494      -2.64863706     -0.246999994       917.645752       1.83209991    
  -4.56476784      -3.05008101     -0.157000005       917.645752       1.83209991    
  -5.38451099      -1.07104599     -0.157000005       913.511169       1.83239245    
  -4.67581606     -0.930077016     -0.246999994       913.511169       1.83239245    
  -4.40452194      -1.82441294     -0.246999994       913.511169       1.83239245    
  -5.07209921      -2.10093188     -0.157000005       913.511169       1.83239245    
  -5.48999977       0.00000000     -0.157000005       924.121643       1.82261097    
  -4.76741982       0.00000000     -0.246999994       924.121643       1.82261097    
  -4.67581606     -0.930077016     -0.246999994       924.121643       1.82261097    
  -5.38451099      -1.07104599     -0.157000005       924.121643       1.82261097    
  -5.38451099       1.07104599     -0.157000005       924.249146       1.81977093    
  -4.67581606      0.930077016     -0.246999994       924.249146       1.81977093    
  -4.76741982       0.00000000     -0.246999994       924.249146       1.81977093    
  -5.48999977       0.00000000     -0.157000005       924.249146       1.81977093    
  -5.07209921       2.10093188     -0.157000005       924.133240       1.81838179    
  -4.40452194       1.82441294     -0.246999994       924.133240       1.81838179    
  -4.67581606      0.930077016     -0.246999994       924.133240       1.81838179    
  -5.38451099       1.07104599     -0.157000005       924.133240       1.81838179    
  -4.56476784       3.05008101     -0.157000005       924.179504       1.81840730    
  -3.96396494       2.64863706     -0.246999994       924.179504       1.81840730    
  -4.40452194       1.82441294     -0.246999994       924.179504       1.81840730    
  -5.07209921       2.10093188     -0.157000005       924.179504       1.81840730    
  -3.88201594       3.88201594     -0.157000005       913.419861       1.82596958    
  -3.37107491       3.37107491     -0.246999994       913.419861       1.82596958    
  -3.96396494       2.64863706     -0.246999994       913.419861       1.82596958    
  -4.56476784       3.05008101     -0.157000005       913.419861       1.82596958    
  -3.05008101       4.56476784     -0.157000005       925.287659       1.81978929    
  -2.64863706       3.96396494     -0.246999994       925.287659       1.81978929    
  -3.37107491       3.37107491     -0.246999994       925.287659       1.81978929    
  -3.88201594       3.88201594     -0.157000005       925.287659       1.81978929    
  -2.10093188       5.07209921     -0.157000005       914.388428       1.82679486    
  -1.82441294       4.40452194     -0.246999994       914.388428       1.82679486    
  -2.64863706       3.96396494     -0.246999994       914.388428       1.82679486    
  -3.05008101       4.56476784     -0.157000005       914.388428       1.82679486    
  -1.07104599       5.38451099     -0.157000005       923.970642       1.82064557    
 -0.930077016       4.67581606     -0.246999994       923.970642       1.82064557    
  -1.82441294       4.40452194     -0.246999994       923.970642       1.82064557    
  -2.10093188       5.07209921     -0.157000005       923.970642       1.82064557    
   0.00000000       5.48999977     -0.157000005       911.573242       1.82794404    
   0.00000000       4.76741982     -0.246999994       911.573242       1.82794404    
 -0.930077016       4.67581606     -0.246999994       911.573242       1.82794404    
  -1.07104599       5.38451099     -0.157000005       911.573242       1.82794404    
   1.07104599       5.38451099     -0.157000005       921.458069       1.82245851    
  0.930077016       4.67581606     -0.246999994       921.458069       1.82245851    
   0.00000000       4.76741982     -0.246999994       921.458069       1.82245851    
   0.00000000       5.48999977     -0.157000005       921.458069       1.82245851    
   2.10093188       5.07209921     -0.157000005       910.281860       1.83123815    
   1.82441294       4.40452194     -0.246999994       910.281860       1.83123815    
  0.930077016       4.67581606     -0.246999994       910.281860       1.83123815    
   1.07104599       5.38451099     -0.157000005       910.281860       1.83123815    
   3.05008101       4.56476784     -0.157000005       911.789429       1.83300292    
   2.64863706       3.96396494     -0.246999994       911.789429       1.83300292    
   1.82441294       4.40452194     -0.246999994       911.789429       1.83300292    
   2.10093188       5.07209921     -0.157000005       911.789429       1.83300292    
   3.88201594       3.88201594     -0.157000005       928.262390       1.82516968    
   3.37107491       3.37107491     -0.246999994       928.262390       1.82516968    
   2.64863706       3.96396494     -0.246999994       928.262390       1.82516968    
   3.05008101       4.56476784     -0.157000005       928.262390       1.82516968    
   4.56476784       3.05008101     -0.157000005       927.303162       1.82706499    
   3.96396494       2.64863706     -0.246999994       927.303162       1.82706499    
   3.37107491       3.37107491     -0.246999994       927.303162       1.82706499    
   3.88201594       3.88201594     -0.157000005       927.303162       1.82706499    
   5.07209921       2.10093188     -0.157000005       930.534912       1.82483649    
   4.40452194       1.82441294     -0.246999994       930.534912       1.82483649    
   3.96396494       2.64863706     -0.246999994       930.534912       1.82483649    
   4.56476784       3.05008101     -0.157000005       930.534912       1.82483649    
   5.38451099       1.07104599     -0.157000005       913.768433       1.83390534    
   4.67581606      0.930077016     -0.246999994       913.768433       1.83390534    
   4.40452194       1.82441294     -0.246999994       913.768433       1.83390534    
   5.07209921       2.10093188     -0.157000005       913.768433       1.83390534    
   5.48999977       0.00000000     -0.157000005       909.514832       1.83420062    
   4.76741982       0.00000000     -0.246999994       909.514832       1.83420062    
   4.67581606      0.930077016     -0.246999994       909.514832       1.83420062    
   5.38451099       1.07104599     -0.157000005       909.514832       1.83420062    
   5.38451099      -1.07104599     -0.157000005       908.341248       1.83265078    
   4.67581606     -0.930077016     -0.246999994       908.341248       1.83265078    
   4.76741982       0.00000000     -0.246999994       908.341248       1.83265078    
   5.48999977       0.00000000     -0.157000005       908.341248       1.83265078    
   5.07209921      -2.10093188     -0.157000005       908.367676       1.83123934    
   4.40452194      -1.82441294     -0.246999994       908.367676       1.83123934    
   4.67581606     -0.930077016     -0.246999994       908.367676       1.83123934    
   5.38451099      -1.07104599     -0.157000005       908.367676       1.83123934    
   4.56476784      -3.05008101     -0.157000005       909.196167       1.83042157    
   3.96396494      -2.64863706     -0.246999994       909.196167       1.83042157    
   4.40452194      -1.82441294     -0.246999994       909.196167       1.83042157    
   5.07209921      -2.10093188     -0.157000005       909.196167       1.83042157    
   3.88201594      -3.88201594     -0.157000005       911.188965       1.82955611    
   3.37107491      -3.37107491     -0.246999994       911.188965       1.82955611    
   3.96396494      -2.64863706     -0.246999994       911.188965       1.82955611    
   4.56476784      -3.05008101     -0.157000005       911.188965       1.82955611    
   3.05008101      -4.56476784     -0.157000005       924.086792       1.82193780    
   2.64863706      -3.96396494     -0.246999994       924.086792       1.82193780    
   3.37107491      -3.37107491     -0.246999994       924.086792       1.82193780    
   3.88201594      -3.88201594     -0.157000005       924.086792       1.82193780    
   2.10093188      -5.07209921     -0.157000005       912.318787       1.82902384    
   1.82441294      -4.40452194     -0.246999994       912.318787       1.82902384    
   2.64863706      -3.96396494     -0.246999994       912.318787       1.82902384    
   3.05008101      -4.56476784     -0.157000005       912.318787       1.82902384    
   1.07104599      -5.38451099     -0.157000005       910.091187       1.82983637    
  0.930077016      -4.67581606     -0.246999994       910.091187       1.82983637    
   1.82441294      -4.40452194     -0.246999994       910.091187       1.82983637    
   2.10093188      -5.07209921     -0.157000005       910.091187       1.82983637    
   0.00000000      -1.87709999     -0.606999993       2577.78491       1.60452867    
   0.00000000      -1.36500001     -0.606999993       2577.78491       1.60452867    
  0.266297996      -1.33877206     -0.606999993       2577.78491       1.60452867    
  0.366203994      -1.84103203     -0.606999993       2577.78491       1.60452867    
   0.00000000      -1.87709999     -0.606999993       2095.73584       1.60670984    
   0.00000000      -2.59967995     -0.517000020       2095.73584       1.60670984    
 -0.507171988      -2.54972792     -0.517000020       2095.73584       1.60670984    
 -0.366203994      -1.84103203     -0.606999993       2095.73584       1.60670984    
 -0.366203994      -1.84103203     -0.606999993       2578.14966       1.60462904    
 -0.266297996      -1.33877206     -0.606999993       2578.14966       1.60462904    
   0.00000000      -1.36500001     -0.606999993       2578.14966       1.60462904    
   0.00000000      -1.87709999     -0.606999993       2578.14966       1.60462904    
 -0.366203994      -1.84103203     -0.606999993       2091.29712       1.60686076    
 -0.507171988      -2.54972792     -0.517000020       2091.29712       1.60686076    
 -0.994853973      -2.40179110     -0.517000020       2091.29712       1.60686076    
 -0.718334973      -1.73421395     -0.606999993       2091.29712       1.60686076    
 -0.718334973      -1.73421395     -0.606999993       2576.65698       1.60475123    
 -0.522363007      -1.26109600     -0.606999993       2576.65698       1.60475123    
 -0.266297996      -1.33877206     -0.606999993       2576.65698       1.60475123    
 -0.366203994      -1.84103203     -0.606999993       2576.65698       1.60475123    
 -0.718334973      -1.73421395     -0.606999993       2087.87012       1.60698116    
 -0.994853973      -2.40179110     -0.517000020       2087.87012       1.60698116    
  -1.44430494      -2.16155505     -0.517000020       2087.87012       1.60698116    
  -1.04286098      -1.56075203     -0.606999993       2087.87012       1.60698116    
  -1.04286098      -1.56075203     -0.606999993       2576.11719       1.60482895    
 -0.758352995      -1.13495600     -0.606999993       2576.11719       1.60482895    
 -0.522363007      -1.26109600     -0.606999993       2576.11719       1.60482895    
 -0.718334973      -1.73421395     -0.606999993       2576.11719       1.60482895    
  -1.04286098      -1.56075203     -0.606999993       2089.66846       1.60698652    
  -1.44430494      -2.16155505     -0.517000020       2089.66846       1.60698652    
  -1.83825099      -1.83825099     -0.517000020       2089.66846       1.60698652    
  -1.32730997      -1.32730997     -0.606999993       2089.66846       1.60698652    
  -1.32730997      -1.32730997     -0.606999993       2578.75928       1.60482752    
 -0.965201020     -0.965201020     -0.606999993       2578.75928       1.60482752    
 -0.758352995      -1.13495600     -0.606999993       2578.75928       1.60482752    
  -1.04286098      -1.56075203     -0.606999993       2578.75928       1.60482752    
  -1.32730997      -1.32730997     -0.606999993       2095.71240       1.60687900    
  -1.83825099      -1.83825099     -0.517000020       2095.71240       1.60687900    
  -2.16155505      -1.44430494     -0.517000020       2095.71240       1.60687900    
  -1.56075203      -1.04286098     -0.606999993       2095.71240       1.60687900    
  -1.56075203      -1.04286098     -0.606999993       2583.94141       1.60474658    
  -1.13495600     -0.758352995     -0.606999993       2583.94141       1.60474658    
 -0.965201020     -0.965201020     -0.606999993       2583.94141       1.60474658    
  -1.32730997      -1.32730997     -0.606999993       2583.94141       1.60474658    
  -1.56075203      -1.04286098     -0.606999993       2100.69458       1.60673642    
  -2.16155505      -1.44430494     -0.517000020       2100.69458       1.60673642    
  -2.40179110     -0.994853973     -0.517000020       2100.69458       1.60673642    
  -1.73421395     -0.718334973     -0.606999993       2100.69458       1.60673642    
  -1.73421395     -0.718334973     -0.606999993       2588.71924       1.60462677    
  -1.26109600     -0.522363007     -0.606999993       2588.71924       1.60462677    
  -1.13495600     -0.758352995     -0.606999993       2588.71924       1.60462677    
  -1.56075203      -1.04286098     -0.606999993       2588.71924       1.60462677    
  -1.73421395     -0.718334973     -0.606999993       2100.66577       1.60663092    
  -2.40179110     -0.994853973     -0.517000020       2100.66577       1.60663092    
  -2.54972792     -0.507171988     -0.517000020       2100.66577       1.60663092    
  -1.84103203     -0.366203994     -0.606999993       2100.66577       1.60663092    
  -1.84103203     -0.366203994     -0.606999993       2590.68359       1.60450113    
  -1.33877206     -0.266297996     -0.606999993       2590.68359       1.60450113    
  -1.26109600     -0.522363007     -0.606999993       2590.68359       1.60450113    
  -1.73421395     -0.718334973     -0.606999993       2590.68359       1.60450113    
  -1.84103203     -0.366203994     -0.606999993       2098.15210       1.60653937    
  -2.54972792     -0.507171988     -0.517000020       2098.15210       1.60653937    
  -2.59967995       0.00000000     -0.517000020       2098.15210       1.60653937    
  -1.87709999       0.00000000     -0.606999993       2098.15210       1.60653937    
  -1.87709999       0.00000000     -0.606999993       2590.53564       1.60437739    
  -1.36500001       0.00000000     -0.606999993       2590.53564       1.60437739    
  -1.33877206     -0.266297996     -0.606999993       2590.53564       1.60437739    
  -1.84103203     -0.366203994     -0.606999993       2590.53564       1.60437739    
  -1.87709999       0.00000000     -0.606999993       2098.25049       1.60640669    
  -2.59967995       0.00000000     -0.517000020       2098.25049       1.60640669    
  -2.54972792      0.507171988     -0.517000020       2098.25049       1.60640669    
  -1.84103203      0.366203994     -0.606999993       2098.25049       1.60640669    
  -1.84103203      0.366203994     -0.606999993       2590.73218       1.60423982    
  -1.33877206      0.266297996     -0.606999993       2590.73218       1.60423982    
  -1.36500001       0.00000000     -0.606999993       2590.73218       1.60423982    
  -1.87709999       0.00000000     -0.606999993       2590.73218       1.60423982    
  -1.84103203      0.366203994     -0.606999993       2101.79980       1.60624170    
  -2.54972792      0.507171988     -0.517000020       2101.79980       1.60624170    
  -2.40179110      0.994853973     -0.517000020       2101.79980       1.60624170    
  -1.73421395      0.718334973     -0.606999993       2101.79980       1.60624170    
  -1.73421395      0.718334973     -0.606999993       2591.82007       1.60410476    
  -1.26109600      0.522363007     -0.606999993       2591.82007       1.60410476    
  -1.33877206      0.266297996     -0.606999993       2591.82007       1.60410476    
  -1.84103203      0.366203994     -0.606999993       2591.82007       1.60410476    
  -1.73421395      0.718334973     -0.606999993       2104.25220       1.60612833    
  -2.40179110      0.994853973     -0.517000020       2104.25220       1.60612833    
  -2.16155505       1.44430494     -0.517000020       2104.25220       1.60612833    
  -1.56075203       1.04286098     -0.606999993       2104.25220       1.60612833    
  -1.56075203       1.04286098     -0.606999993       2591.67383       1.60401165    
  -1.13495600      0.758352995     -0.606999993       2591.67383       1.60401165    
  -1.26109600      0.522363007     -0.606999993       2591.67383       1.60401165    
  -1.73421395      0.718334973     -0.606999993       2591.67383       1.60401165    
  -1.56075203       1.04286098     -0.606999993       2101.42749       1.60613298    
  -2.16155505       1.44430494     -0.517000020       2101.42749       1.60613298    
  -1.83825099       1.83825099     -0.517000020       2101.42749       1.60613298    
  -1.32730997       1.32730997     -0.606999993       2101.42749       1.60613298    
  -1.32730997       1.32730997     -0.606999993       2588.81787       1.60399175    
 -0.965201020      0.965201020     -0.606999993       2588.81787       1.60399175    
  -1.13495600      0.758352995     -0.606999993       2588.81787       1.60399175    
  -1.56075203       1.04286098     -0.606999993       2588.81787       1.60399175    
  -1.32730997       1.32730997     -0.606999993       2095.82227       1.60622072    
  -1.83825099       1.83825099     -0.517000020       2095.82227       1.60622072    
  -1.44430494       2.16155505     -0.517000020       2095.82227       1.60622072    
  -1.04286098       1.56075203     -0.606999993       2095.82227       1.60622072    
  -1.04286098       1.56075203     -0.606999993       2584.61914       1.60403657    
 -0.758352995       1.13495600     -0.606999993       2584.61914       1.60403657    
 -0.965201020      0.965201020     -0.606999993       2584.61914       1.60403657    
  -1.32730997       1.32730997     -0.606999993       2584.61914       1.60403657    
  -1.04286098       1.56075203     -0.606999993       2093.30713       1.60630047    
  -1.44430494       2.16155505     -0.517000020       2093.30713       1.60630047    
 -0.994853973       2.40179110     -0.517000020       2093.30713       1.60630047    
 -0.718334973       1.73421395     -0.606999993       2093.30713       1.60630047    
 -0.718334973       1.73421395     -0.606999993       2582.10425       1.60410702    
 -0.522363007       1.26109600     -0.606999993       2582.10425       1.60410702    
 -0.758352995       1.13495600     -0.606999993       2582.10425       1.60410702    
  -1.04286098       1.56075203     -0.606999993       2582.10425       1.60410702    
 -0.718334973       1.73421395     -0.606999993       2095.96387       1.60633409    
 -0.994853973       2.40179110     -0.517000020       2095.96387       1.60633409    
 -0.507171988       2.54972792     -0.517000020       2095.96387       1.60633409    
 -0.366203994       1.84103203     -0.606999993       2095.96387       1.60633409    
 -0.366203994       1.84103203     -0.606999993       2582.58521       1.60418177    
 -0.266297996       1.33877206     -0.606999993       2582.58521       1.60418177    
 -0.522363007       1.26109600     -0.606999993       2582.58521       1.60418177    
 -0.718334973       1.73421395     -0.606999993       2582.58521       1.60418177    
 -0.366203994       1.84103203     -0.606999993       2100.01196       1.60637176    
 -0.507171988       2.54972792     -0.517000020       2100.01196       1.60637176    
   0.00000000       2.59967995     -0.517000020       2100.01196       1.60637176    
   0.00000000       1.87709999     -0.606999993       2100.01196       1.60637176    
   0.00000000       1.87709999     -0.606999993       2584.12012       1.60427094    
   0.00000000       1.36500001     -0.606999993       2584.12012       1.60427094    
 -0.266297996       1.33877206     -0.606999993       2584.12012       1.60427094    
 -0.366203994       1.84103203     -0.606999993       2584.12012       1.60427094    
   0.00000000       1.87709999     -0.606999993       2100.02881       1.60648823    
   0.00000000       2.59967995     -0.517000020       2100.02881       1.60648823    
  0.507171988       2.54972792     -0.517000020       2100.02881       1.60648823    
  0.366203994       1.84103203     -0.606999993       2100.02881       1.60648823    
  0.366203994       1.84103203     -0.606999993       2584.24048       1.60439980    
  0.266297996       1.33877206     -0.606999993       2584.24048       1.60439980    
   0.00000000       1.36500001     -0.606999993       2584.24048       1.60439980    
   0.00000000       1.87709999     -0.606999993       2584.24048       1.60439980    
  0.366203994       1.84103203     -0.606999993       2096.00122       1.60667026    
  0.507171988       2.54972792     -0.517000020       2096.00122       1.60667026    
  0.994853973       2.40179110     -0.517000020       2096.00122       1.60667026    
  0.718334973       1.73421395     -0.606999993       2096.00122       1.60667026    
  0.718334973       1.73421395     -0.606999993       2582.89258       1.60454845    
  0.522363007       1.26109600     -0.606999993       2582.89258       1.60454845    
  0.266297996       1.33877206     -0.606999993       2582.89258       1.60454845    
  0.366203994       1.84103203     -0.606999993       2582.89258       1.60454845    
  0.718334973       1.73421395     -0.606999993       2093.45459       1.60681546    
  0.994853973       2.40179110     -0.517000020       2093.45459       1.60681546    
   1.44430494       2.16155505     -0.517000020       2093.45459       1.60681546    
   1.04286098       1.56075203     -0.606999993       2093.45459       1.60681546    
   1.04286098       1.56075203     -0.606999993       2582.67505       1.60465777    
  0.758352995       1.13495600     -0.606999993       2582.67505       1.60465777    
  0.522363007       1.26109600     -0.606999993       2582.67505       1.60465777    
  0.718334973       1.73421395     -0.606999993       2582.67505       1.60465777    
   1.04286098       1.56075203     -0.606999993       2096.05713       1.60685551    
   1.44430494       2.16155505     -0.517000020       2096.05713       1.60685551    
   1.83825099       1.83825099     -0.517000020       2096.05713       1.60685551    
   1.32730997       1.32730997     -0.606999993       2096.05713       1.60685551    
   1.32730997       1.32730997     -0.606999993       2585.27197       1.60470247    
  0.965201020      0.965201020     -0.606999993       2585.27197       1.60470247    
  0.758352995       1.13495600     -0.606999993       2585.27197       1.60470247    
   1.04286098       1.56075203     -0.606999993       2585.27197       1.60470247    
   1.32730997       1.32730997     -0.606999993       2101.63965       1.60681570    
   1.83825099       1.83825099     -0.517000020       2101.63965       1.60681570    
   2.16155505       1.44430494     -0.517000020       2101.63965       1.60681570    
   1.56075203       1.04286098     -0.606999993       2101.63965       1.60681570    
   1.56075203       1.04286098     -0.606999993       2589.36694       1.60468686    
   1.13495600      0.758352995     -0.606999993       2589.36694       1.60468686    
  0.965201020      0.965201020     -0.606999993       2589.36694       1.60468686    
   1.32730997       1.32730997     -0.606999993       2589.36694       1.60468686    
   1.56075203       1.04286098     -0.606999993       2104.25049       1.60678041    
   2.16155505       1.44430494     -0.517000020       2104.25049       1.60678041    
   2.40179110      0.994853973     -0.517000020       2104.25049       1.60678041    
   1.73421395      0.718334973     -0.606999993       2104.25049       1.60678041    
   1.73421395      0.718334973     -0.606999993       2591.68652       1.60464489    
   1.26109600      0.522363007     -0.606999993       2591.68652       1.60464489    
   1.13495600      0.758352995     -0.606999993       2591.68652       1.60464489    
   1.56075203       1.04286098     -0.606999993       2591.68652       1.60464489    
   1.73421395      0.718334973     -0.606999993       2101.37500       1.60678852    
   2.40179110      0.994853973     -0.517000020       2101.37500       1.60678852    
   2.54972792      0.507171988     -0.517000020       2101.37500       1.60678852    
   1.84103203      0.366203994     -0.606999993       2101.37500       1.60678852    
   1.84103203      0.366203994     -0.606999993       2591.09888       1.60459542    
   1.33877206      0.266297996     -0.606999993       2591.09888       1.60459542    
   1.26109600      0.522363007     -0.606999993       2591.09888       1.60459542    
   1.73421395      0.718334973     -0.606999993       2591.09888       1.60459542    
   1.84103203      0.366203994     -0.606999993       2097.35864       1.60677934    
   2.54972792      0.507171988     -0.517000020       2097.35864       1.60677934    
   2.59967995       0.00000000     -0.517000020       2097.35864       1.60677934    
   1.87709999       0.00000000     -0.606999993       2097.35864       1.60677934    
   1.87709999       0.00000000     -0.606999993       2589.38281       1.60452974    
   1.36500001       0.00000000     -0.606999993       2589.38281       1.60452974    
   1.33877206      0.266297996     -0.606999993       2589.38281       1.60452974    
   1.84103203      0.366203994     -0.606999993       2589.38281       1.60452974    
   1.87709999       0.00000000     -0.606999993       2096.87524       1.60669875    
   2.59967995       0.00000000     -0.517000020       2096.87524       1.60669875    
   2.54972792     -0.507171988     -0.517000020       2096.87524       1.60669875    
   1.84103203     -0.366203994     -0.606999993       2096.87524       1.60669875    
   1.84103203     -0.366203994     -0.606999993       2588.63135       1.60443604    
   1.33877206     -0.266297996     -0.606999993       2588.63135       1.60443604    
   1.36500001       0.00000000     -0.606999993       2588.63135       1.60443604    
   1.87709999       0.00000000     -0.606999993       2588.63135       1.60443604    
   1.84103203     -0.366203994     -0.606999993       2099.16357       1.60657358    
   2.54972792     -0.507171988     -0.517000020       2099.16357       1.60657358    
   2.40179110     -0.994853973     -0.517000020       2099.16357       1.60657358    
   1.73421395     -0.718334973     -0.606999993       2099.16357       1.60657358    
   1.73421395     -0.718334973     -0.606999993       2588.39893       1.60433829    
   1.26109600     -0.522363007     -0.606999993       2588.39893       1.60433829    
   1.33877206     -0.266297996     -0.606999993       2588.39893       1.60433829    
   1.84103203     -0.366203994     -0.606999993       2588.39893       1.60433829    
   1.73421395     -0.718334973     -0.606999993       2099.10889       1.60650229    
   2.40179110     -0.994853973     -0.517000020       2099.10889       1.60650229    
   2.16155505      -1.44430494     -0.517000020       2099.10889       1.60650229    
   1.56075203      -1.04286098     -0.606999993       2099.10889       1.60650229    
   1.56075203      -1.04286098     -0.606999993       2586.37427       1.60428202    
   1.13495600     -0.758352995     -0.606999993       2586.37427       1.60428202    
   1.26109600     -0.522363007     -0.606999993       2586.37427       1.60428202    