 VARIABLES="X" "Y" "Z" "abs(p) (Pa)" "angle(p) (rad)"
ZONE N=   2709,E =    2358, F=FEPOINT, ET=QUADRILATERAL
   0.00000000      -5.48999977     -0.157000005       141.464188      -2.90686369    
   0.00000000      -4.76741982     -0.246999994       141.464188      -2.90686369    
  0.930077016      -4.67581606     -0.246999994       141.464188      -2.90686369    
   1.07104599      -5.38451099     -0.157000005       141.464188      -2.90686369    
  -1.07104599      -5.38451099     -0.157000005       141.426163      -2.90768385    
 -0.930077016      -4.67581606     -0.246999994       141.426163      -2.90768385    
   0.00000000      -4.76741982     -0.246999994       141.426163      -2.90768385    
   0.00000000      -5.48999977     -0.157000005       141.426163      -2.90768385    
  -2.10093188      -5.07209921     -0.157000005       133.639099      -2.92754936    
  -1.82441294      -4.40452194     -0.246999994       133.639099      -2.92754936    
 -0.930077016      -4.67581606     -0.246999994       133.639099      -2.92754936    
  -1.07104599      -5.38451099     -0.157000005       133.639099      -2.92754936    
  -3.05008101      -4.56476784     -0.157000005       126.165657      -2.90965700    
  -2.64863706      -3.96396494     -0.246999994       126.165657      -2.90965700    
  -1.82441294      -4.40452194     -0.246999994       126.165657      -2.90965700    
  -2.10093188      -5.07209921     -0.157000005       126.165657      -2.90965700    
  -3.88201594      -3.88201594     -0.157000005       110.845032      -2.92283845    
  -3.37107491      -3.37107491     -0.246999994       110.845032      -2.92283845    
  -2.64863706      -3.96396494     -0.246999994       110.845032      -2.92283845    
  -3.05008101      -4.56476784     -0.157000005       110.845032      -2.92283845    
  -4.56476784      -3.05008101     -0.157000005       88.8843155      -2.96196580    
  -3.96396494      -2.64863706     -0.246999994       88.8843155      -2.96196580    
  -3.37107491      -3.37107491     -0.246999994       88.8843155      -2.96196580    
  -3.88201594      -3.88201594     -0.157000005       88.8843155      -2.96196580    
  -5.07209921      -2.10093188     -0.157000005       68.0113449      -2.93671679    
  -4.40452194      -1.82441294     -0.246999994       68.0113449      -2.93671679    
  -3.96396494      -2.64863706     -0.246999994       68.0113449      -2.93671679    
  -4.56476784      -3.05008101     -0.157000005       68.0113449      -2.93671679    
  -5.38451099      -1.07104599     -0.157000005       42.9393349      -2.91344380    
  -4.67581606     -0.930077016     -0.246999994       42.9393349      -2.91344380    
  -4.40452194      -1.82441294     -0.246999994       42.9393349      -2.91344380    
  -5.07209921      -2.10093188     -0.157000005       42.9393349      -2.91344380    
  -5.48999977       0.00000000     -0.157000005       15.1066923      -2.90782118    
  -4.76741982       0.00000000     -0.246999994       15.1066923      -2.90782118    
  -4.67581606     -0.930077016     -0.246999994       15.1066923      -2.90782118    
  -5.38451099      -1.07104599     -0.157000005       15.1066923      -2.90782118    
  -5.38451099       1.07104599     -0.157000005       12.9717979      0.230293885    
  -4.67581606      0.930077016     -0.246999994       12.9717979      0.230293885    
  -4.76741982       0.00000000     -0.246999994       12.9717979      0.230293885    
  -5.48999977       0.00000000     -0.157000005       12.9717979      0.230293885    
  -5.07209921       2.10093188     -0.157000005       40.4588165      0.216161922    
  -4.40452194       1.82441294     -0.246999994       40.4588165      0.216161922    
  -4.67581606      0.930077016     -0.246999994       40.4588165      0.216161922    
  -5.38451099       1.07104599     -0.157000005       40.4588165      0.216161922    
  -4.56476784       3.05008101     -0.157000005       66.2335358      0.197678134    
  -3.96396494       2.64863706     -0.246999994       66.2335358      0.197678134    
  -4.40452194       1.82441294     -0.246999994       66.2335358      0.197678134    
  -5.07209921       2.10093188     -0.157000005       66.2335358      0.197678134    
  -3.88201594       3.88201594     -0.157000005       90.9415588      0.205837548    
  -3.37107491       3.37107491     -0.246999994       90.9415588      0.205837548    
  -3.96396494       2.64863706     -0.246999994       90.9415588      0.205837548    
  -4.56476784       3.05008101     -0.157000005       90.9415588      0.205837548    
  -3.05008101       4.56476784     -0.157000005       108.661125      0.192365274    
  -2.64863706       3.96396494     -0.246999994       108.661125      0.192365274    
  -3.37107491       3.37107491     -0.246999994       108.661125      0.192365274    
  -3.88201594       3.88201594     -0.157000005       108.661125      0.192365274    
  -2.10093188       5.07209921     -0.157000005       126.285721      0.224962845    
  -1.82441294       4.40452194     -0.246999994       126.285721      0.224962845    
  -2.64863706       3.96396494     -0.246999994       126.285721      0.224962845    
  -3.05008101       4.56476784     -0.157000005       126.285721      0.224962845    
  -1.07104599       5.38451099     -0.157000005       134.269180      0.211007252    
 -0.930077016       4.67581606     -0.246999994       134.269180      0.211007252    
  -1.82441294       4.40452194     -0.246999994       134.269180      0.211007252    
  -2.10093188       5.07209921     -0.157000005       134.269180      0.211007252    
   0.00000000       5.48999977     -0.157000005       142.204315      0.230167642    
   0.00000000       4.76741982     -0.246999994       142.204315      0.230167642    
 -0.930077016       4.67581606     -0.246999994       142.204315      0.230167642    
  -1.07104599       5.38451099     -0.157000005       142.204315      0.230167642    
   1.07104599       5.38451099     -0.157000005       139.883530      0.213040277    
  0.930077016       4.67581606     -0.246999994       139.883530      0.213040277    
   0.00000000       4.76741982     -0.246999994       139.883530      0.213040277    
   0.00000000       5.48999977     -0.157000005       139.883530      0.213040277    
   2.10093188       5.07209921     -0.157000005       137.704987      0.230858982    
   1.82441294       4.40452194     -0.246999994       137.704987      0.230858982    
  0.930077016       4.67581606     -0.246999994       137.704987      0.230858982    
   1.07104599       5.38451099     -0.157000005       137.704987      0.230858982    
   3.05008101       4.56476784     -0.157000005       127.486382      0.226727605    
   2.64863706       3.96396494     -0.246999994       127.486382      0.226727605    
   1.82441294       4.40452194     -0.246999994       127.486382      0.226727605    
   2.10093188       5.07209921     -0.157000005       127.486382      0.226727605    
   3.88201594       3.88201594     -0.157000005       109.242607      0.188122541    
   3.37107491       3.37107491     -0.246999994       109.242607      0.188122541    
   2.64863706       3.96396494     -0.246999994       109.242607      0.188122541    
   3.05008101       4.56476784     -0.157000005       109.242607      0.188122541    
   4.56476784       3.05008101     -0.157000005       89.9641418      0.184244543    
   3.96396494       2.64863706     -0.246999994       89.9641418      0.184244543    
   3.37107491       3.37107491     -0.246999994       89.9641418      0.184244543    
   3.88201594       3.88201594     -0.157000005       89.9641418      0.184244543    
   5.07209921       2.10093188     -0.157000005       66.5186081      0.191193700    
   4.40452194       1.82441294     -0.246999994       66.5186081      0.191193700    
   3.96396494       2.64863706     -0.246999994       66.5186081      0.191193700    
   4.56476784       3.05008101     -0.157000005       66.5186081      0.191193700    
   5.38451099       1.07104599     -0.157000005       42.1988106      0.243801102    
   4.67581606      0.930077016     -0.246999994       42.1988106      0.243801102    
   4.40452194       1.82441294     -0.246999994       42.1988106      0.243801102    
   5.07209921       2.10093188     -0.157000005       42.1988106      0.243801102    
   5.48999977       0.00000000     -0.157000005       14.4258680      0.310019314    
   4.76741982       0.00000000     -0.246999994       14.4258680      0.310019314    
   4.67581606      0.930077016     -0.246999994       14.4258680      0.310019314    
   5.38451099       1.07104599     -0.157000005       14.4258680      0.310019314    
   5.38451099      -1.07104599     -0.157000005       14.4509420      -2.95135045    
   4.67581606     -0.930077016     -0.246999994       14.4509420      -2.95135045    
   4.76741982       0.00000000     -0.246999994       14.4509420      -2.95135045    
   5.48999977       0.00000000     -0.157000005       14.4509420      -2.95135045    
   5.07209921      -2.10093188     -0.157000005       42.4310760      -2.92358255    
   4.40452194      -1.82441294     -0.246999994       42.4310760      -2.92358255    
   4.67581606     -0.930077016     -0.246999994       42.4310760      -2.92358255    
   5.38451099      -1.07104599     -0.157000005       42.4310760      -2.92358255    
   4.56476784      -3.05008101     -0.157000005       68.3281860      -2.92993665    
   3.96396494      -2.64863706     -0.246999994       68.3281860      -2.92993665    
   4.40452194      -1.82441294     -0.246999994       68.3281860      -2.92993665    
   5.07209921      -2.10093188     -0.157000005       68.3281860      -2.92993665    
   3.88201594      -3.88201594     -0.157000005       91.1327438      -2.93355751    
   3.37107491      -3.37107491     -0.246999994       91.1327438      -2.93355751    
   3.96396494      -2.64863706     -0.246999994       91.1327438      -2.93355751    
   4.56476784      -3.05008101     -0.157000005       91.1327438      -2.93355751    
   3.05008101      -4.56476784     -0.157000005       108.339584      -2.94147396    
   2.64863706      -3.96396494     -0.246999994       108.339584      -2.94147396    
   3.37107491      -3.37107491     -0.246999994       108.339584      -2.94147396    
   3.88201594      -3.88201594     -0.157000005       108.339584      -2.94147396    
   2.10093188      -5.07209921     -0.157000005       125.777191      -2.90952635    
   1.82441294      -4.40452194     -0.246999994       125.777191      -2.90952635    
   2.64863706      -3.96396494     -0.246999994       125.777191      -2.90952635    
   3.05008101      -4.56476784     -0.157000005       125.777191      -2.90952635    
   1.07104599      -5.38451099     -0.157000005       136.232498      -2.90753078    
  0.930077016      -4.67581606     -0.246999994       136.232498      -2.90753078    
   1.82441294      -4.40452194     -0.246999994       136.232498      -2.90753078    
   2.10093188      -5.07209921     -0.157000005       136.232498      -2.90753078    
   0.00000000      -1.87709999     -0.606999993       1520.24463       1.58728099    
   0.00000000      -1.36500001     -0.606999993       1520.24463       1.58728099    
  0.266297996      -1.33877206     -0.606999993       1520.24463       1.58728099    
  0.366203994      -1.84103203     -0.606999993       1520.24463       1.58728099    
   0.00000000      -1.87709999     -0.606999993       837.112549       1.60374224    
   0.00000000      -2.59967995     -0.517000020       837.112549       1.60374224    
 -0.507171988      -2.54972792     -0.517000020       837.112549       1.60374224    
 -0.366203994      -1.84103203     -0.606999993       837.112549       1.60374224    
 -0.366203994      -1.84103203     -0.606999993       1521.02246       1.58728194    
 -0.266297996      -1.33877206     -0.606999993       1521.02246       1.58728194    
   0.00000000      -1.36500001     -0.606999993       1521.02246       1.58728194    
   0.00000000      -1.87709999     -0.606999993       1521.02246       1.58728194    
 -0.366203994      -1.84103203     -0.606999993       812.280334       1.60348749    
 -0.507171988      -2.54972792     -0.517000020       812.280334       1.60348749    
 -0.994853973      -2.40179110     -0.517000020       812.280334       1.60348749    
 -0.718334973      -1.73421395     -0.606999993       812.280334       1.60348749    
 -0.718334973      -1.73421395     -0.606999993       1469.55017       1.58725822    
 -0.522363007      -1.26109600     -0.606999993       1469.55017       1.58725822    
 -0.266297996      -1.33877206     -0.606999993       1469.55017       1.58725822    
 -0.366203994      -1.84103203     -0.606999993       1469.55017       1.58725822    
 -0.718334973      -1.73421395     -0.606999993       760.819092       1.60311508    
 -0.994853973      -2.40179110     -0.517000020       760.819092       1.60311508    
  -1.44430494      -2.16155505     -0.517000020       760.819092       1.60311508    
  -1.04286098      -1.56075203     -0.606999993       760.819092       1.60311508    
  -1.04286098      -1.56075203     -0.606999993       1364.49170       1.58722746    
 -0.758352995      -1.13495600     -0.606999993       1364.49170       1.58722746    
 -0.522363007      -1.26109600     -0.606999993       1364.49170       1.58722746    
 -0.718334973      -1.73421395     -0.606999993       1364.49170       1.58722746    
  -1.04286098      -1.56075203     -0.606999993       678.077515       1.60282815    
  -1.44430494      -2.16155505     -0.517000020       678.077515       1.60282815    
  -1.83825099      -1.83825099     -0.517000020       678.077515       1.60282815    
  -1.32730997      -1.32730997     -0.606999993       678.077515       1.60282815    
  -1.32730997      -1.32730997     -0.606999993       1204.42590       1.58723378    
 -0.965201020     -0.965201020     -0.606999993       1204.42590       1.58723378    
 -0.758352995      -1.13495600     -0.606999993       1204.42590       1.58723378    
  -1.04286098      -1.56075203     -0.606999993       1204.42590       1.58723378    
  -1.32730997      -1.32730997     -0.606999993       560.152405       1.60284996    
  -1.83825099      -1.83825099     -0.517000020       560.152405       1.60284996    
  -2.16155505      -1.44430494     -0.517000020       560.152405       1.60284996    
  -1.56075203      -1.04286098     -0.606999993       560.152405       1.60284996    
  -1.56075203      -1.04286098     -0.606999993       991.987488       1.58730507    
  -1.13495600     -0.758352995     -0.606999993       991.987488       1.58730507    
 -0.965201020     -0.965201020     -0.606999993       991.987488       1.58730507    
  -1.32730997      -1.32730997     -0.606999993       991.987488       1.58730507    
  -1.56075203      -1.04286098     -0.606999993       410.652649       1.60337901    
  -2.16155505      -1.44430494     -0.517000020       410.652649       1.60337901    
  -2.40179110     -0.994853973     -0.517000020       410.652649       1.60337901    
  -1.73421395     -0.718334973     -0.606999993       410.652649       1.60337901    
  -1.73421395     -0.718334973     -0.606999993       736.483398       1.58744645    
  -1.26109600     -0.522363007     -0.606999993       736.483398       1.58744645    
  -1.13495600     -0.758352995     -0.606999993       736.483398       1.58744645    
  -1.56075203      -1.04286098     -0.606999993       736.483398       1.58744645    
  -1.73421395     -0.718334973     -0.606999993       246.574310       1.60428166    
  -2.40179110     -0.994853973     -0.517000020       246.574310       1.60428166    
  -2.54972792     -0.507171988     -0.517000020       246.574310       1.60428166    
  -1.84103203     -0.366203994     -0.606999993       246.574310       1.60428166    
  -1.84103203     -0.366203994     -0.606999993       453.520721       1.58767653    
  -1.33877206     -0.266297996     -0.606999993       453.520721       1.58767653    
  -1.26109600     -0.522363007     -0.606999993       453.520721       1.58767653    
  -1.73421395     -0.718334973     -0.606999993       453.520721       1.58767653    
  -1.84103203     -0.366203994     -0.606999993       83.8395920       1.60542023    
  -2.54972792     -0.507171988     -0.517000020       83.8395920       1.60542023    
  -2.59967995       0.00000000     -0.517000020       83.8395920       1.60542023    
  -1.87709999       0.00000000     -0.606999993       83.8395920       1.60542023    
  -1.87709999       0.00000000     -0.606999993       158.285751       1.58843744    
  -1.36500001       0.00000000     -0.606999993       158.285751       1.58843744    
  -1.33877206     -0.266297996     -0.606999993       158.285751       1.58843744    
  -1.84103203     -0.366203994     -0.606999993       158.285751       1.58843744    
  -1.87709999       0.00000000     -0.606999993       72.9421616      -1.53671384    
  -2.59967995       0.00000000     -0.517000020       72.9421616      -1.53671384    
  -2.54972792      0.507171988     -0.517000020       72.9421616      -1.53671384    
  -1.84103203      0.366203994     -0.606999993       72.9421616      -1.53671384    
  -1.84103203      0.366203994     -0.606999993       138.678894      -1.55523598    
  -1.33877206      0.266297996     -0.606999993       138.678894      -1.55523598    
  -1.36500001       0.00000000     -0.606999993       138.678894      -1.55523598    
  -1.87709999       0.00000000     -0.606999993       138.678894      -1.55523598    
  -1.84103203      0.366203994     -0.606999993       231.634613      -1.53694057    
  -2.54972792      0.507171988     -0.517000020       231.634613      -1.53694057    
  -2.40179110      0.994853973     -0.517000020       231.634613      -1.53694057    
  -1.73421395      0.718334973     -0.606999993       231.634613      -1.53694057    
  -1.73421395      0.718334973     -0.606999993       431.905823      -1.55445921    
  -1.26109600      0.522363007     -0.606999993       431.905823      -1.55445921    
  -1.33877206      0.266297996     -0.606999993       431.905823      -1.55445921    
  -1.84103203      0.366203994     -0.606999993       431.905823      -1.55445921    
  -1.73421395      0.718334973     -0.606999993       392.549805      -1.53764069    
  -2.40179110      0.994853973     -0.517000020       392.549805      -1.53764069    
  -2.16155505       1.44430494     -0.517000020       392.549805      -1.53764069    
  -1.56075203       1.04286098     -0.606999993       392.549805      -1.53764069    
  -1.56075203       1.04286098     -0.606999993       713.251343      -1.55434966    
  -1.13495600      0.758352995     -0.606999993       713.251343      -1.55434966    
  -1.26109600      0.522363007     -0.606999993       713.251343      -1.55434966    
  -1.73421395      0.718334973     -0.606999993       713.251343      -1.55434966    
  -1.56075203       1.04286098     -0.606999993       543.408691      -1.53822958    
  -2.16155505       1.44430494     -0.517000020       543.408691      -1.53822958    
  -1.83825099       1.83825099     -0.517000020       543.408691      -1.53822958    
  -1.32730997       1.32730997     -0.606999993       543.408691      -1.53822958    
  -1.32730997       1.32730997     -0.606999993       969.636292      -1.55433047    
 -0.965201020      0.965201020     -0.606999993       969.636292      -1.55433047    
  -1.13495600      0.758352995     -0.606999993       969.636292      -1.55433047    
  -1.56075203       1.04286098     -0.606999993       969.636292      -1.55433047    
  -1.32730997       1.32730997     -0.606999993       666.132690      -1.53837514    
  -1.83825099       1.83825099     -0.517000020       666.132690      -1.53837514    
  -1.44430494       2.16155505     -0.517000020       666.132690      -1.53837514    
  -1.04286098       1.56075203     -0.606999993       666.132690      -1.53837514    
  -1.04286098       1.56075203     -0.606999993       1185.40173      -1.55430269    
 -0.758352995       1.13495600     -0.606999993       1185.40173      -1.55430269    
 -0.965201020      0.965201020     -0.606999993       1185.40173      -1.55430269    
  -1.32730997       1.32730997     -0.606999993       1185.40173      -1.55430269    
  -1.04286098       1.56075203     -0.606999993       753.774902      -1.53817582    
  -1.44430494       2.16155505     -0.517000020       753.774902      -1.53817582    
 -0.994853973       2.40179110     -0.517000020       753.774902      -1.53817582    
 -0.718334973       1.73421395     -0.606999993       753.774902      -1.53817582    
 -0.718334973       1.73421395     -0.606999993       1350.10852      -1.55425286    
 -0.522363007       1.26109600     -0.606999993       1350.10852      -1.55425286    
 -0.758352995       1.13495600     -0.606999993       1350.10852      -1.55425286    
  -1.04286098       1.56075203     -0.606999993       1350.10852      -1.55425286    
 -0.718334973       1.73421395     -0.606999993       808.622131      -1.53784597    
 -0.994853973       2.40179110     -0.517000020       808.622131      -1.53784597    
 -0.507171988       2.54972792     -0.517000020       808.622131      -1.53784597    
 -0.366203994       1.84103203     -0.606999993       808.622131      -1.53784597    
 -0.366203994       1.84103203     -0.606999993       1459.57031      -1.55418777    
 -0.266297996       1.33877206     -0.606999993       1459.57031      -1.55418777    
 -0.522363007       1.26109600     -0.606999993       1459.57031      -1.55418777    
 -0.718334973       1.73421395     -0.606999993       1459.57031      -1.55418777    
 -0.366203994       1.84103203     -0.606999993       835.490723      -1.53760767    
 -0.507171988       2.54972792     -0.517000020       835.490723      -1.53760767    
   0.00000000       2.59967995     -0.517000020       835.490723      -1.53760767    
   0.00000000       1.87709999     -0.606999993       835.490723      -1.53760767    
   0.00000000       1.87709999     -0.606999993       1514.32300      -1.55414104    
   0.00000000       1.36500001     -0.606999993       1514.32300      -1.55414104    
 -0.266297996       1.33877206     -0.606999993       1514.32300      -1.55414104    
 -0.366203994       1.84103203     -0.606999993       1514.32300      -1.55414104    
   0.00000000       1.87709999     -0.606999993       836.072266      -1.53759968    
   0.00000000       2.59967995     -0.517000020       836.072266      -1.53759968    
  0.507171988       2.54972792     -0.517000020       836.072266      -1.53759968    
  0.366203994       1.84103203     -0.606999993       836.072266      -1.53759968    
  0.366203994       1.84103203     -0.606999993       1515.26733      -1.55413508    
  0.266297996       1.33877206     -0.606999993       1515.26733      -1.55413508    
   0.00000000       1.36500001     -0.606999993       1515.26733      -1.55413508    
   0.00000000       1.87709999     -0.606999993       1515.26733      -1.55413508    
  0.366203994       1.84103203     -0.606999993       810.357483      -1.53783393    
  0.507171988       2.54972792     -0.517000020       810.357483      -1.53783393    
  0.994853973       2.40179110     -0.517000020       810.357483      -1.53783393    
  0.718334973       1.73421395     -0.606999993       810.357483      -1.53783393    
  0.718334973       1.73421395     -0.606999993       1462.35657      -1.55417085    
  0.522363007       1.26109600     -0.606999993       1462.35657      -1.55417085    
  0.266297996       1.33877206     -0.606999993       1462.35657      -1.55417085    
  0.366203994       1.84103203     -0.606999993       1462.35657      -1.55417085    
  0.718334973       1.73421395     -0.606999993       756.628174      -1.53818309    
  0.994853973       2.40179110     -0.517000020       756.628174      -1.53818309    
   1.44430494       2.16155505     -0.517000020       756.628174      -1.53818309    
   1.04286098       1.56075203     -0.606999993       756.628174      -1.53818309    
   1.04286098       1.56075203     -0.606999993       1354.57397      -1.55423033    
  0.758352995       1.13495600     -0.606999993       1354.57397      -1.55423033    
  0.522363007       1.26109600     -0.606999993       1354.57397      -1.55423033    
  0.718334973       1.73421395     -0.606999993       1354.57397      -1.55423033    
   1.04286098       1.56075203     -0.606999993       670.036316      -1.53840470    
   1.44430494       2.16155505     -0.517000020       670.036316      -1.53840470    
   1.83825099       1.83825099     -0.517000020       670.036316      -1.53840470    
   1.32730997       1.32730997     -0.606999993       670.036316      -1.53840470    
   1.32730997       1.32730997     -0.606999993       1191.36670      -1.55427587    
  0.965201020      0.965201020     -0.606999993       1191.36670      -1.55427587    
  0.758352995       1.13495600     -0.606999993       1191.36670      -1.55427587    
   1.04286098       1.56075203     -0.606999993       1191.36670      -1.55427587    
   1.32730997       1.32730997     -0.606999993       548.158020      -1.53831363    
   1.83825099       1.83825099     -0.517000020       548.158020      -1.53831363    
   2.16155505       1.44430494     -0.517000020       548.158020      -1.53831363    
   1.56075203       1.04286098     -0.606999993       548.158020      -1.53831363    
   1.56075203       1.04286098     -0.606999993       976.730286      -1.55429637    
   1.13495600      0.758352995     -0.606999993       976.730286      -1.55429637    
  0.965201020      0.965201020     -0.606999993       976.730286      -1.55429637    
   1.32730997       1.32730997     -0.606999993       976.730286      -1.55429637    
   1.56075203       1.04286098     -0.606999993       397.797516      -1.53780782    
   2.16155505       1.44430494     -0.517000020       397.797516      -1.53780782    
   2.40179110      0.994853973     -0.517000020       397.797516      -1.53780782    
   1.73421395      0.718334973     -0.606999993       397.797516      -1.53780782    
   1.73421395      0.718334973     -0.606999993       720.876404      -1.55431223    
   1.26109600      0.522363007     -0.606999993       720.876404      -1.55431223    
   1.13495600      0.758352995     -0.606999993       720.876404      -1.55431223    
   1.56075203       1.04286098     -0.606999993       720.876404      -1.55431223    
   1.73421395      0.718334973     -0.606999993       237.038162      -1.53726280    
   2.40179110      0.994853973     -0.517000020       237.038162      -1.53726280    
   2.54972792      0.507171988     -0.517000020       237.038162      -1.53726280    
   1.84103203      0.366203994     -0.606999993       237.038162      -1.53726280    
   1.84103203      0.366203994     -0.606999993       439.628876      -1.55441737    
   1.33877206      0.266297996     -0.606999993       439.628876      -1.55441737    
   1.26109600      0.522363007     -0.606999993       439.628876      -1.55441737    
   1.73421395      0.718334973     -0.606999993       439.628876      -1.55441737    
   1.84103203      0.366203994     -0.606999993       78.2887421      -1.53781736    
   2.54972792      0.507171988     -0.517000020       78.2887421      -1.53781736    
   2.59967995       0.00000000     -0.517000020       78.2887421      -1.53781736    
   1.87709999       0.00000000     -0.606999993       78.2887421      -1.53781736    
   1.87709999       0.00000000     -0.606999993       146.274597      -1.55509651    
   1.36500001       0.00000000     -0.606999993       146.274597      -1.55509651    
   1.33877206      0.266297996     -0.606999993       146.274597      -1.55509651    
   1.84103203      0.366203994     -0.606999993       146.274597      -1.55509651    
   1.87709999       0.00000000     -0.606999993       78.6812210       1.60662568    
   2.59967995       0.00000000     -0.517000020       78.6812210       1.60662568    
   2.54972792     -0.507171988     -0.517000020       78.6812210       1.60662568    
   1.84103203     -0.366203994     -0.606999993       78.6812210       1.60662568    
   1.84103203     -0.366203994     -0.606999993       151.056900       1.58849072    
   1.33877206     -0.266297996     -0.606999993       151.056900       1.58849072    
   1.36500001       0.00000000     -0.606999993       151.056900       1.58849072    
   1.87709999       0.00000000     -0.606999993       151.056900       1.58849072    
   1.84103203     -0.366203994     -0.606999993       241.716507       1.60468531    
   2.54972792     -0.507171988     -0.517000020       241.716507       1.60468531    
   2.40179110     -0.994853973     -0.517000020       241.716507       1.60468531    
   1.73421395     -0.718334973     -0.606999993       241.716507       1.60468531    
   1.73421395     -0.718334973     -0.606999993       446.926941       1.58769941    
   1.26109600     -0.522363007     -0.606999993       446.926941       1.58769941    
   1.33877206     -0.266297996     -0.606999993       446.926941       1.58769941    
   1.84103203     -0.366203994     -0.606999993       446.926941       1.58769941    
   1.73421395     -0.718334973     -0.606999993       406.217590       1.60361803    
   2.40179110     -0.994853973     -0.517000020       406.217590       1.60361803    
   2.16155505      -1.44430494     -0.517000020       406.217590       1.60361803    
   1.56075203      -1.04286098     -0.606999993       406.217590       1.60361803    
   1.56075203      -1.04286098     -0.606999993       730.718994       1.58745837    
   1.13495600     -0.758352995     -0.606999993       730.718994       1.58745837    
   1.26109600     -0.522363007     -0.606999993       730.718994       1.58745837    