 VARIABLES="X" "Y" "Z" "abs(p) (Pa)" "angle(p) (rad)"
ZONE N=   2709,E =    2358, F=FEPOINT, ET=QUADRILATERAL
   0.00000000      -5.48999977     -0.157000005       20.6921272      -1.55989242    
   0.00000000      -4.76741982     -0.246999994       20.6921272      -1.55989242    
  0.930077016      -4.67581606     -0.246999994       20.6921272      -1.55989242    
   1.07104599      -5.38451099     -0.157000005       20.6921272      -1.55989242    
  -1.07104599      -5.38451099     -0.157000005       21.1848259       1.59219539    
 -0.930077016      -4.67581606     -0.246999994       21.1848259       1.59219539    
   0.00000000      -4.76741982     -0.246999994       21.1848259       1.59219539    
   0.00000000      -5.48999977     -0.157000005       21.1848259       1.59219539    
  -2.10093188      -5.07209921     -0.157000005       60.2127266       1.59459150    
  -1.82441294      -4.40452194     -0.246999994       60.2127266       1.59459150    
 -0.930077016      -4.67581606     -0.246999994       60.2127266       1.59459150    
  -1.07104599      -5.38451099     -0.157000005       60.2127266       1.59459150    
  -3.05008101      -4.56476784     -0.157000005       87.8125000       1.59341514    
  -2.64863706      -3.96396494     -0.246999994       87.8125000       1.59341514    
  -1.82441294      -4.40452194     -0.246999994       87.8125000       1.59341514    
  -2.10093188      -5.07209921     -0.157000005       87.8125000       1.59341514    
  -3.88201594      -3.88201594     -0.157000005       115.120613       1.59711945    
  -3.37107491      -3.37107491     -0.246999994       115.120613       1.59711945    
  -2.64863706      -3.96396494     -0.246999994       115.120613       1.59711945    
  -3.05008101      -4.56476784     -0.157000005       115.120613       1.59711945    
  -4.56476784      -3.05008101     -0.157000005       143.439743       1.60218799    
  -3.96396494      -2.64863706     -0.246999994       143.439743       1.60218799    
  -3.37107491      -3.37107491     -0.246999994       143.439743       1.60218799    
  -3.88201594      -3.88201594     -0.157000005       143.439743       1.60218799    
  -5.07209921      -2.10093188     -0.157000005       164.088318       1.59802783    
  -4.40452194      -1.82441294     -0.246999994       164.088318       1.59802783    
  -3.96396494      -2.64863706     -0.246999994       164.088318       1.59802783    
  -4.56476784      -3.05008101     -0.157000005       164.088318       1.59802783    
  -5.38451099      -1.07104599     -0.157000005       180.824387       1.59594035    
  -4.67581606     -0.930077016     -0.246999994       180.824387       1.59594035    
  -4.40452194      -1.82441294     -0.246999994       180.824387       1.59594035    
  -5.07209921      -2.10093188     -0.157000005       180.824387       1.59594035    
  -5.48999977       0.00000000     -0.157000005       185.765564       1.59681046    
  -4.76741982       0.00000000     -0.246999994       185.765564       1.59681046    
  -4.67581606     -0.930077016     -0.246999994       185.765564       1.59681046    
  -5.38451099      -1.07104599     -0.157000005       185.765564       1.59681046    
  -5.38451099       1.07104599     -0.157000005       186.578430       1.59758115    
  -4.67581606      0.930077016     -0.246999994       186.578430       1.59758115    
  -4.76741982       0.00000000     -0.246999994       186.578430       1.59758115    
  -5.48999977       0.00000000     -0.157000005       186.578430       1.59758115    
  -5.07209921       2.10093188     -0.157000005       186.271118       1.59955704    
  -4.40452194       1.82441294     -0.246999994       186.271118       1.59955704    
  -4.67581606      0.930077016     -0.246999994       186.271118       1.59955704    
  -5.38451099       1.07104599     -0.157000005       186.271118       1.59955704    
  -4.56476784       3.05008101     -0.157000005       169.946701       1.60310602    
  -3.96396494       2.64863706     -0.246999994       169.946701       1.60310602    
  -4.40452194       1.82441294     -0.246999994       169.946701       1.60310602    
  -5.07209921       2.10093188     -0.157000005       169.946701       1.60310602    
  -3.88201594       3.88201594     -0.157000005       144.979385       1.59716201    
  -3.37107491       3.37107491     -0.246999994       144.979385       1.59716201    
  -3.96396494       2.64863706     -0.246999994       144.979385       1.59716201    
  -4.56476784       3.05008101     -0.157000005       144.979385       1.59716201    
  -3.05008101       4.56476784     -0.157000005       118.268616       1.60086977    
  -2.64863706       3.96396494     -0.246999994       118.268616       1.60086977    
  -3.37107491       3.37107491     -0.246999994       118.268616       1.60086977    
  -3.88201594       3.88201594     -0.157000005       118.268616       1.60086977    
  -2.10093188       5.07209921     -0.157000005       87.6293793       1.59166539    
  -1.82441294       4.40452194     -0.246999994       87.6293793       1.59166539    
  -2.64863706       3.96396494     -0.246999994       87.6293793       1.59166539    
  -3.05008101       4.56476784     -0.157000005       87.6293793       1.59166539    
  -1.07104599       5.38451099     -0.157000005       58.9442444       1.59509969    
 -0.930077016       4.67581606     -0.246999994       58.9442444       1.59509969    
  -1.82441294       4.40452194     -0.246999994       58.9442444       1.59509969    
  -2.10093188       5.07209921     -0.157000005       58.9442444       1.59509969    
   0.00000000       5.48999977     -0.157000005       20.5169716       1.58235741    
   0.00000000       4.76741982     -0.246999994       20.5169716       1.58235741    
 -0.930077016       4.67581606     -0.246999994       20.5169716       1.58235741    
  -1.07104599       5.38451099     -0.157000005       20.5169716       1.58235741    
   1.07104599       5.38451099     -0.157000005       21.3411102      -1.53984201    
  0.930077016       4.67581606     -0.246999994       21.3411102      -1.53984201    
   0.00000000       4.76741982     -0.246999994       21.3411102      -1.53984201    
   0.00000000       5.48999977     -0.157000005       21.3411102      -1.53984201    
   2.10093188       5.07209921     -0.157000005       58.8404922      -1.54880214    
   1.82441294       4.40452194     -0.246999994       58.8404922      -1.54880214    
  0.930077016       4.67581606     -0.246999994       58.8404922      -1.54880214    
   1.07104599       5.38451099     -0.157000005       58.8404922      -1.54880214    
   3.05008101       4.56476784     -0.157000005       87.9086609      -1.54818916    
   2.64863706       3.96396494     -0.246999994       87.9086609      -1.54818916    
   1.82441294       4.40452194     -0.246999994       87.9086609      -1.54818916    
   2.10093188       5.07209921     -0.157000005       87.9086609      -1.54818916    
   3.88201594       3.88201594     -0.157000005       118.933876      -1.54033995    
   3.37107491       3.37107491     -0.246999994       118.933876      -1.54033995    
   2.64863706       3.96396494     -0.246999994       118.933876      -1.54033995    
   3.05008101       4.56476784     -0.157000005       118.933876      -1.54033995    
   4.56476784       3.05008101     -0.157000005       146.822159      -1.53909385    
   3.96396494       2.64863706     -0.246999994       146.822159      -1.53909385    
   3.37107491       3.37107491     -0.246999994       146.822159      -1.53909385    
   3.88201594       3.88201594     -0.157000005       146.822159      -1.53909385    
   5.07209921       2.10093188     -0.157000005       170.256378      -1.53897905    
   4.40452194       1.82441294     -0.246999994       170.256378      -1.53897905    
   3.96396494       2.64863706     -0.246999994       170.256378      -1.53897905    
   4.56476784       3.05008101     -0.157000005       170.256378      -1.53897905    
   5.38451099       1.07104599     -0.157000005       184.353851      -1.54541755    
   4.67581606      0.930077016     -0.246999994       184.353851      -1.54541755    
   4.40452194       1.82441294     -0.246999994       184.353851      -1.54541755    
   5.07209921       2.10093188     -0.157000005       184.353851      -1.54541755    
   5.48999977       0.00000000     -0.157000005       184.401855      -1.54750478    
   4.76741982       0.00000000     -0.246999994       184.401855      -1.54750478    
   4.67581606      0.930077016     -0.246999994       184.401855      -1.54750478    
   5.38451099       1.07104599     -0.157000005       184.401855      -1.54750478    
   5.38451099      -1.07104599     -0.157000005       183.410751      -1.54719853    
   4.67581606     -0.930077016     -0.246999994       183.410751      -1.54719853    
   4.76741982       0.00000000     -0.246999994       183.410751      -1.54719853    
   5.48999977       0.00000000     -0.157000005       183.410751      -1.54719853    
   5.07209921      -2.10093188     -0.157000005       180.876205      -1.54562354    
   4.40452194      -1.82441294     -0.246999994       180.876205      -1.54562354    
   4.67581606     -0.930077016     -0.246999994       180.876205      -1.54562354    
   5.38451099      -1.07104599     -0.157000005       180.876205      -1.54562354    
   4.56476784      -3.05008101     -0.157000005       163.879700      -1.54284847    
   3.96396494      -2.64863706     -0.246999994       163.879700      -1.54284847    
   4.40452194      -1.82441294     -0.246999994       163.879700      -1.54284847    
   5.07209921      -2.10093188     -0.157000005       163.879700      -1.54284847    
   3.88201594      -3.88201594     -0.157000005       141.312088      -1.54419386    
   3.37107491      -3.37107491     -0.246999994       141.312088      -1.54419386    
   3.96396494      -2.64863706     -0.246999994       141.312088      -1.54419386    
   4.56476784      -3.05008101     -0.157000005       141.312088      -1.54419386    
   3.05008101      -4.56476784     -0.157000005       116.400162      -1.54120433    
   2.64863706      -3.96396494     -0.246999994       116.400162      -1.54120433    
   3.37107491      -3.37107491     -0.246999994       116.400162      -1.54120433    
   3.88201594      -3.88201594     -0.157000005       116.400162      -1.54120433    
   2.10093188      -5.07209921     -0.157000005       87.3315506      -1.54929519    
   1.82441294      -4.40452194     -0.246999994       87.3315506      -1.54929519    
   2.64863706      -3.96396494     -0.246999994       87.3315506      -1.54929519    
   3.05008101      -4.56476784     -0.157000005       87.3315506      -1.54929519    
   1.07104599      -5.38451099     -0.157000005       59.0052948      -1.55198467    
  0.930077016      -4.67581606     -0.246999994       59.0052948      -1.55198467    
   1.82441294      -4.40452194     -0.246999994       59.0052948      -1.55198467    
   2.10093188      -5.07209921     -0.157000005       59.0052948      -1.55198467    
   0.00000000      -1.87709999     -0.606999993       1036.49207      -1.57137156    
   0.00000000      -1.36500001     -0.606999993       1036.49207      -1.57137156    
  0.266297996      -1.33877206     -0.606999993       1036.49207      -1.57137156    
  0.366203994      -1.84103203     -0.606999993       1036.49207      -1.57137156    
   0.00000000      -1.87709999     -0.606999993       129.575256       1.55363536    
   0.00000000      -2.59967995     -0.517000020       129.575256       1.55363536    
 -0.507171988      -2.54972792     -0.517000020       129.575256       1.55363536    
 -0.366203994      -1.84103203     -0.606999993       129.575256       1.55363536    
 -0.366203994      -1.84103203     -0.606999993       1212.58582       1.57054675    
 -0.266297996      -1.33877206     -0.606999993       1212.58582       1.57054675    
   0.00000000      -1.36500001     -0.606999993       1212.58582       1.57054675    
   0.00000000      -1.87709999     -0.606999993       1212.58582       1.57054675    
 -0.366203994      -1.84103203     -0.606999993       285.655090       1.54992151    
 -0.507171988      -2.54972792     -0.517000020       285.655090       1.54992151    
 -0.994853973      -2.40179110     -0.517000020       285.655090       1.54992151    
 -0.718334973      -1.73421395     -0.606999993       285.655090       1.54992151    
 -0.718334973      -1.73421395     -0.606999993       3374.44409       1.57067740    
 -0.522363007      -1.26109600     -0.606999993       3374.44409       1.57067740    
 -0.266297996      -1.33877206     -0.606999993       3374.44409       1.57067740    
 -0.366203994      -1.84103203     -0.606999993       3374.44409       1.57067740    
 -0.718334973      -1.73421395     -0.606999993       356.292694       1.54803002    
 -0.994853973      -2.40179110     -0.517000020       356.292694       1.54803002    
  -1.44430494      -2.16155505     -0.517000020       356.292694       1.54803002    
  -1.04286098      -1.56075203     -0.606999993       356.292694       1.54803002    
  -1.04286098      -1.56075203     -0.606999993       5335.38721       1.57100868    
 -0.758352995      -1.13495600     -0.606999993       5335.38721       1.57100868    
 -0.522363007      -1.26109600     -0.606999993       5335.38721       1.57100868    
 -0.718334973      -1.73421395     -0.606999993       5335.38721       1.57100868    
  -1.04286098      -1.56075203     -0.606999993       391.261200       1.54737389    
  -1.44430494      -2.16155505     -0.517000020       391.261200       1.54737389    
  -1.83825099      -1.83825099     -0.517000020       391.261200       1.54737389    
  -1.32730997      -1.32730997     -0.606999993       391.261200       1.54737389    
  -1.32730997      -1.32730997     -0.606999993       7057.13770       1.57129693    
 -0.965201020     -0.965201020     -0.606999993       7057.13770       1.57129693    
 -0.758352995      -1.13495600     -0.606999993       7057.13770       1.57129693    
  -1.04286098      -1.56075203     -0.606999993       7057.13770       1.57129693    
  -1.32730997      -1.32730997     -0.606999993       445.641846       1.54748666    
  -1.83825099      -1.83825099     -0.517000020       445.641846       1.54748666    
  -2.16155505      -1.44430494     -0.517000020       445.641846       1.54748666    
  -1.56075203      -1.04286098     -0.606999993       445.641846       1.54748666    
  -1.56075203      -1.04286098     -0.606999993       8540.71875       1.57140887    
  -1.13495600     -0.758352995     -0.606999993       8540.71875       1.57140887    
 -0.965201020     -0.965201020     -0.606999993       8540.71875       1.57140887    
  -1.32730997      -1.32730997     -0.606999993       8540.71875       1.57140887    
  -1.56075203      -1.04286098     -0.606999993       553.374817       1.54802179    
  -2.16155505      -1.44430494     -0.517000020       553.374817       1.54802179    
  -2.40179110     -0.994853973     -0.517000020       553.374817       1.54802179    
  -1.73421395     -0.718334973     -0.606999993       553.374817       1.54802179    
  -1.73421395     -0.718334973     -0.606999993       9779.84180       1.57133746    
  -1.26109600     -0.522363007     -0.606999993       9779.84180       1.57133746    
  -1.13495600     -0.758352995     -0.606999993       9779.84180       1.57133746    
  -1.56075203      -1.04286098     -0.606999993       9779.84180       1.57133746    
  -1.73421395     -0.718334973     -0.606999993       690.126526       1.54845572    
  -2.40179110     -0.994853973     -0.517000020       690.126526       1.54845572    
  -2.54972792     -0.507171988     -0.517000020       690.126526       1.54845572    
  -1.84103203     -0.366203994     -0.606999993       690.126526       1.54845572    
  -1.84103203     -0.366203994     -0.606999993       10709.5908       1.57117927    
  -1.33877206     -0.266297996     -0.606999993       10709.5908       1.57117927    
  -1.26109600     -0.522363007     -0.606999993       10709.5908       1.57117927    
  -1.73421395     -0.718334973     -0.606999993       10709.5908       1.57117927    
  -1.84103203     -0.366203994     -0.606999993       795.025452       1.54881239    
  -2.54972792     -0.507171988     -0.517000020       795.025452       1.54881239    
  -2.59967995       0.00000000     -0.517000020       795.025452       1.54881239    
  -1.87709999       0.00000000     -0.606999993       795.025452       1.54881239    
  -1.87709999       0.00000000     -0.606999993       11228.4971       1.57105291    
  -1.36500001       0.00000000     -0.606999993       11228.4971       1.57105291    
  -1.33877206     -0.266297996     -0.606999993       11228.4971       1.57105291    
  -1.84103203     -0.366203994     -0.606999993       11228.4971       1.57105291    
  -1.87709999       0.00000000     -0.606999993       813.566223       1.54929411    
  -2.59967995       0.00000000     -0.517000020       813.566223       1.54929411    
  -2.54972792      0.507171988     -0.517000020       813.566223       1.54929411    
  -1.84103203      0.366203994     -0.606999993       813.566223       1.54929411    
  -1.84103203      0.366203994     -0.606999993       11251.6104       1.57103586    
  -1.33877206      0.266297996     -0.606999993       11251.6104       1.57103586    
  -1.36500001       0.00000000     -0.606999993       11251.6104       1.57103586    
  -1.87709999       0.00000000     -0.606999993       11251.6104       1.57103586    
  -1.84103203      0.366203994     -0.606999993       734.869080       1.54990697    
  -2.54972792      0.507171988     -0.517000020       734.869080       1.54990697    
  -2.40179110      0.994853973     -0.517000020       734.869080       1.54990697    
  -1.73421395      0.718334973     -0.606999993       734.869080       1.54990697    
  -1.73421395      0.718334973     -0.606999993       10764.5205       1.57113957    
  -1.26109600      0.522363007     -0.606999993       10764.5205       1.57113957    
  -1.33877206      0.266297996     -0.606999993       10764.5205       1.57113957    
  -1.84103203      0.366203994     -0.606999993       10764.5205       1.57113957    
  -1.73421395      0.718334973     -0.606999993       598.848877       1.55025780    
  -2.40179110      0.994853973     -0.517000020       598.848877       1.55025780    
  -2.16155505       1.44430494     -0.517000020       598.848877       1.55025780    
  -1.56075203       1.04286098     -0.606999993       598.848877       1.55025780    
  -1.56075203       1.04286098     -0.606999993       9833.27637       1.57130289    
  -1.13495600      0.758352995     -0.606999993       9833.27637       1.57130289    
  -1.26109600      0.522363007     -0.606999993       9833.27637       1.57130289    
  -1.73421395      0.718334973     -0.606999993       9833.27637       1.57130289    
  -1.56075203       1.04286098     -0.606999993       474.656067       1.54994094    
  -2.16155505       1.44430494     -0.517000020       474.656067       1.54994094    
  -1.83825099       1.83825099     -0.517000020       474.656067       1.54994094    
  -1.32730997       1.32730997     -0.606999993       474.656067       1.54994094    
  -1.32730997       1.32730997     -0.606999993       8558.64844       1.57140923    
 -0.965201020      0.965201020     -0.606999993       8558.64844       1.57140923    
  -1.13495600      0.758352995     -0.606999993       8558.64844       1.57140923    
  -1.56075203       1.04286098     -0.606999993       8558.64844       1.57140923    
  -1.32730997       1.32730997     -0.606999993       402.240570       1.54918563    
  -1.83825099       1.83825099     -0.517000020       402.240570       1.54918563    
  -1.44430494       2.16155505     -0.517000020       402.240570       1.54918563    
  -1.04286098       1.56075203     -0.606999993       402.240570       1.54918563    
  -1.04286098       1.56075203     -0.606999993       7019.14844       1.57134449    
 -0.758352995       1.13495600     -0.606999993       7019.14844       1.57134449    
 -0.965201020      0.965201020     -0.606999993       7019.14844       1.57134449    
  -1.32730997       1.32730997     -0.606999993       7019.14844       1.57134449    
  -1.04286098       1.56075203     -0.606999993       350.057709       1.54856694    
  -1.44430494       2.16155505     -0.517000020       350.057709       1.54856694    
 -0.994853973       2.40179110     -0.517000020       350.057709       1.54856694    
 -0.718334973       1.73421395     -0.606999993       350.057709       1.54856694    
 -0.718334973       1.73421395     -0.606999993       5239.57031       1.57108629    
 -0.522363007       1.26109600     -0.606999993       5239.57031       1.57108629    
 -0.758352995       1.13495600     -0.606999993       5239.57031       1.57108629    
  -1.04286098       1.56075203     -0.606999993       5239.57031       1.57108629    
 -0.718334973       1.73421395     -0.606999993       259.871674       1.54857624    
 -0.994853973       2.40179110     -0.517000020       259.871674       1.54857624    
 -0.507171988       2.54972792     -0.517000020       259.871674       1.54857624    
 -0.366203994       1.84103203     -0.606999993       259.871674       1.54857624    
 -0.366203994       1.84103203     -0.606999993       3233.69458       1.57073343    
 -0.266297996       1.33877206     -0.606999993       3233.69458       1.57073343    
 -0.522363007       1.26109600     -0.606999993       3233.69458       1.57073343    
 -0.718334973       1.73421395     -0.606999993       3233.69458       1.57073343    
 -0.366203994       1.84103203     -0.606999993       84.8369751       1.54525614    
 -0.507171988       2.54972792     -0.517000020       84.8369751       1.54525614    
   0.00000000       2.59967995     -0.517000020       84.8369751       1.54525614    
   0.00000000       1.87709999     -0.606999993       84.8369751       1.54525614    
   0.00000000       1.87709999     -0.606999993       1048.12061       1.57037020    
   0.00000000       1.36500001     -0.606999993       1048.12061       1.57037020    
 -0.266297996       1.33877206     -0.606999993       1048.12061       1.57037020    
 -0.366203994       1.84103203     -0.606999993       1048.12061       1.57037020    
   0.00000000       1.87709999     -0.606999993       126.663765      -1.58787799    
   0.00000000       2.59967995     -0.517000020       126.663765      -1.58787799    
  0.507171988       2.54972792     -0.517000020       126.663765      -1.58787799    
  0.366203994       1.84103203     -0.606999993       126.663765      -1.58787799    
  0.366203994       1.84103203     -0.606999993       1199.97424      -1.57087326    
  0.266297996       1.33877206     -0.606999993       1199.97424      -1.57087326    
   0.00000000       1.36500001     -0.606999993       1199.97424      -1.57087326    
   0.00000000       1.87709999     -0.606999993       1199.97424      -1.57087326    
  0.366203994       1.84103203     -0.606999993       294.034546      -1.59029055    
  0.507171988       2.54972792     -0.517000020       294.034546      -1.59029055    
  0.994853973       2.40179110     -0.517000020       294.034546      -1.59029055    
  0.718334973       1.73421395     -0.606999993       294.034546      -1.59029055    
  0.718334973       1.73421395     -0.606999993       3367.48657      -1.57076669    
  0.522363007       1.26109600     -0.606999993       3367.48657      -1.57076669    
  0.266297996       1.33877206     -0.606999993       3367.48657      -1.57076669    
  0.366203994       1.84103203     -0.606999993       3367.48657      -1.57076669    
  0.718334973       1.73421395     -0.606999993       371.356018      -1.59153521    
  0.994853973       2.40179110     -0.517000020       371.356018      -1.59153521    
   1.44430494       2.16155505     -0.517000020       371.356018      -1.59153521    
   1.04286098       1.56075203     -0.606999993       371.356018      -1.59153521    
   1.04286098       1.56075203     -0.606999993       5343.00928      -1.57047248    
  0.758352995       1.13495600     -0.606999993       5343.00928      -1.57047248    
  0.522363007       1.26109600     -0.606999993       5343.00928      -1.57047248    
  0.718334973       1.73421395     -0.606999993       5343.00928      -1.57047248    
   1.04286098       1.56075203     -0.606999993       409.961517      -1.59174705    
   1.44430494       2.16155505     -0.517000020       409.961517      -1.59174705    
   1.83825099       1.83825099     -0.517000020       409.961517      -1.59174705    
   1.32730997       1.32730997     -0.606999993       409.961517      -1.59174705    
   1.32730997       1.32730997     -0.606999993       7088.16699      -1.57023895    
  0.965201020      0.965201020     -0.606999993       7088.16699      -1.57023895    
  0.758352995       1.13495600     -0.606999993       7088.16699      -1.57023895    
   1.04286098       1.56075203     -0.606999993       7088.16699      -1.57023895    
   1.32730997       1.32730997     -0.606999993       471.788116      -1.59151590    
   1.83825099       1.83825099     -0.517000020       471.788116      -1.59151590    
   2.16155505       1.44430494     -0.517000020       471.788116      -1.59151590    
   1.56075203       1.04286098     -0.606999993       471.788116      -1.59151590    
   1.56075203       1.04286098     -0.606999993       8597.68066      -1.57018507    
   1.13495600      0.758352995     -0.606999993       8597.68066      -1.57018507    
  0.965201020      0.965201020     -0.606999993       8597.68066      -1.57018507    
   1.32730997       1.32730997     -0.606999993       8597.68066      -1.57018507    
   1.56075203       1.04286098     -0.606999993       591.379700      -1.59134853    
   2.16155505       1.44430494     -0.517000020       591.379700      -1.59134853    
   2.40179110      0.994853973     -0.517000020       591.379700      -1.59134853    
   1.73421395      0.718334973     -0.606999993       591.379700      -1.59134853    
   1.73421395      0.718334973     -0.606999993       9851.15918      -1.57029593    
   1.26109600      0.522363007     -0.606999993       9851.15918      -1.57029593    
   1.13495600      0.758352995     -0.606999993       9851.15918      -1.57029593    
   1.56075203       1.04286098     -0.606999993       9851.15918      -1.57029593    
   1.73421395      0.718334973     -0.606999993       729.482788      -1.59164977    
   2.40179110      0.994853973     -0.517000020       729.482788      -1.59164977    
   2.54972792      0.507171988     -0.517000020       729.482788      -1.59164977    
   1.84103203      0.366203994     -0.606999993       729.482788      -1.59164977    
   1.84103203      0.366203994     -0.606999993       10774.7275      -1.57045960    
   1.33877206      0.266297996     -0.606999993       10774.7275      -1.57045960    
   1.26109600      0.522363007     -0.606999993       10774.7275      -1.57045960    
   1.73421395      0.718334973     -0.606999993       10774.7275      -1.57045960    
   1.84103203      0.366203994     -0.606999993       816.147156      -1.59210849    
   2.54972792      0.507171988     -0.517000020       816.147156      -1.59210849    
   2.59967995       0.00000000     -0.517000020       816.147156      -1.59210849    
   1.87709999       0.00000000     -0.606999993       816.147156      -1.59210849    
   1.87709999       0.00000000     -0.606999993       11265.0654      -1.57055914    
   1.36500001       0.00000000     -0.606999993       11265.0654      -1.57055914    
   1.33877206      0.266297996     -0.606999993       11265.0654      -1.57055914    
   1.84103203      0.366203994     -0.606999993       11265.0654      -1.57055914    
   1.87709999       0.00000000     -0.606999993       807.930481      -1.59238136    
   2.59967995       0.00000000     -0.517000020       807.930481      -1.59238136    
   2.54972792     -0.507171988     -0.517000020       807.930481      -1.59238136    
   1.84103203     -0.366203994     -0.606999993       807.930481      -1.59238136    
   1.84103203     -0.366203994     -0.606999993       11248.9805      -1.57053578    
   1.33877206     -0.266297996     -0.606999993       11248.9805      -1.57053578    
   1.36500001       0.00000000     -0.606999993       11248.9805      -1.57053578    
   1.87709999       0.00000000     -0.606999993       11248.9805      -1.57053578    
   1.84103203     -0.366203994     -0.606999993       711.345764      -1.59249854    
   2.54972792     -0.507171988     -0.517000020       711.345764      -1.59249854    
   2.40179110     -0.994853973     -0.517000020       711.345764      -1.59249854    
   1.73421395     -0.718334973     -0.606999993       711.345764      -1.59249854    
   1.73421395     -0.718334973     -0.606999993       10733.6982      -1.57040477    
   1.26109600     -0.522363007     -0.606999993       10733.6982      -1.57040477    
   1.33877206     -0.266297996     -0.606999993       10733.6982      -1.57040477    
   1.84103203     -0.366203994     -0.606999993       10733.6982      -1.57040477    
   1.73421395     -0.718334973     -0.606999993       576.541382      -1.59277415    
   2.40179110     -0.994853973     -0.517000020       576.541382      -1.59277415    
   2.16155505      -1.44430494     -0.517000020       576.541382      -1.59277415    
   1.56075203      -1.04286098     -0.606999993       576.541382      -1.59277415    
   1.56075203      -1.04286098     -0.606999993       9797.33301      -1.57024717    
   1.13495600     -0.758352995     -0.606999993       9797.33301      -1.57024717    
   1.26109600     -0.522363007     -0.606999993       9797.33301      -1.57024717    