 VARIABLES="X" "Y" "Z" "abs(p) (Pa)" "angle(p) (rad)"
ZONE N=   2709,E =    2358, F=FEPOINT, ET=QUADRILATERAL
   0.00000000      -5.48999977     -0.157000005       464.354797      -1.63550258    
   0.00000000      -4.76741982     -0.246999994       464.354797      -1.63550258    
  0.930077016      -4.67581606     -0.246999994       464.354797      -1.63550258    
   1.07104599      -5.38451099     -0.157000005       464.354797      -1.63550258    
  -1.07104599      -5.38451099     -0.157000005       475.947510       1.51460183    
 -0.930077016      -4.67581606     -0.246999994       475.947510       1.51460183    
   0.00000000      -4.76741982     -0.246999994       475.947510       1.51460183    
   0.00000000      -5.48999977     -0.157000005       475.947510       1.51460183    
  -2.10093188      -5.07209921     -0.157000005       1410.34668       1.51280344    
  -1.82441294      -4.40452194     -0.246999994       1410.34668       1.51280344    
 -0.930077016      -4.67581606     -0.246999994       1410.34668       1.51280344    
  -1.07104599      -5.38451099     -0.157000005       1410.34668       1.51280344    
  -3.05008101      -4.56476784     -0.157000005       2243.93970       1.50955749    
  -2.64863706      -3.96396494     -0.246999994       2243.93970       1.50955749    
  -1.82441294      -4.40452194     -0.246999994       2243.93970       1.50955749    
  -2.10093188      -5.07209921     -0.157000005       2243.93970       1.50955749    
  -3.88201594      -3.88201594     -0.157000005       3016.19849       1.51253855    
  -3.37107491      -3.37107491     -0.246999994       3016.19849       1.51253855    
  -2.64863706      -3.96396494     -0.246999994       3016.19849       1.51253855    
  -3.05008101      -4.56476784     -0.157000005       3016.19849       1.51253855    
  -4.56476784      -3.05008101     -0.157000005       3730.29346       1.51797259    
  -3.96396494      -2.64863706     -0.246999994       3730.29346       1.51797259    
  -3.37107491      -3.37107491     -0.246999994       3730.29346       1.51797259    
  -3.88201594      -3.88201594     -0.157000005       3730.29346       1.51797259    
  -5.07209921      -2.10093188     -0.157000005       4201.19971       1.51467001    
  -4.40452194      -1.82441294     -0.246999994       4201.19971       1.51467001    
  -3.96396494      -2.64863706     -0.246999994       4201.19971       1.51467001    
  -4.56476784      -3.05008101     -0.157000005       4201.19971       1.51467001    
  -5.38451099      -1.07104599     -0.157000005       4558.68164       1.51158547    
  -4.67581606     -0.930077016     -0.246999994       4558.68164       1.51158547    
  -4.40452194      -1.82441294     -0.246999994       4558.68164       1.51158547    
  -5.07209921      -2.10093188     -0.157000005       4558.68164       1.51158547    
  -5.48999977       0.00000000     -0.157000005       4821.48975       1.51241255    
  -4.76741982       0.00000000     -0.246999994       4821.48975       1.51241255    
  -4.67581606     -0.930077016     -0.246999994       4821.48975       1.51241255    
  -5.38451099      -1.07104599     -0.157000005       4821.48975       1.51241255    
  -5.38451099       1.07104599     -0.157000005       4837.96631       1.51189780    
  -4.67581606      0.930077016     -0.246999994       4837.96631       1.51189780    
  -4.76741982       0.00000000     -0.246999994       4837.96631       1.51189780    
  -5.48999977       0.00000000     -0.157000005       4837.96631       1.51189780    
  -5.07209921       2.10093188     -0.157000005       4654.12158       1.51246071    
  -4.40452194       1.82441294     -0.246999994       4654.12158       1.51246071    
  -4.67581606      0.930077016     -0.246999994       4654.12158       1.51246071    
  -5.38451099       1.07104599     -0.157000005       4654.12158       1.51246071    
  -4.56476784       3.05008101     -0.157000005       4280.81738       1.51319861    
  -3.96396494       2.64863706     -0.246999994       4280.81738       1.51319861    
  -4.40452194       1.82441294     -0.246999994       4280.81738       1.51319861    
  -5.07209921       2.10093188     -0.157000005       4280.81738       1.51319861    
  -3.88201594       3.88201594     -0.157000005       3694.88208       1.51057661    
  -3.37107491       3.37107491     -0.246999994       3694.88208       1.51057661    
  -3.96396494       2.64863706     -0.246999994       3694.88208       1.51057661    
  -4.56476784       3.05008101     -0.157000005       3694.88208       1.51057661    
  -3.05008101       4.56476784     -0.157000005       3065.82471       1.51333416    
  -2.64863706       3.96396494     -0.246999994       3065.82471       1.51333416    
  -3.37107491       3.37107491     -0.246999994       3065.82471       1.51333416    
  -3.88201594       3.88201594     -0.157000005       3065.82471       1.51333416    
  -2.10093188       5.07209921     -0.157000005       2253.59961       1.51011872    
  -1.82441294       4.40452194     -0.246999994       2253.59961       1.51011872    
  -2.64863706       3.96396494     -0.246999994       2253.59961       1.51011872    
  -3.05008101       4.56476784     -0.157000005       2253.59961       1.51011872    
  -1.07104599       5.38451099     -0.157000005       1404.97168       1.51101053    
 -0.930077016       4.67581606     -0.246999994       1404.97168       1.51101053    
  -1.82441294       4.40452194     -0.246999994       1404.97168       1.51101053    
  -2.10093188       5.07209921     -0.157000005       1404.97168       1.51101053    
   0.00000000       5.48999977     -0.157000005       468.237213       1.50206852    
   0.00000000       4.76741982     -0.246999994       468.237213       1.50206852    
 -0.930077016       4.67581606     -0.246999994       468.237213       1.50206852    
  -1.07104599       5.38451099     -0.157000005       468.237213       1.50206852    
   1.07104599       5.38451099     -0.157000005       481.428711      -1.62449455    
  0.930077016       4.67581606     -0.246999994       481.428711      -1.62449455    
   0.00000000       4.76741982     -0.246999994       481.428711      -1.62449455    
   0.00000000       5.48999977     -0.157000005       481.428711      -1.62449455    
   2.10093188       5.07209921     -0.157000005       1388.22290      -1.63338542    
   1.82441294       4.40452194     -0.246999994       1388.22290      -1.63338542    
  0.930077016       4.67581606     -0.246999994       1388.22290      -1.63338542    
   1.07104599       5.38451099     -0.157000005       1388.22290      -1.63338542    
   3.05008101       4.56476784     -0.157000005       2244.15747      -1.63197243    
   2.64863706       3.96396494     -0.246999994       2244.15747      -1.63197243    
   1.82441294       4.40452194     -0.246999994       2244.15747      -1.63197243    
   2.10093188       5.07209921     -0.157000005       2244.15747      -1.63197243    
   3.88201594       3.88201594     -0.157000005       3064.90186      -1.62527907    
   3.37107491       3.37107491     -0.246999994       3064.90186      -1.62527907    
   2.64863706       3.96396494     -0.246999994       3064.90186      -1.62527907    
   3.05008101       4.56476784     -0.157000005       3064.90186      -1.62527907    
   4.56476784       3.05008101     -0.157000005       3717.73145      -1.62469506    
   3.96396494       2.64863706     -0.246999994       3717.73145      -1.62469506    
   3.37107491       3.37107491     -0.246999994       3717.73145      -1.62469506    
   3.88201594       3.88201594     -0.157000005       3717.73145      -1.62469506    
   5.07209921       2.10093188     -0.157000005       4265.15381      -1.62477362    
   4.40452194       1.82441294     -0.246999994       4265.15381      -1.62477362    
   3.96396494       2.64863706     -0.246999994       4265.15381      -1.62477362    
   4.56476784       3.05008101     -0.157000005       4265.15381      -1.62477362    
   5.38451099       1.07104599     -0.157000005       4556.25146      -1.63071382    
   4.67581606      0.930077016     -0.246999994       4556.25146      -1.63071382    
   4.40452194       1.82441294     -0.246999994       4556.25146      -1.63071382    
   5.07209921       2.10093188     -0.157000005       4556.25146      -1.63071382    
   5.48999977       0.00000000     -0.157000005       4734.95557      -1.63198781    
   4.76741982       0.00000000     -0.246999994       4734.95557      -1.63198781    
   4.67581606      0.930077016     -0.246999994       4734.95557      -1.63198781    
   5.38451099       1.07104599     -0.157000005       4734.95557      -1.63198781    
   5.38451099      -1.07104599     -0.157000005       4739.00195      -1.63099444    
   4.67581606     -0.930077016     -0.246999994       4739.00195      -1.63099444    
   4.76741982       0.00000000     -0.246999994       4739.00195      -1.63099444    
   5.48999977       0.00000000     -0.157000005       4739.00195      -1.63099444    
   5.07209921      -2.10093188     -0.157000005       4556.67285      -1.62990367    
   4.40452194      -1.82441294     -0.246999994       4556.67285      -1.62990367    
   4.67581606     -0.930077016     -0.246999994       4556.67285      -1.62990367    
   5.38451099      -1.07104599     -0.157000005       4556.67285      -1.62990367    
   4.56476784      -3.05008101     -0.157000005       4196.65967      -1.63026357    
   3.96396494      -2.64863706     -0.246999994       4196.65967      -1.63026357    
   4.40452194      -1.82441294     -0.246999994       4196.65967      -1.63026357    
   5.07209921      -2.10093188     -0.157000005       4196.65967      -1.63026357    
   3.88201594      -3.88201594     -0.157000005       3679.29517      -1.63159168    
   3.37107491      -3.37107491     -0.246999994       3679.29517      -1.63159168    
   3.96396494      -2.64863706     -0.246999994       3679.29517      -1.63159168    
   4.56476784      -3.05008101     -0.157000005       3679.29517      -1.63159168    
   3.05008101      -4.56476784     -0.157000005       3062.68408      -1.62930560    
   2.64863706      -3.96396494     -0.246999994       3062.68408      -1.62930560    
   3.37107491      -3.37107491     -0.246999994       3062.68408      -1.62930560    
   3.88201594      -3.88201594     -0.157000005       3062.68408      -1.62930560    
   2.10093188      -5.07209921     -0.157000005       2252.65576      -1.63168848    
   1.82441294      -4.40452194     -0.246999994       2252.65576      -1.63168848    
   2.64863706      -3.96396494     -0.246999994       2252.65576      -1.63168848    
   3.05008101      -4.56476784     -0.157000005       2252.65576      -1.63168848    
   1.07104599      -5.38451099     -0.157000005       1386.24573      -1.63167465    
  0.930077016      -4.67581606     -0.246999994       1386.24573      -1.63167465    
   1.82441294      -4.40452194     -0.246999994       1386.24573      -1.63167465    
   2.10093188      -5.07209921     -0.157000005       1386.24573      -1.63167465    
   0.00000000      -1.87709999     -0.606999993       388.776489      -1.57766211    
   0.00000000      -1.36500001     -0.606999993       388.776489      -1.57766211    
  0.266297996      -1.33877206     -0.606999993       388.776489      -1.57766211    
  0.366203994      -1.84103203     -0.606999993       388.776489      -1.57766211    
   0.00000000      -1.87709999     -0.606999993       333.970673       1.56296706    
   0.00000000      -2.59967995     -0.517000020       333.970673       1.56296706    
 -0.507171988      -2.54972792     -0.517000020       333.970673       1.56296706    
 -0.366203994      -1.84103203     -0.606999993       333.970673       1.56296706    
 -0.366203994      -1.84103203     -0.606999993       387.803375       1.56386900    
 -0.266297996      -1.33877206     -0.606999993       387.803375       1.56386900    
   0.00000000      -1.36500001     -0.606999993       387.803375       1.56386900    
   0.00000000      -1.87709999     -0.606999993       387.803375       1.56386900    
 -0.366203994      -1.84103203     -0.606999993       989.195190       1.56300008    
 -0.507171988      -2.54972792     -0.517000020       989.195190       1.56300008    
 -0.994853973      -2.40179110     -0.517000020       989.195190       1.56300008    
 -0.718334973      -1.73421395     -0.606999993       989.195190       1.56300008    
 -0.718334973      -1.73421395     -0.606999993       1148.89941       1.56396186    
 -0.522363007      -1.26109600     -0.606999993       1148.89941       1.56396186    
 -0.266297996      -1.33877206     -0.606999993       1148.89941       1.56396186    
 -0.366203994      -1.84103203     -0.606999993       1148.89941       1.56396186    
 -0.718334973      -1.73421395     -0.606999993       1603.62842       1.56315446    
 -0.994853973      -2.40179110     -0.517000020       1603.62842       1.56315446    
  -1.44430494      -2.16155505     -0.517000020       1603.62842       1.56315446    
  -1.04286098      -1.56075203     -0.606999993       1603.62842       1.56315446    
  -1.04286098      -1.56075203     -0.606999993       1865.58948       1.56407523    
 -0.758352995      -1.13495600     -0.606999993       1865.58948       1.56407523    
 -0.522363007      -1.26109600     -0.606999993       1865.58948       1.56407523    
 -0.718334973      -1.73421395     -0.606999993       1865.58948       1.56407523    
  -1.04286098      -1.56075203     -0.606999993       2159.33032       1.56327283    
  -1.44430494      -2.16155505     -0.517000020       2159.33032       1.56327283    
  -1.83825099      -1.83825099     -0.517000020       2159.33032       1.56327283    
  -1.32730997      -1.32730997     -0.606999993       2159.33032       1.56327283    
  -1.32730997      -1.32730997     -0.606999993       2511.80737       1.56415021    
 -0.965201020     -0.965201020     -0.606999993       2511.80737       1.56415021    
 -0.758352995      -1.13495600     -0.606999993       2511.80737       1.56415021    
  -1.04286098      -1.56075203     -0.606999993       2511.80737       1.56415021    
  -1.32730997      -1.32730997     -0.606999993       2638.42432       1.56331539    
  -1.83825099      -1.83825099     -0.517000020       2638.42432       1.56331539    
  -2.16155505      -1.44430494     -0.517000020       2638.42432       1.56331539    
  -1.56075203      -1.04286098     -0.606999993       2638.42432       1.56331539    
  -1.56075203      -1.04286098     -0.606999993       3063.11743       1.56419396    
  -1.13495600     -0.758352995     -0.606999993       3063.11743       1.56419396    
 -0.965201020     -0.965201020     -0.606999993       3063.11743       1.56419396    
  -1.32730997      -1.32730997     -0.606999993       3063.11743       1.56419396    
  -1.56075203      -1.04286098     -0.606999993       3016.35376       1.56329298    
  -2.16155505      -1.44430494     -0.517000020       3016.35376       1.56329298    
  -2.40179110     -0.994853973     -0.517000020       3016.35376       1.56329298    
  -1.73421395     -0.718334973     -0.606999993       3016.35376       1.56329298    
  -1.73421395     -0.718334973     -0.606999993       3495.69116       1.56418812    
  -1.26109600     -0.522363007     -0.606999993       3495.69116       1.56418812    
  -1.13495600     -0.758352995     -0.606999993       3495.69116       1.56418812    
  -1.56075203      -1.04286098     -0.606999993       3495.69116       1.56418812    
  -1.73421395     -0.718334973     -0.606999993       3270.50952       1.56320202    
  -2.40179110     -0.994853973     -0.517000020       3270.50952       1.56320202    
  -2.54972792     -0.507171988     -0.517000020       3270.50952       1.56320202    
  -1.84103203     -0.366203994     -0.606999993       3270.50952       1.56320202    
  -1.84103203     -0.366203994     -0.606999993       3789.24927       1.56415009    
  -1.33877206     -0.266297996     -0.606999993       3789.24927       1.56415009    
  -1.26109600     -0.522363007     -0.606999993       3789.24927       1.56415009    
  -1.73421395     -0.718334973     -0.606999993       3789.24927       1.56415009    
  -1.84103203     -0.366203994     -0.606999993       3394.07910       1.56312299    
  -2.54972792     -0.507171988     -0.517000020       3394.07910       1.56312299    
  -2.59967995       0.00000000     -0.517000020       3394.07910       1.56312299    
  -1.87709999       0.00000000     -0.606999993       3394.07910       1.56312299    
  -1.87709999       0.00000000     -0.606999993       3933.77539       1.56410789    
  -1.36500001       0.00000000     -0.606999993       3933.77539       1.56410789    
  -1.33877206     -0.266297996     -0.606999993       3933.77539       1.56410789    
  -1.84103203     -0.366203994     -0.606999993       3933.77539       1.56410789    
  -1.87709999       0.00000000     -0.606999993       3391.67139       1.56308234    
  -2.59967995       0.00000000     -0.517000020       3391.67139       1.56308234    
  -2.54972792      0.507171988     -0.517000020       3391.67139       1.56308234    
  -1.84103203      0.366203994     -0.606999993       3391.67139       1.56308234    
  -1.84103203      0.366203994     -0.606999993       3927.82593       1.56407940    
  -1.33877206      0.266297996     -0.606999993       3927.82593       1.56407940    
  -1.36500001       0.00000000     -0.606999993       3927.82593       1.56407940    
  -1.87709999       0.00000000     -0.606999993       3927.82593       1.56407940    
  -1.84103203      0.366203994     -0.606999993       3265.13403       1.56307209    
  -2.54972792      0.507171988     -0.517000020       3265.13403       1.56307209    
  -2.40179110      0.994853973     -0.517000020       3265.13403       1.56307209    
  -1.73421395      0.718334973     -0.606999993       3265.13403       1.56307209    
  -1.73421395      0.718334973     -0.606999993       3773.38501       1.56406701    
  -1.26109600      0.522363007     -0.606999993       3773.38501       1.56406701    
  -1.33877206      0.266297996     -0.606999993       3773.38501       1.56406701    
  -1.84103203      0.366203994     -0.606999993       3773.38501       1.56406701    
  -1.73421395      0.718334973     -0.606999993       3011.49097       1.56309867    
  -2.40179110      0.994853973     -0.517000020       3011.49097       1.56309867    
  -2.16155505       1.44430494     -0.517000020       3011.49097       1.56309867    
  -1.56075203       1.04286098     -0.606999993       3011.49097       1.56309867    
  -1.56075203       1.04286098     -0.606999993       3473.87866       1.56406116    
  -1.13495600      0.758352995     -0.606999993       3473.87866       1.56406116    
  -1.26109600      0.522363007     -0.606999993       3473.87866       1.56406116    
  -1.73421395      0.718334973     -0.606999993       3473.87866       1.56406116    
  -1.56075203       1.04286098     -0.606999993       2634.69116       1.56311417    
  -2.16155505       1.44430494     -0.517000020       2634.69116       1.56311417    
  -1.83825099       1.83825099     -0.517000020       2634.69116       1.56311417    
  -1.32730997       1.32730997     -0.606999993       2634.69116       1.56311417    
  -1.32730997       1.32730997     -0.606999993       3039.39014       1.56403875    
 -0.965201020      0.965201020     -0.606999993       3039.39014       1.56403875    
  -1.13495600      0.758352995     -0.606999993       3039.39014       1.56403875    
  -1.56075203       1.04286098     -0.606999993       3039.39014       1.56403875    
  -1.32730997       1.32730997     -0.606999993       2155.33008       1.56304705    
  -1.83825099       1.83825099     -0.517000020       2155.33008       1.56304705    
  -1.44430494       2.16155505     -0.517000020       2155.33008       1.56304705    
  -1.04286098       1.56075203     -0.606999993       2155.33008       1.56304705    
  -1.04286098       1.56075203     -0.606999993       2488.97729       1.56396782    
 -0.758352995       1.13495600     -0.606999993       2488.97729       1.56396782    
 -0.965201020      0.965201020     -0.606999993       2488.97729       1.56396782    
  -1.32730997       1.32730997     -0.606999993       2488.97729       1.56396782    
  -1.04286098       1.56075203     -0.606999993       1599.60608       1.56291521    
  -1.44430494       2.16155505     -0.517000020       1599.60608       1.56291521    
 -0.994853973       2.40179110     -0.517000020       1599.60608       1.56291521    
 -0.718334973       1.73421395     -0.606999993       1599.60608       1.56291521    
 -0.718334973       1.73421395     -0.606999993       1846.77466       1.56384099    
 -0.522363007       1.26109600     -0.606999993       1846.77466       1.56384099    
 -0.758352995       1.13495600     -0.606999993       1846.77466       1.56384099    
  -1.04286098       1.56075203     -0.606999993       1846.77466       1.56384099    
 -0.718334973       1.73421395     -0.606999993       987.017883       1.56268597    
 -0.994853973       2.40179110     -0.517000020       987.017883       1.56268597    
 -0.507171988       2.54972792     -0.517000020       987.017883       1.56268597    
 -0.366203994       1.84103203     -0.606999993       987.017883       1.56268597    
 -0.366203994       1.84103203     -0.606999993       1137.38501       1.56362402    
 -0.266297996       1.33877206     -0.606999993       1137.38501       1.56362402    
 -0.522363007       1.26109600     -0.606999993       1137.38501       1.56362402    
 -0.718334973       1.73421395     -0.606999993       1137.38501       1.56362402    
 -0.366203994       1.84103203     -0.606999993       335.383545       1.56206894    
 -0.507171988       2.54972792     -0.517000020       335.383545       1.56206894    
   0.00000000       2.59967995     -0.517000020       335.383545       1.56206894    
   0.00000000       1.87709999     -0.606999993       335.383545       1.56206894    
   0.00000000       1.87709999     -0.606999993       385.568115       1.56273878    
   0.00000000       1.36500001     -0.606999993       385.568115       1.56273878    
 -0.266297996       1.33877206     -0.606999993       385.568115       1.56273878    
 -0.366203994       1.84103203     -0.606999993       385.568115       1.56273878    
   0.00000000       1.87709999     -0.606999993       330.881073      -1.57790041    
   0.00000000       2.59967995     -0.517000020       330.881073      -1.57790041    
  0.507171988       2.54972792     -0.517000020       330.881073      -1.57790041    
  0.366203994       1.84103203     -0.606999993       330.881073      -1.57790041    
  0.366203994       1.84103203     -0.606999993       380.962158      -1.57640612    
  0.266297996       1.33877206     -0.606999993       380.962158      -1.57640612    
   0.00000000       1.36500001     -0.606999993       380.962158      -1.57640612    
   0.00000000       1.87709999     -0.606999993       380.962158      -1.57640612    
  0.366203994       1.84103203     -0.606999993       982.737488      -1.57834983    
  0.507171988       2.54972792     -0.517000020       982.737488      -1.57834983    
  0.994853973       2.40179110     -0.517000020       982.737488      -1.57834983    
  0.718334973       1.73421395     -0.606999993       982.737488      -1.57834983    
  0.718334973       1.73421395     -0.606999993       1133.02637      -1.57720971    
  0.522363007       1.26109600     -0.606999993       1133.02637      -1.57720971    
  0.266297996       1.33877206     -0.606999993       1133.02637      -1.57720971    
  0.366203994       1.84103203     -0.606999993       1133.02637      -1.57720971    
  0.718334973       1.73421395     -0.606999993       1595.64929      -1.57830787    
  0.994853973       2.40179110     -0.517000020       1595.64929      -1.57830787    
   1.44430494       2.16155505     -0.517000020       1595.64929      -1.57830787    
   1.04286098       1.56075203     -0.606999993       1595.64929      -1.57830787    
   1.04286098       1.56075203     -0.606999993       1843.24915      -1.57730532    
  0.758352995       1.13495600     -0.606999993       1843.24915      -1.57730532    
  0.522363007       1.26109600     -0.606999993       1843.24915      -1.57730532    
  0.718334973       1.73421395     -0.606999993       1843.24915      -1.57730532    
   1.04286098       1.56075203     -0.606999993       2151.82129      -1.57825208    
   1.44430494       2.16155505     -0.517000020       2151.82129      -1.57825208    
   1.83825099       1.83825099     -0.517000020       2151.82129      -1.57825208    
   1.32730997       1.32730997     -0.606999993       2151.82129      -1.57825208    
   1.32730997       1.32730997     -0.606999993       2486.34375      -1.57733524    
  0.965201020      0.965201020     -0.606999993       2486.34375      -1.57733524    
  0.758352995       1.13495600     -0.606999993       2486.34375      -1.57733524    
   1.04286098       1.56075203     -0.606999993       2486.34375      -1.57733524    
   1.32730997       1.32730997     -0.606999993       2631.51758      -1.57825387    
   1.83825099       1.83825099     -0.517000020       2631.51758      -1.57825387    
   2.16155505       1.44430494     -0.517000020       2631.51758      -1.57825387    
   1.56075203       1.04286098     -0.606999993       2631.51758      -1.57825387    
   1.56075203       1.04286098     -0.606999993       3037.49854      -1.57738006    
   1.13495600      0.758352995     -0.606999993       3037.49854      -1.57738006    
  0.965201020      0.965201020     -0.606999993       3037.49854      -1.57738006    
   1.32730997       1.32730997     -0.606999993       3037.49854      -1.57738006    
   1.56075203       1.04286098     -0.606999993       3008.36133      -1.57832110    
   2.16155505       1.44430494     -0.517000020       3008.36133      -1.57832110    
   2.40179110      0.994853973     -0.517000020       3008.36133      -1.57832110    
   1.73421395      0.718334973     -0.606999993       3008.36133      -1.57832110    
   1.73421395      0.718334973     -0.606999993       3471.80078      -1.57742524    
   1.26109600      0.522363007     -0.606999993       3471.80078      -1.57742524    
   1.13495600      0.758352995     -0.606999993       3471.80078      -1.57742524    
   1.56075203       1.04286098     -0.606999993       3471.80078      -1.57742524    
   1.73421395      0.718334973     -0.606999993       3261.87305      -1.57841110    
   2.40179110      0.994853973     -0.517000020       3261.87305      -1.57841110    
   2.54972792      0.507171988     -0.517000020       3261.87305      -1.57841110    
   1.84103203      0.366203994     -0.606999993       3261.87305      -1.57841110    
   1.84103203      0.366203994     -0.606999993       3770.55713      -1.57749772    
   1.33877206      0.266297996     -0.606999993       3770.55713      -1.57749772    
   1.26109600      0.522363007     -0.606999993       3770.55713      -1.57749772    
   1.73421395      0.718334973     -0.606999993       3770.55713      -1.57749772    
   1.84103203      0.366203994     -0.606999993       3388.48779      -1.57848167    
   2.54972792      0.507171988     -0.517000020       3388.48779      -1.57848167    
   2.59967995       0.00000000     -0.517000020       3388.48779      -1.57848167    
   1.87709999       0.00000000     -0.606999993       3388.48779      -1.57848167    
   1.87709999       0.00000000     -0.606999993       3924.57910      -1.57753634    
   1.36500001       0.00000000     -0.606999993       3924.57910      -1.57753634    
   1.33877206      0.266297996     -0.606999993       3924.57910      -1.57753634    
   1.84103203      0.366203994     -0.606999993       3924.57910      -1.57753634    
   1.87709999       0.00000000     -0.606999993       3391.36938      -1.57850540    
   2.59967995       0.00000000     -0.517000020       3391.36938      -1.57850540    
   2.54972792     -0.507171988     -0.517000020       3391.36938      -1.57850540    
   1.84103203     -0.366203994     -0.606999993       3391.36938      -1.57850540    
   1.84103203     -0.366203994     -0.606999993       3930.25269      -1.57756877    
   1.33877206     -0.266297996     -0.606999993       3930.25269      -1.57756877    
   1.36500001       0.00000000     -0.606999993       3930.25269      -1.57756877    
   1.87709999       0.00000000     -0.606999993       3930.25269      -1.57756877    
   1.84103203     -0.366203994     -0.606999993       3268.54639      -1.57847667    
   2.54972792     -0.507171988     -0.517000020       3268.54639      -1.57847667    
   2.40179110     -0.994853973     -0.517000020       3268.54639      -1.57847667    
   1.73421395     -0.718334973     -0.606999993       3268.54639      -1.57847667    
   1.73421395     -0.718334973     -0.606999993       3785.94263      -1.57756722    
   1.26109600     -0.522363007     -0.606999993       3785.94263      -1.57756722    
   1.33877206     -0.266297996     -0.606999993       3785.94263      -1.57756722    
   1.84103203     -0.366203994     -0.606999993       3785.94263      -1.57756722    
   1.73421395     -0.718334973     -0.606999993       3015.32715      -1.57845449    
   2.40179110     -0.994853973     -0.517000020       3015.32715      -1.57845449    
   2.16155505      -1.44430494     -0.517000020       3015.32715      -1.57845449    
   1.56075203      -1.04286098     -0.606999993       3015.32715      -1.57845449    
   1.56075203      -1.04286098     -0.606999993       3492.99561      -1.57754993    
   1.13495600     -0.758352995     -0.606999993       3492.99561      -1.57754993    
   1.26109600     -0.522363007     -0.606999993       3492.99561      -1.57754993    