 VARIABLES="X" "Y" "Z" "abs(p) (Pa)" "angle(p) (rad)"
ZONE N=   2709,E =    2358, F=FEPOINT, ET=QUADRILATERAL
   0.00000000      -5.48999977     -0.157000005       5468.76953      -1.43611860    
   0.00000000      -4.76741982     -0.246999994       5468.76953      -1.43611860    
  0.930077016      -4.67581606     -0.246999994       5468.76953      -1.43611860    
   1.07104599      -5.38451099     -0.157000005       5468.76953      -1.43611860    
  -1.07104599      -5.38451099     -0.157000005       5754.02441       1.59229517    
 -0.930077016      -4.67581606     -0.246999994       5754.02441       1.59229517    
   0.00000000      -4.76741982     -0.246999994       5754.02441       1.59229517    
   0.00000000      -5.48999977     -0.157000005       5754.02441       1.59229517    
  -2.10093188      -5.07209921     -0.157000005       6096.96631      -1.61049306    
  -1.82441294      -4.40452194     -0.246999994       6096.96631      -1.61049306    
 -0.930077016      -4.67581606     -0.246999994       6096.96631      -1.61049306    
  -1.07104599      -5.38451099     -0.157000005       6096.96631      -1.61049306    
  -3.05008101      -4.56476784     -0.157000005       6371.19678       1.63708484    
  -2.64863706      -3.96396494     -0.246999994       6371.19678       1.63708484    
  -1.82441294      -4.40452194     -0.246999994       6371.19678       1.63708484    
  -2.10093188      -5.07209921     -0.157000005       6371.19678       1.63708484    
  -3.88201594      -3.88201594     -0.157000005       6635.29639      -1.11142159    
  -3.37107491      -3.37107491     -0.246999994       6635.29639      -1.11142159    
  -2.64863706      -3.96396494     -0.246999994       6635.29639      -1.11142159    
  -3.05008101      -4.56476784     -0.157000005       6635.29639      -1.11142159    
  -4.56476784      -3.05008101     -0.157000005       6787.05615       2.81060958    
  -3.96396494      -2.64863706     -0.246999994       6787.05615       2.81060958    
  -3.37107491      -3.37107491     -0.246999994       6787.05615       2.81060958    
  -3.88201594      -3.88201594     -0.157000005       6787.05615       2.81060958    
  -5.07209921      -2.10093188     -0.157000005       6676.88379      0.951071143    
  -4.40452194      -1.82441294     -0.246999994       6676.88379      0.951071143    
  -3.96396494      -2.64863706     -0.246999994       6676.88379      0.951071143    
  -4.56476784      -3.05008101     -0.157000005       6676.88379      0.951071143    
  -5.38451099      -1.07104599     -0.157000005       6323.23975     -0.354753703    
  -4.67581606     -0.930077016     -0.246999994       6323.23975     -0.354753703    
  -4.40452194      -1.82441294     -0.246999994       6323.23975     -0.354753703    
  -5.07209921      -2.10093188     -0.157000005       6323.23975     -0.354753703    
  -5.48999977       0.00000000     -0.157000005       6003.87695     -0.965502322    
  -4.76741982       0.00000000     -0.246999994       6003.87695     -0.965502322    
  -4.67581606     -0.930077016     -0.246999994       6003.87695     -0.965502322    
  -5.38451099      -1.07104599     -0.157000005       6003.87695     -0.965502322    
  -5.38451099       1.07104599     -0.157000005       6038.60205     -0.978089035    
  -4.67581606      0.930077016     -0.246999994       6038.60205     -0.978089035    
  -4.76741982       0.00000000     -0.246999994       6038.60205     -0.978089035    
  -5.48999977       0.00000000     -0.157000005       6038.60205     -0.978089035    
  -5.07209921       2.10093188     -0.157000005       6444.04102     -0.357970834    
  -4.40452194       1.82441294     -0.246999994       6444.04102     -0.357970834    
  -4.67581606      0.930077016     -0.246999994       6444.04102     -0.357970834    
  -5.38451099       1.07104599     -0.157000005       6444.04102     -0.357970834    
  -4.56476784       3.05008101     -0.157000005       6786.46875      0.954968214    
  -3.96396494       2.64863706     -0.246999994       6786.46875      0.954968214    
  -4.40452194       1.82441294     -0.246999994       6786.46875      0.954968214    
  -5.07209921       2.10093188     -0.157000005       6786.46875      0.954968214    
  -3.88201594       3.88201594     -0.157000005       6755.92041       2.82294655    
  -3.37107491       3.37107491     -0.246999994       6755.92041       2.82294655    
  -3.96396494       2.64863706     -0.246999994       6755.92041       2.82294655    
  -4.56476784       3.05008101     -0.157000005       6755.92041       2.82294655    
  -3.05008101       4.56476784     -0.157000005       6696.63525      -1.10633492    
  -2.64863706       3.96396494     -0.246999994       6696.63525      -1.10633492    
  -3.37107491       3.37107491     -0.246999994       6696.63525      -1.10633492    
  -3.88201594       3.88201594     -0.157000005       6696.63525      -1.10633492    
  -2.10093188       5.07209921     -0.157000005       6377.10938       1.64129114    
  -1.82441294       4.40452194     -0.246999994       6377.10938       1.64129114    
  -2.64863706       3.96396494     -0.246999994       6377.10938       1.64129114    
  -3.05008101       4.56476784     -0.157000005       6377.10938       1.64129114    
  -1.07104599       5.38451099     -0.157000005       6090.96533      -1.60494268    
 -0.930077016       4.67581606     -0.246999994       6090.96533      -1.60494268    
  -1.82441294       4.40452194     -0.246999994       6090.96533      -1.60494268    
  -2.10093188       5.07209921     -0.157000005       6090.96533      -1.60494268    
   0.00000000       5.48999977     -0.157000005       5716.67969       1.59420800    
   0.00000000       4.76741982     -0.246999994       5716.67969       1.59420800    
 -0.930077016       4.67581606     -0.246999994       5716.67969       1.59420800    
  -1.07104599       5.38451099     -0.157000005       5716.67969       1.59420800    
   1.07104599       5.38451099     -0.157000005       5436.95898      -1.43154871    
  0.930077016       4.67581606     -0.246999994       5436.95898      -1.43154871    
   0.00000000       4.76741982     -0.246999994       5436.95898      -1.43154871    
   0.00000000       5.48999977     -0.157000005       5436.95898      -1.43154871    
   2.10093188       5.07209921     -0.157000005       5192.55469       1.73133874    
   1.82441294       4.40452194     -0.246999994       5192.55469       1.73133874    
  0.930077016       4.67581606     -0.246999994       5192.55469       1.73133874    
   1.07104599       5.38451099     -0.157000005       5192.55469       1.73133874    
   3.05008101       4.56476784     -0.157000005       5055.37109      -1.58806372    
   2.64863706       3.96396494     -0.246999994       5055.37109      -1.58806372    
   1.82441294       4.40452194     -0.246999994       5055.37109      -1.58806372    
   2.10093188       5.07209921     -0.157000005       5055.37109      -1.58806372    
   3.88201594       3.88201594     -0.157000005       5098.14795       1.06710708    
   3.37107491       3.37107491     -0.246999994       5098.14795       1.06710708    
   2.64863706       3.96396494     -0.246999994       5098.14795       1.06710708    
   3.05008101       4.56476784     -0.157000005       5098.14795       1.06710708    
   4.56476784       3.05008101     -0.157000005       5330.84375      -2.92151618    
   3.96396494       2.64863706     -0.246999994       5330.84375      -2.92151618    
   3.37107491       3.37107491     -0.246999994       5330.84375      -2.92151618    
   3.88201594       3.88201594     -0.157000005       5330.84375      -2.92151618    
   5.07209921       2.10093188     -0.157000005       5325.98779      -1.07224250    
   4.40452194       1.82441294     -0.246999994       5325.98779      -1.07224250    
   3.96396494       2.64863706     -0.246999994       5325.98779      -1.07224250    
   4.56476784       3.05008101     -0.157000005       5325.98779      -1.07224250    
   5.38451099       1.07104599     -0.157000005       5145.43945      0.149681330    
   4.67581606      0.930077016     -0.246999994       5145.43945      0.149681330    
   4.40452194       1.82441294     -0.246999994       5145.43945      0.149681330    
   5.07209921       2.10093188     -0.157000005       5145.43945      0.149681330    
   5.48999977       0.00000000     -0.157000005       5269.57617      0.777838588    
   4.76741982       0.00000000     -0.246999994       5269.57617      0.777838588    
   4.67581606      0.930077016     -0.246999994       5269.57617      0.777838588    
   5.38451099       1.07104599     -0.157000005       5269.57617      0.777838588    
   5.38451099      -1.07104599     -0.157000005       5280.33691      0.780297101    
   4.67581606     -0.930077016     -0.246999994       5280.33691      0.780297101    
   4.76741982       0.00000000     -0.246999994       5280.33691      0.780297101    
   5.48999977       0.00000000     -0.157000005       5280.33691      0.780297101    
   5.07209921      -2.10093188     -0.157000005       5140.00488      0.148324668    
   4.40452194      -1.82441294     -0.246999994       5140.00488      0.148324668    
   4.67581606     -0.930077016     -0.246999994       5140.00488      0.148324668    
   5.38451099      -1.07104599     -0.157000005       5140.00488      0.148324668    
   4.56476784      -3.05008101     -0.157000005       5330.83594      -1.07370973    
   3.96396494      -2.64863706     -0.246999994       5330.83594      -1.07370973    
   4.40452194      -1.82441294     -0.246999994       5330.83594      -1.07370973    
   5.07209921      -2.10093188     -0.157000005       5330.83594      -1.07370973    
   3.88201594      -3.88201594     -0.157000005       5328.42871      -2.92461920    
   3.37107491      -3.37107491     -0.246999994       5328.42871      -2.92461920    
   3.96396494      -2.64863706     -0.246999994       5328.42871      -2.92461920    
   4.56476784      -3.05008101     -0.157000005       5328.42871      -2.92461920    
   3.05008101      -4.56476784     -0.157000005       5056.34668       1.06716263    
   2.64863706      -3.96396494     -0.246999994       5056.34668       1.06716263    
   3.37107491      -3.37107491     -0.246999994       5056.34668       1.06716263    
   3.88201594      -3.88201594     -0.157000005       5056.34668       1.06716263    
   2.10093188      -5.07209921     -0.157000005       5031.90234      -1.58149505    
   1.82441294      -4.40452194     -0.246999994       5031.90234      -1.58149505    
   2.64863706      -3.96396494     -0.246999994       5031.90234      -1.58149505    
   3.05008101      -4.56476784     -0.157000005       5031.90234      -1.58149505    
   1.07104599      -5.38451099     -0.157000005       5209.71191       1.73844552    
  0.930077016      -4.67581606     -0.246999994       5209.71191       1.73844552    
   1.82441294      -4.40452194     -0.246999994       5209.71191       1.73844552    
   2.10093188      -5.07209921     -0.157000005       5209.71191       1.73844552    
   0.00000000      -1.87709999     -0.606999993       1403.01440      -2.62452936    
   0.00000000      -1.36500001     -0.606999993       1403.01440      -2.62452936    
  0.266297996      -1.33877206     -0.606999993       1403.01440      -2.62452936    
  0.366203994      -1.84103203     -0.606999993       1403.01440      -2.62452936    
   0.00000000      -1.87709999     -0.606999993       1638.97510       2.42443013    
   0.00000000      -2.59967995     -0.517000020       1638.97510       2.42443013    
 -0.507171988      -2.54972792     -0.517000020       1638.97510       2.42443013    
 -0.366203994      -1.84103203     -0.606999993       1638.97510       2.42443013    
 -0.366203994      -1.84103203     -0.606999993       1402.31396       2.62339973    
 -0.266297996      -1.33877206     -0.606999993       1402.31396       2.62339973    
   0.00000000      -1.36500001     -0.606999993       1402.31396       2.62339973    
   0.00000000      -1.87709999     -0.606999993       1402.31396       2.62339973    
 -0.366203994      -1.84103203     -0.606999993       1642.04114       1.02289844    
 -0.507171988      -2.54972792     -0.517000020       1642.04114       1.02289844    
 -0.994853973      -2.40179110     -0.517000020       1642.04114       1.02289844    
 -0.718334973      -1.73421395     -0.606999993       1642.04114       1.02289844    
 -0.718334973      -1.73421395     -0.606999993       1403.19922       1.60820210    
 -0.522363007      -1.26109600     -0.606999993       1403.19922       1.60820210    
 -0.266297996      -1.33877206     -0.606999993       1403.19922       1.60820210    
 -0.366203994      -1.84103203     -0.606999993       1403.19922       1.60820210    
 -0.718334973      -1.73421395     -0.606999993       1650.98279     -0.298385471    
 -0.994853973      -2.40179110     -0.517000020       1650.98279     -0.298385471    
  -1.44430494      -2.16155505     -0.517000020       1650.98279     -0.298385471    
  -1.04286098      -1.56075203     -0.606999993       1650.98279     -0.298385471    
  -1.04286098      -1.56075203     -0.606999993       1404.53516      0.652374148    
 -0.758352995      -1.13495600     -0.606999993       1404.53516      0.652374148    
 -0.522363007      -1.26109600     -0.606999993       1404.53516      0.652374148    
 -0.718334973      -1.73421395     -0.606999993       1404.53516      0.652374148    
  -1.04286098      -1.56075203     -0.606999993       1662.25696      -1.47971129    
  -1.44430494      -2.16155505     -0.517000020       1662.25696      -1.47971129    
  -1.83825099      -1.83825099     -0.517000020       1662.25696      -1.47971129    
  -1.32730997      -1.32730997     -0.606999993       1662.25696      -1.47971129    
  -1.32730997      -1.32730997     -0.606999993       1404.70569     -0.207233906    
 -0.965201020     -0.965201020     -0.606999993       1404.70569     -0.207233906    
 -0.758352995      -1.13495600     -0.606999993       1404.70569     -0.207233906    
  -1.04286098      -1.56075203     -0.606999993       1404.70569     -0.207233906    
  -1.32730997      -1.32730997     -0.606999993       1655.32983      -2.48554945    
  -1.83825099      -1.83825099     -0.517000020       1655.32983      -2.48554945    
  -2.16155505      -1.44430494     -0.517000020       1655.32983      -2.48554945    
  -1.56075203      -1.04286098     -0.606999993       1655.32983      -2.48554945    
  -1.56075203      -1.04286098     -0.606999993       1400.28674     -0.937628686    
  -1.13495600     -0.758352995     -0.606999993       1400.28674     -0.937628686    
 -0.965201020     -0.965201020     -0.606999993       1400.28674     -0.937628686    
  -1.32730997      -1.32730997     -0.606999993       1400.28674     -0.937628686    
  -1.56075203      -1.04286098     -0.606999993       1657.62720       2.99293780    
  -2.16155505      -1.44430494     -0.517000020       1657.62720       2.99293780    
  -2.40179110     -0.994853973     -0.517000020       1657.62720       2.99293780    
  -1.73421395     -0.718334973     -0.606999993       1657.62720       2.99293780    
  -1.73421395     -0.718334973     -0.606999993       1388.97778      -1.51582837    
  -1.26109600     -0.522363007     -0.606999993       1388.97778      -1.51582837    
  -1.13495600     -0.758352995     -0.606999993       1388.97778      -1.51582837    
  -1.56075203      -1.04286098     -0.606999993       1388.97778      -1.51582837    
  -1.73421395     -0.718334973     -0.606999993       1693.31763       2.43771672    
  -2.40179110     -0.994853973     -0.517000020       1693.31763       2.43771672    
  -2.54972792     -0.507171988     -0.517000020       1693.31763       2.43771672    
  -1.84103203     -0.366203994     -0.606999993       1693.31763       2.43771672    
  -1.84103203     -0.366203994     -0.606999993       1378.60132      -1.92176783    
  -1.33877206     -0.266297996     -0.606999993       1378.60132      -1.92176783    
  -1.26109600     -0.522363007     -0.606999993       1378.60132      -1.92176783    
  -1.73421395     -0.718334973     -0.606999993       1378.60132      -1.92176783    
  -1.84103203     -0.366203994     -0.606999993       1727.53430       2.16278362    
  -2.54972792     -0.507171988     -0.517000020       1727.53430       2.16278362    
  -2.59967995       0.00000000     -0.517000020       1727.53430       2.16278362    
  -1.87709999       0.00000000     -0.606999993       1727.53430       2.16278362    
  -1.87709999       0.00000000     -0.606999993       1374.35986      -2.13304448    
  -1.36500001       0.00000000     -0.606999993       1374.35986      -2.13304448    
  -1.33877206     -0.266297996     -0.606999993       1374.35986      -2.13304448    
  -1.84103203     -0.366203994     -0.606999993       1374.35986      -2.13304448    
  -1.87709999       0.00000000     -0.606999993       1728.86560       2.16358519    
  -2.59967995       0.00000000     -0.517000020       1728.86560       2.16358519    
  -2.54972792      0.507171988     -0.517000020       1728.86560       2.16358519    
  -1.84103203      0.366203994     -0.606999993       1728.86560       2.16358519    
  -1.84103203      0.366203994     -0.606999993       1374.93396      -2.13390064    
  -1.33877206      0.266297996     -0.606999993       1374.93396      -2.13390064    
  -1.36500001       0.00000000     -0.606999993       1374.93396      -2.13390064    
  -1.87709999       0.00000000     -0.606999993       1374.93396      -2.13390064    
  -1.84103203      0.366203994     -0.606999993       1697.83081       2.43910623    
  -2.54972792      0.507171988     -0.517000020       1697.83081       2.43910623    
  -2.40179110      0.994853973     -0.517000020       1697.83081       2.43910623    
  -1.73421395      0.718334973     -0.606999993       1697.83081       2.43910623    
  -1.73421395      0.718334973     -0.606999993       1378.81238      -1.92360926    
  -1.26109600      0.522363007     -0.606999993       1378.81238      -1.92360926    
  -1.33877206      0.266297996     -0.606999993       1378.81238      -1.92360926    
  -1.84103203      0.366203994     -0.606999993       1378.81238      -1.92360926    
  -1.73421395      0.718334973     -0.606999993       1663.86670       2.99221849    
  -2.40179110      0.994853973     -0.517000020       1663.86670       2.99221849    
  -2.16155505       1.44430494     -0.517000020       1663.86670       2.99221849    
  -1.56075203       1.04286098     -0.606999993       1663.86670       2.99221849    
  -1.56075203       1.04286098     -0.606999993       1387.58765      -1.51794326    
  -1.13495600      0.758352995     -0.606999993       1387.58765      -1.51794326    
  -1.26109600      0.522363007     -0.606999993       1387.58765      -1.51794326    
  -1.73421395      0.718334973     -0.606999993       1387.58765      -1.51794326    
  -1.56075203       1.04286098     -0.606999993       1657.77710      -2.48860359    
  -2.16155505       1.44430494     -0.517000020       1657.77710      -2.48860359    
  -1.83825099       1.83825099     -0.517000020       1657.77710      -2.48860359    
  -1.32730997       1.32730997     -0.606999993       1657.77710      -2.48860359    
  -1.32730997       1.32730997     -0.606999993       1397.95508     -0.938748181    
 -0.965201020      0.965201020     -0.606999993       1397.95508     -0.938748181    
  -1.13495600      0.758352995     -0.606999993       1397.95508     -0.938748181    
  -1.56075203       1.04286098     -0.606999993       1397.95508     -0.938748181    
  -1.32730997       1.32730997     -0.606999993       1659.61304      -1.48127234    
  -1.83825099       1.83825099     -0.517000020       1659.61304      -1.48127234    
  -1.44430494       2.16155505     -0.517000020       1659.61304      -1.48127234    
  -1.04286098       1.56075203     -0.606999993       1659.61304      -1.48127234    
  -1.04286098       1.56075203     -0.606999993       1402.52258     -0.206636488    
 -0.758352995       1.13495600     -0.606999993       1402.52258     -0.206636488    
 -0.965201020      0.965201020     -0.606999993       1402.52258     -0.206636488    
  -1.32730997       1.32730997     -0.606999993       1402.52258     -0.206636488    
  -1.04286098       1.56075203     -0.606999993       1649.15698     -0.297332734    
  -1.44430494       2.16155505     -0.517000020       1649.15698     -0.297332734    
 -0.994853973       2.40179110     -0.517000020       1649.15698     -0.297332734    
 -0.718334973       1.73421395     -0.606999993       1649.15698     -0.297332734    
 -0.718334973       1.73421395     -0.606999993       1403.96240      0.653076112    
 -0.522363007       1.26109600     -0.606999993       1403.96240      0.653076112    
 -0.758352995       1.13495600     -0.606999993       1403.96240      0.653076112    
  -1.04286098       1.56075203     -0.606999993       1403.96240      0.653076112    
 -0.718334973       1.73421395     -0.606999993       1643.07910       1.02372110    
 -0.994853973       2.40179110     -0.517000020       1643.07910       1.02372110    
 -0.507171988       2.54972792     -0.517000020       1643.07910       1.02372110    
 -0.366203994       1.84103203     -0.606999993       1643.07910       1.02372110    
 -0.366203994       1.84103203     -0.606999993       1403.70813       1.60865641    
 -0.266297996       1.33877206     -0.606999993       1403.70813       1.60865641    
 -0.522363007       1.26109600     -0.606999993       1403.70813       1.60865641    
 -0.718334973       1.73421395     -0.606999993       1403.70813       1.60865641    
 -0.366203994       1.84103203     -0.606999993       1640.05615       2.42439103    
 -0.507171988       2.54972792     -0.517000020       1640.05615       2.42439103    
   0.00000000       2.59967995     -0.517000020       1640.05615       2.42439103    
   0.00000000       1.87709999     -0.606999993       1640.05615       2.42439103    
   0.00000000       1.87709999     -0.606999993       1403.04541       2.62330008    
   0.00000000       1.36500001     -0.606999993       1403.04541       2.62330008    
 -0.266297996       1.33877206     -0.606999993       1403.04541       2.62330008    
 -0.366203994       1.84103203     -0.606999993       1403.04541       2.62330008    
   0.00000000       1.87709999     -0.606999993       1637.20166      -2.42986512    
   0.00000000       2.59967995     -0.517000020       1637.20166      -2.42986512    
  0.507171988       2.54972792     -0.517000020       1637.20166      -2.42986512    
  0.366203994       1.84103203     -0.606999993       1637.20166      -2.42986512    
  0.366203994       1.84103203     -0.606999993       1403.81250      -2.62466264    
  0.266297996       1.33877206     -0.606999993       1403.81250      -2.62466264    
   0.00000000       1.36500001     -0.606999993       1403.81250      -2.62466264    
   0.00000000       1.87709999     -0.606999993       1403.81250      -2.62466264    
  0.366203994       1.84103203     -0.606999993       1637.56580      -1.02746212    
  0.507171988       2.54972792     -0.517000020       1637.56580      -1.02746212    
  0.994853973       2.40179110     -0.517000020       1637.56580      -1.02746212    
  0.718334973       1.73421395     -0.606999993       1637.56580      -1.02746212    
  0.718334973       1.73421395     -0.606999993       1405.46594      -1.61083007    
  0.522363007       1.26109600     -0.606999993       1405.46594      -1.61083007    
  0.266297996       1.33877206     -0.606999993       1405.46594      -1.61083007    
  0.366203994       1.84103203     -0.606999993       1405.46594      -1.61083007    
  0.718334973       1.73421395     -0.606999993       1638.09399      0.292311609    
  0.994853973       2.40179110     -0.517000020       1638.09399      0.292311609    
   1.44430494       2.16155505     -0.517000020       1638.09399      0.292311609    
   1.04286098       1.56075203     -0.606999993       1638.09399      0.292311609    
   1.04286098       1.56075203     -0.606999993       1405.76245     -0.656969965    
  0.758352995       1.13495600     -0.606999993       1405.76245     -0.656969965    
  0.522363007       1.26109600     -0.606999993       1405.76245     -0.656969965    
  0.718334973       1.73421395     -0.606999993       1405.76245     -0.656969965    
   1.04286098       1.56075203     -0.606999993       1639.87244       1.47910595    
   1.44430494       2.16155505     -0.517000020       1639.87244       1.47910595    
   1.83825099       1.83825099     -0.517000020       1639.87244       1.47910595    
   1.32730997       1.32730997     -0.606999993       1639.87244       1.47910595    
   1.32730997       1.32730997     -0.606999993       1404.91394      0.201501697    
  0.965201020      0.965201020     -0.606999993       1404.91394      0.201501697    
  0.758352995       1.13495600     -0.606999993       1404.91394      0.201501697    
   1.04286098       1.56075203     -0.606999993       1404.91394      0.201501697    
   1.32730997       1.32730997     -0.606999993       1640.04492       2.48843169    
   1.83825099       1.83825099     -0.517000020       1640.04492       2.48843169    
   2.16155505       1.44430494     -0.517000020       1640.04492       2.48843169    
   1.56075203       1.04286098     -0.606999993       1640.04492       2.48843169    
   1.56075203       1.04286098     -0.606999993       1403.69360      0.932020724    
   1.13495600      0.758352995     -0.606999993       1403.69360      0.932020724    
  0.965201020      0.965201020     -0.606999993       1403.69360      0.932020724    
   1.32730997       1.32730997     -0.606999993       1403.69360      0.932020724    
   1.56075203       1.04286098     -0.606999993       1639.57190      -3.00167704    
   2.16155505       1.44430494     -0.517000020       1639.57190      -3.00167704    
   2.40179110      0.994853973     -0.517000020       1639.57190      -3.00167704    
   1.73421395      0.718334973     -0.606999993       1639.57190      -3.00167704    
   1.73421395      0.718334973     -0.606999993       1401.82239       1.50585353    
   1.26109600      0.522363007     -0.606999993       1401.82239       1.50585353    
   1.13495600      0.758352995     -0.606999993       1401.82239       1.50585353    
   1.56075203       1.04286098     -0.606999993       1401.82239       1.50585353    
   1.73421395      0.718334973     -0.606999993       1638.95813      -2.45470858    
   2.40179110      0.994853973     -0.517000020       1638.95813      -2.45470858    
   2.54972792      0.507171988     -0.517000020       1638.95813      -2.45470858    
   1.84103203      0.366203994     -0.606999993       1638.95813      -2.45470858    
   1.84103203      0.366203994     -0.606999993       1400.25403       1.90153599    
   1.33877206      0.266297996     -0.606999993       1400.25403       1.90153599    
   1.26109600      0.522363007     -0.606999993       1400.25403       1.90153599    
   1.73421395      0.718334973     -0.606999993       1400.25403       1.90153599    
   1.84103203      0.366203994     -0.606999993       1639.10156      -2.17572355    
   2.54972792      0.507171988     -0.517000020       1639.10156      -2.17572355    
   2.59967995       0.00000000     -0.517000020       1639.10156      -2.17572355    
   1.87709999       0.00000000     -0.606999993       1639.10156      -2.17572355    
   1.87709999       0.00000000     -0.606999993       1398.92896       2.10329819    
   1.36500001       0.00000000     -0.606999993       1398.92896       2.10329819    
   1.33877206      0.266297996     -0.606999993       1398.92896       2.10329819    
   1.84103203      0.366203994     -0.606999993       1398.92896       2.10329819    
   1.87709999       0.00000000     -0.606999993       1639.05176      -2.17569160    
   2.59967995       0.00000000     -0.517000020       1639.05176      -2.17569160    
   2.54972792     -0.507171988     -0.517000020       1639.05176      -2.17569160    
   1.84103203     -0.366203994     -0.606999993       1639.05176      -2.17569160    
   1.84103203     -0.366203994     -0.606999993       1399.03491       2.10333014    
   1.33877206     -0.266297996     -0.606999993       1399.03491       2.10333014    
   1.36500001       0.00000000     -0.606999993       1399.03491       2.10333014    
   1.87709999       0.00000000     -0.606999993       1399.03491       2.10333014    
   1.84103203     -0.366203994     -0.606999993       1638.80249      -2.45466304    
   2.54972792     -0.507171988     -0.517000020       1638.80249      -2.45466304    
   2.40179110     -0.994853973     -0.517000020       1638.80249      -2.45466304    
   1.73421395     -0.718334973     -0.606999993       1638.80249      -2.45466304    
   1.73421395     -0.718334973     -0.606999993       1400.18945       1.90149403    
   1.26109600     -0.522363007     -0.606999993       1400.18945       1.90149403    
   1.33877206     -0.266297996     -0.606999993       1400.18945       1.90149403    
   1.84103203     -0.366203994     -0.606999993       1400.18945       1.90149403    
   1.73421395     -0.718334973     -0.606999993       1639.31714      -3.00173426    
   2.40179110     -0.994853973     -0.517000020       1639.31714      -3.00173426    
   2.16155505      -1.44430494     -0.517000020       1639.31714      -3.00173426    
   1.56075203      -1.04286098     -0.606999993       1639.31714      -3.00173426    
   1.56075203      -1.04286098     -0.606999993       1401.99744       1.50572085    
   1.13495600     -0.758352995     -0.606999993       1401.99744       1.50572085    
   1.26109600     -0.522363007     -0.606999993       1401.99744       1.50572085    