 VARIABLES="X" "Y" "Z" "abs(p) (Pa)" "angle(p) (rad)"
ZONE N=   2709,E =    2358, F=FEPOINT, ET=QUADRILATERAL
   0.00000000      -5.48999977     -0.157000005       472.556702      -1.62168908    
   0.00000000      -4.76741982     -0.246999994       472.556702      -1.62168908    
  0.930077016      -4.67581606     -0.246999994       472.556702      -1.62168908    
   1.07104599      -5.38451099     -0.157000005       472.556702      -1.62168908    
  -1.07104599      -5.38451099     -0.157000005       477.339935       1.52513289    
 -0.930077016      -4.67581606     -0.246999994       477.339935       1.52513289    
   0.00000000      -4.76741982     -0.246999994       477.339935       1.52513289    
   0.00000000      -5.48999977     -0.157000005       477.339935       1.52513289    
  -2.10093188      -5.07209921     -0.157000005       1428.37366       1.52507448    
  -1.82441294      -4.40452194     -0.246999994       1428.37366       1.52507448    
 -0.930077016      -4.67581606     -0.246999994       1428.37366       1.52507448    
  -1.07104599      -5.38451099     -0.157000005       1428.37366       1.52507448    
  -3.05008101      -4.56476784     -0.157000005       2282.30054       1.51946938    
  -2.64863706      -3.96396494     -0.246999994       2282.30054       1.51946938    
  -1.82441294      -4.40452194     -0.246999994       2282.30054       1.51946938    
  -2.10093188      -5.07209921     -0.157000005       2282.30054       1.51946938    
  -3.88201594      -3.88201594     -0.157000005       3064.38647       1.52064824    
  -3.37107491      -3.37107491     -0.246999994       3064.38647       1.52064824    
  -2.64863706      -3.96396494     -0.246999994       3064.38647       1.52064824    
  -3.05008101      -4.56476784     -0.157000005       3064.38647       1.52064824    
  -4.56476784      -3.05008101     -0.157000005       3776.55615       1.52583146    
  -3.96396494      -2.64863706     -0.246999994       3776.55615       1.52583146    
  -3.37107491      -3.37107491     -0.246999994       3776.55615       1.52583146    
  -3.88201594      -3.88201594     -0.157000005       3776.55615       1.52583146    
  -5.07209921      -2.10093188     -0.157000005       4259.12744       1.52213073    
  -4.40452194      -1.82441294     -0.246999994       4259.12744       1.52213073    
  -3.96396494      -2.64863706     -0.246999994       4259.12744       1.52213073    
  -4.56476784      -3.05008101     -0.157000005       4259.12744       1.52213073    
  -5.38451099      -1.07104599     -0.157000005       4625.83008       1.52051115    
  -4.67581606     -0.930077016     -0.246999994       4625.83008       1.52051115    
  -4.40452194      -1.82441294     -0.246999994       4625.83008       1.52051115    
  -5.07209921      -2.10093188     -0.157000005       4625.83008       1.52051115    
  -5.48999977       0.00000000     -0.157000005       4886.85303       1.52410543    
  -4.76741982       0.00000000     -0.246999994       4886.85303       1.52410543    
  -4.67581606     -0.930077016     -0.246999994       4886.85303       1.52410543    
  -5.38451099      -1.07104599     -0.157000005       4886.85303       1.52410543    
  -5.38451099       1.07104599     -0.157000005       4897.75635       1.52442122    
  -4.67581606      0.930077016     -0.246999994       4897.75635       1.52442122    
  -4.76741982       0.00000000     -0.246999994       4897.75635       1.52442122    
  -5.48999977       0.00000000     -0.157000005       4897.75635       1.52442122    
  -5.07209921       2.10093188     -0.157000005       4706.83594       1.52445674    
  -4.40452194       1.82441294     -0.246999994       4706.83594       1.52445674    
  -4.67581606      0.930077016     -0.246999994       4706.83594       1.52445674    
  -5.38451099       1.07104599     -0.157000005       4706.83594       1.52445674    
  -4.56476784       3.05008101     -0.157000005       4331.82178       1.52451098    
  -3.96396494       2.64863706     -0.246999994       4331.82178       1.52451098    
  -4.40452194       1.82441294     -0.246999994       4331.82178       1.52451098    
  -5.07209921       2.10093188     -0.157000005       4331.82178       1.52451098    
  -3.88201594       3.88201594     -0.157000005       3748.65015       1.52078617    
  -3.37107491       3.37107491     -0.246999994       3748.65015       1.52078617    
  -3.96396494       2.64863706     -0.246999994       3748.65015       1.52078617    
  -4.56476784       3.05008101     -0.157000005       3748.65015       1.52078617    
  -3.05008101       4.56476784     -0.157000005       3108.06812       1.52402508    
  -2.64863706       3.96396494     -0.246999994       3108.06812       1.52402508    
  -3.37107491       3.37107491     -0.246999994       3108.06812       1.52402508    
  -3.88201594       3.88201594     -0.157000005       3108.06812       1.52402508    
  -2.10093188       5.07209921     -0.157000005       2281.73315       1.52025485    
  -1.82441294       4.40452194     -0.246999994       2281.73315       1.52025485    
  -2.64863706       3.96396494     -0.246999994       2281.73315       1.52025485    
  -3.05008101       4.56476784     -0.157000005       2281.73315       1.52025485    
  -1.07104599       5.38451099     -0.157000005       1419.36401       1.52434051    
 -0.930077016       4.67581606     -0.246999994       1419.36401       1.52434051    
  -1.82441294       4.40452194     -0.246999994       1419.36401       1.52434051    
  -2.10093188       5.07209921     -0.157000005       1419.36401       1.52434051    
   0.00000000       5.48999977     -0.157000005       476.287231       1.52162337    
   0.00000000       4.76741982     -0.246999994       476.287231       1.52162337    
 -0.930077016       4.67581606     -0.246999994       476.287231       1.52162337    
  -1.07104599       5.38451099     -0.157000005       476.287231       1.52162337    
   1.07104599       5.38451099     -0.157000005       483.562561      -1.61173701    
  0.930077016       4.67581606     -0.246999994       483.562561      -1.61173701    
   0.00000000       4.76741982     -0.246999994       483.562561      -1.61173701    
   0.00000000       5.48999977     -0.157000005       483.562561      -1.61173701    
   2.10093188       5.07209921     -0.157000005       1409.30151      -1.62027204    
   1.82441294       4.40452194     -0.246999994       1409.30151      -1.62027204    
  0.930077016       4.67581606     -0.246999994       1409.30151      -1.62027204    
   1.07104599       5.38451099     -0.157000005       1409.30151      -1.62027204    
   3.05008101       4.56476784     -0.157000005       2282.25757      -1.62238264    
   2.64863706       3.96396494     -0.246999994       2282.25757      -1.62238264    
   1.82441294       4.40452194     -0.246999994       2282.25757      -1.62238264    
   2.10093188       5.07209921     -0.157000005       2282.25757      -1.62238264    
   3.88201594       3.88201594     -0.157000005       3108.84839      -1.61683977    
   3.37107491       3.37107491     -0.246999994       3108.84839      -1.61683977    
   2.64863706       3.96396494     -0.246999994       3108.84839      -1.61683977    
   3.05008101       4.56476784     -0.157000005       3108.84839      -1.61683977    
   4.56476784       3.05008101     -0.157000005       3764.10132      -1.61712968    
   3.96396494       2.64863706     -0.246999994       3764.10132      -1.61712968    
   3.37107491       3.37107491     -0.246999994       3764.10132      -1.61712968    
   3.88201594       3.88201594     -0.157000005       3764.10132      -1.61712968    
   5.07209921       2.10093188     -0.157000005       4319.22070      -1.61586547    
   4.40452194       1.82441294     -0.246999994       4319.22070      -1.61586547    
   3.96396494       2.64863706     -0.246999994       4319.22070      -1.61586547    
   4.56476784       3.05008101     -0.157000005       4319.22070      -1.61586547    
   5.38451099       1.07104599     -0.157000005       4626.53809      -1.62150717    
   4.67581606      0.930077016     -0.246999994       4626.53809      -1.62150717    
   4.40452194       1.82441294     -0.246999994       4626.53809      -1.62150717    
   5.07209921       2.10093188     -0.157000005       4626.53809      -1.62150717    
   5.48999977       0.00000000     -0.157000005       4810.40479      -1.62166107    
   4.76741982       0.00000000     -0.246999994       4810.40479      -1.62166107    
   4.67581606      0.930077016     -0.246999994       4810.40479      -1.62166107    
   5.38451099       1.07104599     -0.157000005       4810.40479      -1.62166107    
   5.38451099      -1.07104599     -0.157000005       4806.91455      -1.62085629    
   4.67581606     -0.930077016     -0.246999994       4806.91455      -1.62085629    
   4.76741982       0.00000000     -0.246999994       4806.91455      -1.62085629    
   5.48999977       0.00000000     -0.157000005       4806.91455      -1.62085629    
   5.07209921      -2.10093188     -0.157000005       4616.59961      -1.62082255    
   4.40452194      -1.82441294     -0.246999994       4616.59961      -1.62082255    
   4.67581606     -0.930077016     -0.246999994       4616.59961      -1.62082255    
   5.38451099      -1.07104599     -0.157000005       4616.59961      -1.62082255    
   4.56476784      -3.05008101     -0.157000005       4256.77490      -1.62123024    
   3.96396494      -2.64863706     -0.246999994       4256.77490      -1.62123024    
   4.40452194      -1.82441294     -0.246999994       4256.77490      -1.62123024    
   5.07209921      -2.10093188     -0.157000005       4256.77490      -1.62123024    
   3.88201594      -3.88201594     -0.157000005       3737.79761      -1.62147450    
   3.37107491      -3.37107491     -0.246999994       3737.79761      -1.62147450    
   3.96396494      -2.64863706     -0.246999994       3737.79761      -1.62147450    
   4.56476784      -3.05008101     -0.157000005       3737.79761      -1.62147450    
   3.05008101      -4.56476784     -0.157000005       3105.67163      -1.61780190    
   2.64863706      -3.96396494     -0.246999994       3105.67163      -1.61780190    
   3.37107491      -3.37107491     -0.246999994       3105.67163      -1.61780190    
   3.88201594      -3.88201594     -0.157000005       3105.67163      -1.61780190    
   2.10093188      -5.07209921     -0.157000005       2279.94507      -1.62113380    
   1.82441294      -4.40452194     -0.246999994       2279.94507      -1.62113380    
   2.64863706      -3.96396494     -0.246999994       2279.94507      -1.62113380    
   3.05008101      -4.56476784     -0.157000005       2279.94507      -1.62113380    
   1.07104599      -5.38451099     -0.157000005       1401.31750      -1.62068033    
  0.930077016      -4.67581606     -0.246999994       1401.31750      -1.62068033    
   1.82441294      -4.40452194     -0.246999994       1401.31750      -1.62068033    
   2.10093188      -5.07209921     -0.157000005       1401.31750      -1.62068033    
   0.00000000      -1.87709999     -0.606999993       340.875214      -1.57506084    
   0.00000000      -1.36500001     -0.606999993       340.875214      -1.57506084    
  0.266297996      -1.33877206     -0.606999993       340.875214      -1.57506084    
  0.366203994      -1.84103203     -0.606999993       340.875214      -1.57506084    
   0.00000000      -1.87709999     -0.606999993       260.252014       1.56602323    
   0.00000000      -2.59967995     -0.517000020       260.252014       1.56602323    
 -0.507171988      -2.54972792     -0.517000020       260.252014       1.56602323    
 -0.366203994      -1.84103203     -0.606999993       260.252014       1.56602323    
 -0.366203994      -1.84103203     -0.606999993       344.652924       1.56725729    
 -0.266297996      -1.33877206     -0.606999993       344.652924       1.56725729    
   0.00000000      -1.36500001     -0.606999993       344.652924       1.56725729    
   0.00000000      -1.87709999     -0.606999993       344.652924       1.56725729    
 -0.366203994      -1.84103203     -0.606999993       769.422302       1.56598520    
 -0.507171988      -2.54972792     -0.517000020       769.422302       1.56598520    
 -0.994853973      -2.40179110     -0.517000020       769.422302       1.56598520    
 -0.718334973      -1.73421395     -0.606999993       769.422302       1.56598520    
 -0.718334973      -1.73421395     -0.606999993       1016.51721       1.56702590    
 -0.522363007      -1.26109600     -0.606999993       1016.51721       1.56702590    
 -0.266297996      -1.33877206     -0.606999993       1016.51721       1.56702590    
 -0.366203994      -1.84103203     -0.606999993       1016.51721       1.56702590    
 -0.718334973      -1.73421395     -0.606999993       1246.52185       1.56606174    
 -0.994853973      -2.40179110     -0.517000020       1246.52185       1.56606174    
  -1.44430494      -2.16155505     -0.517000020       1246.52185       1.56606174    
  -1.04286098      -1.56075203     -0.606999993       1246.52185       1.56606174    
  -1.04286098      -1.56075203     -0.606999993       1649.30225       1.56702673    
 -0.758352995      -1.13495600     -0.606999993       1649.30225       1.56702673    
 -0.522363007      -1.26109600     -0.606999993       1649.30225       1.56702673    
 -0.718334973      -1.73421395     -0.606999993       1649.30225       1.56702673    
  -1.04286098      -1.56075203     -0.606999993       1677.94958       1.56611538    
  -1.44430494      -2.16155505     -0.517000020       1677.94958       1.56611538    
  -1.83825099      -1.83825099     -0.517000020       1677.94958       1.56611538    
  -1.32730997      -1.32730997     -0.606999993       1677.94958       1.56611538    
  -1.32730997      -1.32730997     -0.606999993       2220.08179       1.56704021    
 -0.965201020     -0.965201020     -0.606999993       2220.08179       1.56704021    
 -0.758352995      -1.13495600     -0.606999993       2220.08179       1.56704021    
  -1.04286098      -1.56075203     -0.606999993       2220.08179       1.56704021    
  -1.32730997      -1.32730997     -0.606999993       2050.28467       1.56612396    
  -1.83825099      -1.83825099     -0.517000020       2050.28467       1.56612396    
  -2.16155505      -1.44430494     -0.517000020       2050.28467       1.56612396    
  -1.56075203      -1.04286098     -0.606999993       2050.28467       1.56612396    
  -1.56075203      -1.04286098     -0.606999993       2707.72510       1.56703806    
  -1.13495600     -0.758352995     -0.606999993       2707.72510       1.56703806    
 -0.965201020     -0.965201020     -0.606999993       2707.72510       1.56703806    
  -1.32730997      -1.32730997     -0.606999993       2707.72510       1.56703806    
  -1.56075203      -1.04286098     -0.606999993       2344.60547       1.56612146    
  -2.16155505      -1.44430494     -0.517000020       2344.60547       1.56612146    
  -2.40179110     -0.994853973     -0.517000020       2344.60547       1.56612146    
  -1.73421395     -0.718334973     -0.606999993       2344.60547       1.56612146    
  -1.73421395     -0.718334973     -0.606999993       3091.46655       1.56701720    
  -1.26109600     -0.522363007     -0.606999993       3091.46655       1.56701720    
  -1.13495600     -0.758352995     -0.606999993       3091.46655       1.56701720    
  -1.56075203      -1.04286098     -0.606999993       3091.46655       1.56701720    
  -1.73421395     -0.718334973     -0.606999993       2543.12744       1.56608641    
  -2.40179110     -0.994853973     -0.517000020       2543.12744       1.56608641    
  -2.54972792     -0.507171988     -0.517000020       2543.12744       1.56608641    
  -1.84103203     -0.366203994     -0.606999993       2543.12744       1.56608641    
  -1.84103203     -0.366203994     -0.606999993       3353.57178       1.56699765    
  -1.33877206     -0.266297996     -0.606999993       3353.57178       1.56699765    
  -1.26109600     -0.522363007     -0.606999993       3353.57178       1.56699765    
  -1.73421395     -0.718334973     -0.606999993       3353.57178       1.56699765    
  -1.84103203     -0.366203994     -0.606999993       2640.29663       1.56607902    
  -2.54972792     -0.507171988     -0.517000020       2640.29663       1.56607902    
  -2.59967995       0.00000000     -0.517000020       2640.29663       1.56607902    
  -1.87709999       0.00000000     -0.606999993       2640.29663       1.56607902    
  -1.87709999       0.00000000     -0.606999993       3484.47681       1.56698370    
  -1.36500001       0.00000000     -0.606999993       3484.47681       1.56698370    
  -1.33877206     -0.266297996     -0.606999993       3484.47681       1.56698370    
  -1.84103203     -0.366203994     -0.606999993       3484.47681       1.56698370    
  -1.87709999       0.00000000     -0.606999993       2639.32397       1.56607246    
  -2.59967995       0.00000000     -0.517000020       2639.32397       1.56607246    
  -2.54972792      0.507171988     -0.517000020       2639.32397       1.56607246    
  -1.84103203      0.366203994     -0.606999993       2639.32397       1.56607246    
  -1.84103203      0.366203994     -0.606999993       3482.09424       1.56697106    
  -1.33877206      0.266297996     -0.606999993       3482.09424       1.56697106    
  -1.36500001       0.00000000     -0.606999993       3482.09424       1.56697106    
  -1.87709999       0.00000000     -0.606999993       3482.09424       1.56697106    
  -1.84103203      0.366203994     -0.606999993       2541.59766       1.56607366    
  -2.54972792      0.507171988     -0.517000020       2541.59766       1.56607366    
  -2.40179110      0.994853973     -0.517000020       2541.59766       1.56607366    
  -1.73421395      0.718334973     -0.606999993       2541.59766       1.56607366    
  -1.73421395      0.718334973     -0.606999993       3347.44971       1.56697190    
  -1.26109600      0.522363007     -0.606999993       3347.44971       1.56697190    
  -1.33877206      0.266297996     -0.606999993       3347.44971       1.56697190    
  -1.84103203      0.366203994     -0.606999993       3347.44971       1.56697190    
  -1.73421395      0.718334973     -0.606999993       2344.69922       1.56608677    
  -2.40179110      0.994853973     -0.517000020       2344.69922       1.56608677    
  -2.16155505       1.44430494     -0.517000020       2344.69922       1.56608677    
  -1.56075203       1.04286098     -0.606999993       2344.69922       1.56608677    
  -1.56075203       1.04286098     -0.606999993       3083.81616       1.56697893    
  -1.13495600      0.758352995     -0.606999993       3083.81616       1.56697893    
  -1.26109600      0.522363007     -0.606999993       3083.81616       1.56697893    
  -1.73421395      0.718334973     -0.606999993       3083.81616       1.56697893    
  -1.56075203       1.04286098     -0.606999993       2051.88013       1.56611133    
  -2.16155505       1.44430494     -0.517000020       2051.88013       1.56611133    
  -1.83825099       1.83825099     -0.517000020       2051.88013       1.56611133    
  -1.32730997       1.32730997     -0.606999993       2051.88013       1.56611133    
  -1.32730997       1.32730997     -0.606999993       2699.98706       1.56698966    
 -0.965201020      0.965201020     -0.606999993       2699.98706       1.56698966    
  -1.13495600      0.758352995     -0.606999993       2699.98706       1.56698966    
  -1.56075203       1.04286098     -0.606999993       2699.98706       1.56698966    
  -1.32730997       1.32730997     -0.606999993       1679.18042       1.56612289    
  -1.83825099       1.83825099     -0.517000020       1679.18042       1.56612289    
  -1.44430494       2.16155505     -0.517000020       1679.18042       1.56612289    
  -1.04286098       1.56075203     -0.606999993       1679.18042       1.56612289    
  -1.04286098       1.56075203     -0.606999993       2212.53564       1.56699610    
 -0.758352995       1.13495600     -0.606999993       2212.53564       1.56699610    
 -0.965201020      0.965201020     -0.606999993       2212.53564       1.56699610    
  -1.32730997       1.32730997     -0.606999993       2212.53564       1.56699610    
  -1.04286098       1.56075203     -0.606999993       1246.83008       1.56610775    
  -1.44430494       2.16155505     -0.517000020       1246.83008       1.56610775    
 -0.994853973       2.40179110     -0.517000020       1246.83008       1.56610775    
 -0.718334973       1.73421395     -0.606999993       1246.83008       1.56610775    
 -0.718334973       1.73421395     -0.606999993       1642.41589       1.56699800    
 -0.522363007       1.26109600     -0.606999993       1642.41589       1.56699800    
 -0.758352995       1.13495600     -0.606999993       1642.41589       1.56699800    
  -1.04286098       1.56075203     -0.606999993       1642.41589       1.56699800    
 -0.718334973       1.73421395     -0.606999993       769.667297       1.56610405    
 -0.994853973       2.40179110     -0.517000020       769.667297       1.56610405    
 -0.507171988       2.54972792     -0.517000020       769.667297       1.56610405    
 -0.366203994       1.84103203     -0.606999993       769.667297       1.56610405    
 -0.366203994       1.84103203     -0.606999993       1011.30261       1.56704068    
 -0.266297996       1.33877206     -0.606999993       1011.30261       1.56704068    
 -0.522363007       1.26109600     -0.606999993       1011.30261       1.56704068    
 -0.718334973       1.73421395     -0.606999993       1011.30261       1.56704068    
 -0.366203994       1.84103203     -0.606999993       261.285736       1.56636918    
 -0.507171988       2.54972792     -0.517000020       261.285736       1.56636918    
   0.00000000       2.59967995     -0.517000020       261.285736       1.56636918    
   0.00000000       1.87709999     -0.606999993       261.285736       1.56636918    
   0.00000000       1.87709999     -0.606999993       341.532867       1.56731689    
   0.00000000       1.36500001     -0.606999993       341.532867       1.56731689    
 -0.266297996       1.33877206     -0.606999993       341.532867       1.56731689    
 -0.366203994       1.84103203     -0.606999993       341.532867       1.56731689    
   0.00000000       1.87709999     -0.606999993       258.906982      -1.57615232    
   0.00000000       2.59967995     -0.517000020       258.906982      -1.57615232    
  0.507171988       2.54972792     -0.517000020       258.906982      -1.57615232    
  0.366203994       1.84103203     -0.606999993       258.906982      -1.57615232    
  0.366203994       1.84103203     -0.606999993       341.665710      -1.57525086    
  0.266297996       1.33877206     -0.606999993       341.665710      -1.57525086    
   0.00000000       1.36500001     -0.606999993       341.665710      -1.57525086    
   0.00000000       1.87709999     -0.606999993       341.665710      -1.57525086    
  0.366203994       1.84103203     -0.606999993       767.593811      -1.57578588    
  0.507171988       2.54972792     -0.517000020       767.593811      -1.57578588    
  0.994853973       2.40179110     -0.517000020       767.593811      -1.57578588    
  0.718334973       1.73421395     -0.606999993       767.593811      -1.57578588    
  0.718334973       1.73421395     -0.606999993       1011.75842      -1.57489657    
  0.522363007       1.26109600     -0.606999993       1011.75842      -1.57489657    
  0.266297996       1.33877206     -0.606999993       1011.75842      -1.57489657    
  0.366203994       1.84103203     -0.606999993       1011.75842      -1.57489657    
  0.718334973       1.73421395     -0.606999993       1245.24829      -1.57563055    
  0.994853973       2.40179110     -0.517000020       1245.24829      -1.57563055    
   1.44430494       2.16155505     -0.517000020       1245.24829      -1.57563055    
   1.04286098       1.56075203     -0.606999993       1245.24829      -1.57563055    
   1.04286098       1.56075203     -0.606999993       1643.80835      -1.57476330    
  0.758352995       1.13495600     -0.606999993       1643.80835      -1.57476330    
  0.522363007       1.26109600     -0.606999993       1643.80835      -1.57476330    
  0.718334973       1.73421395     -0.606999993       1643.80835      -1.57476330    
   1.04286098       1.56075203     -0.606999993       1678.17004      -1.57555211    
   1.44430494       2.16155505     -0.517000020       1678.17004      -1.57555211    
   1.83825099       1.83825099     -0.517000020       1678.17004      -1.57555211    
   1.32730997       1.32730997     -0.606999993       1678.17004      -1.57555211    
   1.32730997       1.32730997     -0.606999993       2214.85693      -1.57469916    
  0.965201020      0.965201020     -0.606999993       2214.85693      -1.57469916    
  0.758352995       1.13495600     -0.606999993       2214.85693      -1.57469916    
   1.04286098       1.56075203     -0.606999993       2214.85693      -1.57469916    
   1.32730997       1.32730997     -0.606999993       2051.26978      -1.57553422    
   1.83825099       1.83825099     -0.517000020       2051.26978      -1.57553422    
   2.16155505       1.44430494     -0.517000020       2051.26978      -1.57553422    
   1.56075203       1.04286098     -0.606999993       2051.26978      -1.57553422    
   1.56075203       1.04286098     -0.606999993       2702.92480      -1.57467282    
   1.13495600      0.758352995     -0.606999993       2702.92480      -1.57467282    
  0.965201020      0.965201020     -0.606999993       2702.92480      -1.57467282    
   1.32730997       1.32730997     -0.606999993       2702.92480      -1.57467282    
   1.56075203       1.04286098     -0.606999993       2344.09375      -1.57554853    
   2.16155505       1.44430494     -0.517000020       2344.09375      -1.57554853    
   2.40179110      0.994853973     -0.517000020       2344.09375      -1.57554853    
   1.73421395      0.718334973     -0.606999993       2344.09375      -1.57554853    
   1.73421395      0.718334973     -0.606999993       3086.04419      -1.57466412    
   1.26109600      0.522363007     -0.606999993       3086.04419      -1.57466412    
   1.13495600      0.758352995     -0.606999993       3086.04419      -1.57466412    
   1.56075203       1.04286098     -0.606999993       3086.04419      -1.57466412    
   1.73421395      0.718334973     -0.606999993       2540.61548      -1.57557166    
   2.40179110      0.994853973     -0.517000020       2540.61548      -1.57557166    
   2.54972792      0.507171988     -0.517000020       2540.61548      -1.57557166    
   1.84103203      0.366203994     -0.606999993       2540.61548      -1.57557166    
   1.84103203      0.366203994     -0.606999993       3348.17529      -1.57466066    
   1.33877206      0.266297996     -0.606999993       3348.17529      -1.57466066    
   1.26109600      0.522363007     -0.606999993       3348.17529      -1.57466066    
   1.73421395      0.718334973     -0.606999993       3348.17529      -1.57466066    
   1.84103203      0.366203994     -0.606999993       2637.95410      -1.57557356    
   2.54972792      0.507171988     -0.517000020       2637.95410      -1.57557356    
   2.59967995       0.00000000     -0.517000020       2637.95410      -1.57557356    
   1.87709999       0.00000000     -0.606999993       2637.95410      -1.57557356    
   1.87709999       0.00000000     -0.606999993       3481.18408      -1.57465899    
   1.36500001       0.00000000     -0.606999993       3481.18408      -1.57465899    
   1.33877206      0.266297996     -0.606999993       3481.18408      -1.57465899    
   1.84103203      0.366203994     -0.606999993       3481.18408      -1.57465899    
   1.87709999       0.00000000     -0.606999993       2638.77148      -1.57557511    
   2.59967995       0.00000000     -0.517000020       2638.77148      -1.57557511    
   2.54972792     -0.507171988     -0.517000020       2638.77148      -1.57557511    
   1.84103203     -0.366203994     -0.606999993       2638.77148      -1.57557511    
   1.84103203     -0.366203994     -0.606999993       3482.09766      -1.57465529    
   1.33877206     -0.266297996     -0.606999993       3482.09766      -1.57465529    
   1.36500001       0.00000000     -0.606999993       3482.09766      -1.57465529    
   1.87709999       0.00000000     -0.606999993       3482.09766      -1.57465529    
   1.84103203     -0.366203994     -0.606999993       2541.72046      -1.57556677    
   2.54972792     -0.507171988     -0.517000020       2541.72046      -1.57556677    
   2.40179110     -0.994853973     -0.517000020       2541.72046      -1.57556677    
   1.73421395     -0.718334973     -0.606999993       2541.72046      -1.57556677    
   1.73421395     -0.718334973     -0.606999993       3350.08496      -1.57464182    
   1.26109600     -0.522363007     -0.606999993       3350.08496      -1.57464182    
   1.33877206     -0.266297996     -0.606999993       3350.08496      -1.57464182    
   1.84103203     -0.366203994     -0.606999993       3350.08496      -1.57464182    
   1.73421395     -0.718334973     -0.606999993       2343.45020      -1.57554448    
   2.40179110     -0.994853973     -0.517000020       2343.45020      -1.57554448    
   2.16155505      -1.44430494     -0.517000020       2343.45020      -1.57554448    
   1.56075203      -1.04286098     -0.606999993       2343.45020      -1.57554448    
   1.56075203      -1.04286098     -0.606999993       3087.41870      -1.57462358    
   1.13495600     -0.758352995     -0.606999993       3087.41870      -1.57462358    
   1.26109600     -0.522363007     -0.606999993       3087.41870      -1.57462358    