 VARIABLES="X" "Y" "Z" "abs(p) (Pa)" "angle(p) (rad)"
ZONE N=   2709,E =    2358, F=FEPOINT, ET=QUADRILATERAL
   0.00000000      -5.48999977     -0.157000005       2.01979804       1.44033742    
   0.00000000      -4.76741982     -0.246999994       2.01979804       1.44033742    
  0.930077016      -4.67581606     -0.246999994       2.01979804       1.44033742    
   1.07104599      -5.38451099     -0.157000005       2.01979804       1.44033742    
  -1.07104599      -5.38451099     -0.157000005       1.85579419       1.53341806    
 -0.930077016      -4.67581606     -0.246999994       1.85579419       1.53341806    
   0.00000000      -4.76741982     -0.246999994       1.85579419       1.53341806    
   0.00000000      -5.48999977     -0.157000005       1.85579419       1.53341806    
  -2.10093188      -5.07209921     -0.157000005       3.21688151       1.64332426    
  -1.82441294      -4.40452194     -0.246999994       3.21688151       1.64332426    
 -0.930077016      -4.67581606     -0.246999994       3.21688151       1.64332426    
  -1.07104599      -5.38451099     -0.157000005       3.21688151       1.64332426    
  -3.05008101      -4.56476784     -0.157000005       2.22474313       1.80414903    
  -2.64863706      -3.96396494     -0.246999994       2.22474313       1.80414903    
  -1.82441294      -4.40452194     -0.246999994       2.22474313       1.80414903    
  -2.10093188      -5.07209921     -0.157000005       2.22474313       1.80414903    
  -3.88201594      -3.88201594     -0.157000005       2.65300751       1.78751945    
  -3.37107491      -3.37107491     -0.246999994       2.65300751       1.78751945    
  -2.64863706      -3.96396494     -0.246999994       2.65300751       1.78751945    
  -3.05008101      -4.56476784     -0.157000005       2.65300751       1.78751945    
  -4.56476784      -3.05008101     -0.157000005      0.377825975       2.56528091    
  -3.96396494      -2.64863706     -0.246999994      0.377825975       2.56528091    
  -3.37107491      -3.37107491     -0.246999994      0.377825975       2.56528091    
  -3.88201594      -3.88201594     -0.157000005      0.377825975       2.56528091    
  -5.07209921      -2.10093188     -0.157000005       1.21401680       1.48527062    
  -4.40452194      -1.82441294     -0.246999994       1.21401680       1.48527062    
  -3.96396494      -2.64863706     -0.246999994       1.21401680       1.48527062    
  -4.56476784      -3.05008101     -0.157000005       1.21401680       1.48527062    
  -5.38451099      -1.07104599     -0.157000005       1.91396415       1.31067836    
  -4.67581606     -0.930077016     -0.246999994       1.91396415       1.31067836    
  -4.40452194      -1.82441294     -0.246999994       1.91396415       1.31067836    
  -5.07209921      -2.10093188     -0.157000005       1.91396415       1.31067836    
  -5.48999977       0.00000000     -0.157000005       3.80534029       1.40146458    
  -4.76741982       0.00000000     -0.246999994       3.80534029       1.40146458    
  -4.67581606     -0.930077016     -0.246999994       3.80534029       1.40146458    
  -5.38451099      -1.07104599     -0.157000005       3.80534029       1.40146458    
  -5.38451099       1.07104599     -0.157000005       4.17224169       1.43762410    
  -4.67581606      0.930077016     -0.246999994       4.17224169       1.43762410    
  -4.76741982       0.00000000     -0.246999994       4.17224169       1.43762410    
  -5.48999977       0.00000000     -0.157000005       4.17224169       1.43762410    
  -5.07209921       2.10093188     -0.157000005       4.18094301       1.49062169    
  -4.40452194       1.82441294     -0.246999994       4.18094301       1.49062169    
  -4.67581606      0.930077016     -0.246999994       4.18094301       1.49062169    
  -5.38451099       1.07104599     -0.157000005       4.18094301       1.49062169    
  -4.56476784       3.05008101     -0.157000005       3.99884868       1.53501511    
  -3.96396494       2.64863706     -0.246999994       3.99884868       1.53501511    
  -4.40452194       1.82441294     -0.246999994       3.99884868       1.53501511    
  -5.07209921       2.10093188     -0.157000005       3.99884868       1.53501511    
  -3.88201594       3.88201594     -0.157000005       2.51043582       1.53840756    
  -3.37107491       3.37107491     -0.246999994       2.51043582       1.53840756    
  -3.96396494       2.64863706     -0.246999994       2.51043582       1.53840756    
  -4.56476784       3.05008101     -0.157000005       2.51043582       1.53840756    
  -3.05008101       4.56476784     -0.157000005       3.69862509       1.53114331    
  -2.64863706       3.96396494     -0.246999994       3.69862509       1.53114331    
  -3.37107491       3.37107491     -0.246999994       3.69862509       1.53114331    
  -3.88201594       3.88201594     -0.157000005       3.69862509       1.53114331    
  -2.10093188       5.07209921     -0.157000005       2.41473889       1.46223164    
  -1.82441294       4.40452194     -0.246999994       2.41473889       1.46223164    
  -2.64863706       3.96396494     -0.246999994       2.41473889       1.46223164    
  -3.05008101       4.56476784     -0.157000005       2.41473889       1.46223164    
  -1.07104599       5.38451099     -0.157000005       3.58608532       1.48704994    
 -0.930077016       4.67581606     -0.246999994       3.58608532       1.48704994    
  -1.82441294       4.40452194     -0.246999994       3.58608532       1.48704994    
  -2.10093188       5.07209921     -0.157000005       3.58608532       1.48704994    
   0.00000000       5.48999977     -0.157000005       2.27574730       1.47225690    
   0.00000000       4.76741982     -0.246999994       2.27574730       1.47225690    
 -0.930077016       4.67581606     -0.246999994       2.27574730       1.47225690    
  -1.07104599       5.38451099     -0.157000005       2.27574730       1.47225690    
   1.07104599       5.38451099     -0.157000005       3.52398443       1.55681264    
  0.930077016       4.67581606     -0.246999994       3.52398443       1.55681264    
   0.00000000       4.76741982     -0.246999994       3.52398443       1.55681264    
   0.00000000       5.48999977     -0.157000005       3.52398443       1.55681264    
   2.10093188       5.07209921     -0.157000005       2.31950951       1.61159289    
   1.82441294       4.40452194     -0.246999994       2.31950951       1.61159289    
  0.930077016       4.67581606     -0.246999994       2.31950951       1.61159289    
   1.07104599       5.38451099     -0.157000005       2.31950951       1.61159289    
   3.05008101       4.56476784     -0.157000005       2.44706082       1.60174203    
   2.64863706       3.96396494     -0.246999994       2.44706082       1.60174203    
   1.82441294       4.40452194     -0.246999994       2.44706082       1.60174203    
   2.10093188       5.07209921     -0.157000005       2.44706082       1.60174203    
   3.88201594       3.88201594     -0.157000005       4.01688385       1.53731132    
   3.37107491       3.37107491     -0.246999994       4.01688385       1.53731132    
   2.64863706       3.96396494     -0.246999994       4.01688385       1.53731132    
   3.05008101       4.56476784     -0.157000005       4.01688385       1.53731132    
   4.56476784       3.05008101     -0.157000005       2.82410169       1.41819072    
   3.96396494       2.64863706     -0.246999994       2.82410169       1.41819072    
   3.37107491       3.37107491     -0.246999994       2.82410169       1.41819072    
   3.88201594       3.88201594     -0.157000005       2.82410169       1.41819072    
   5.07209921       2.10093188     -0.157000005       3.20581841       1.37709391    
   4.40452194       1.82441294     -0.246999994       3.20581841       1.37709391    
   3.96396494       2.64863706     -0.246999994       3.20581841       1.37709391    
   4.56476784       3.05008101     -0.157000005       3.20581841       1.37709391    
   5.38451099       1.07104599     -0.157000005       2.18506527       1.29252589    
   4.67581606      0.930077016     -0.246999994       2.18506527       1.29252589    
   4.40452194       1.82441294     -0.246999994       2.18506527       1.29252589    
   5.07209921       2.10093188     -0.157000005       2.18506527       1.29252589    
   5.48999977       0.00000000     -0.157000005       2.24688792       1.40948272    
   4.76741982       0.00000000     -0.246999994       2.24688792       1.40948272    
   4.67581606      0.930077016     -0.246999994       2.24688792       1.40948272    
   5.38451099       1.07104599     -0.157000005       2.24688792       1.40948272    
   5.38451099      -1.07104599     -0.157000005       2.27230167       1.54256225    
   4.67581606     -0.930077016     -0.246999994       2.27230167       1.54256225    
   4.76741982       0.00000000     -0.246999994       2.27230167       1.54256225    
   5.48999977       0.00000000     -0.157000005       2.27230167       1.54256225    
   5.07209921      -2.10093188     -0.157000005       2.13988352       1.63126814    
   4.40452194      -1.82441294     -0.246999994       2.13988352       1.63126814    
   4.67581606     -0.930077016     -0.246999994       2.13988352       1.63126814    
   5.38451099      -1.07104599     -0.157000005       2.13988352       1.63126814    
   4.56476784      -3.05008101     -0.157000005       1.97541177       1.65030217    
   3.96396494      -2.64863706     -0.246999994       1.97541177       1.65030217    
   4.40452194      -1.82441294     -0.246999994       1.97541177       1.65030217    
   5.07209921      -2.10093188     -0.157000005       1.97541177       1.65030217    
   3.88201594      -3.88201594     -0.157000005       2.00581837       1.59977245    
   3.37107491      -3.37107491     -0.246999994       2.00581837       1.59977245    
   3.96396494      -2.64863706     -0.246999994       2.00581837       1.59977245    
   4.56476784      -3.05008101     -0.157000005       2.00581837       1.59977245    
   3.05008101      -4.56476784     -0.157000005       3.49857616       1.54575801    
   2.64863706      -3.96396494     -0.246999994       3.49857616       1.54575801    
   3.37107491      -3.37107491     -0.246999994       3.49857616       1.54575801    
   3.88201594      -3.88201594     -0.157000005       3.49857616       1.54575801    
   2.10093188      -5.07209921     -0.157000005       2.30672431       1.47276413    
   1.82441294      -4.40452194     -0.246999994       2.30672431       1.47276413    
   2.64863706      -3.96396494     -0.246999994       2.30672431       1.47276413    
   3.05008101      -4.56476784     -0.157000005       2.30672431       1.47276413    
   1.07104599      -5.38451099     -0.157000005       2.18497324       1.43218243    
  0.930077016      -4.67581606     -0.246999994       2.18497324       1.43218243    
   1.82441294      -4.40452194     -0.246999994       2.18497324       1.43218243    
   2.10093188      -5.07209921     -0.157000005       2.18497324       1.43218243    
   0.00000000      -1.87709999     -0.606999993       1.67825866      -1.58399427    
   0.00000000      -1.36500001     -0.606999993       1.67825866      -1.58399427    
  0.266297996      -1.33877206     -0.606999993       1.67825866      -1.58399427    
  0.366203994      -1.84103203     -0.606999993       1.67825866      -1.58399427    
   0.00000000      -1.87709999     -0.606999993      0.373334676      -1.61283410    
   0.00000000      -2.59967995     -0.517000020      0.373334676      -1.61283410    
 -0.507171988      -2.54972792     -0.517000020      0.373334676      -1.61283410    
 -0.366203994      -1.84103203     -0.606999993      0.373334676      -1.61283410    
 -0.366203994      -1.84103203     -0.606999993       1.79236996      -1.58811772    
 -0.266297996      -1.33877206     -0.606999993       1.79236996      -1.58811772    
   0.00000000      -1.36500001     -0.606999993       1.79236996      -1.58811772    
   0.00000000      -1.87709999     -0.606999993       1.79236996      -1.58811772    
 -0.366203994      -1.84103203     -0.606999993      0.423787892      -1.62451327    
 -0.507171988      -2.54972792     -0.517000020      0.423787892      -1.62451327    
 -0.994853973      -2.40179110     -0.517000020      0.423787892      -1.62451327    
 -0.718334973      -1.73421395     -0.606999993      0.423787892      -1.62451327    
 -0.718334973      -1.73421395     -0.606999993       1.90272665      -1.58761847    
 -0.522363007      -1.26109600     -0.606999993       1.90272665      -1.58761847    
 -0.266297996      -1.33877206     -0.606999993       1.90272665      -1.58761847    
 -0.366203994      -1.84103203     -0.606999993       1.90272665      -1.58761847    
 -0.718334973      -1.73421395     -0.606999993      0.466955662      -1.61934936    
 -0.994853973      -2.40179110     -0.517000020      0.466955662      -1.61934936    
  -1.44430494      -2.16155505     -0.517000020      0.466955662      -1.61934936    
  -1.04286098      -1.56075203     -0.606999993      0.466955662      -1.61934936    
  -1.04286098      -1.56075203     -0.606999993       1.99918175      -1.58255816    
 -0.758352995      -1.13495600     -0.606999993       1.99918175      -1.58255816    
 -0.522363007      -1.26109600     -0.606999993       1.99918175      -1.58255816    
 -0.718334973      -1.73421395     -0.606999993       1.99918175      -1.58255816    
  -1.04286098      -1.56075203     -0.606999993      0.496116191      -1.59699070    
  -1.44430494      -2.16155505     -0.517000020      0.496116191      -1.59699070    
  -1.83825099      -1.83825099     -0.517000020      0.496116191      -1.59699070    
  -1.32730997      -1.32730997     -0.606999993      0.496116191      -1.59699070    
  -1.32730997      -1.32730997     -0.606999993       2.06722355      -1.57363212    
 -0.965201020     -0.965201020     -0.606999993       2.06722355      -1.57363212    
 -0.758352995      -1.13495600     -0.606999993       2.06722355      -1.57363212    
  -1.04286098      -1.56075203     -0.606999993       2.06722355      -1.57363212    
  -1.32730997      -1.32730997     -0.606999993      0.504553199      -1.55923319    
  -1.83825099      -1.83825099     -0.517000020      0.504553199      -1.55923319    
  -2.16155505      -1.44430494     -0.517000020      0.504553199      -1.55923319    
  -1.56075203      -1.04286098     -0.606999993      0.504553199      -1.55923319    
  -1.56075203      -1.04286098     -0.606999993       2.09030080      -1.56181598    
  -1.13495600     -0.758352995     -0.606999993       2.09030080      -1.56181598    
 -0.965201020     -0.965201020     -0.606999993       2.09030080      -1.56181598    
  -1.32730997      -1.32730997     -0.606999993       2.09030080      -1.56181598    
  -1.56075203      -1.04286098     -0.606999993      0.482739478      -1.50874388    
  -2.16155505      -1.44430494     -0.517000020      0.482739478      -1.50874388    
  -2.40179110     -0.994853973     -0.517000020      0.482739478      -1.50874388    
  -1.73421395     -0.718334973     -0.606999993      0.482739478      -1.50874388    
  -1.73421395     -0.718334973     -0.606999993       2.05161428      -1.54812515    
  -1.26109600     -0.522363007     -0.606999993       2.05161428      -1.54812515    
  -1.13495600     -0.758352995     -0.606999993       2.05161428      -1.54812515    
  -1.56075203      -1.04286098     -0.606999993       2.05161428      -1.54812515    
  -1.73421395     -0.718334973     -0.606999993      0.433615327      -1.44780898    
  -2.40179110     -0.994853973     -0.517000020      0.433615327      -1.44780898    
  -2.54972792     -0.507171988     -0.517000020      0.433615327      -1.44780898    
  -1.84103203     -0.366203994     -0.606999993      0.433615327      -1.44780898    
  -1.84103203     -0.366203994     -0.606999993       1.96555352      -1.53398359    
  -1.33877206     -0.266297996     -0.606999993       1.96555352      -1.53398359    
  -1.26109600     -0.522363007     -0.606999993       1.96555352      -1.53398359    
  -1.73421395     -0.718334973     -0.606999993       1.96555352      -1.53398359    
  -1.84103203     -0.366203994     -0.606999993      0.367856920      -1.37930238    
  -2.54972792     -0.507171988     -0.517000020      0.367856920      -1.37930238    
  -2.59967995       0.00000000     -0.517000020      0.367856920      -1.37930238    
  -1.87709999       0.00000000     -0.606999993      0.367856920      -1.37930238    
  -1.87709999       0.00000000     -0.606999993       1.85132027      -1.52126741    
  -1.36500001       0.00000000     -0.606999993       1.85132027      -1.52126741    
  -1.33877206     -0.266297996     -0.606999993       1.85132027      -1.52126741    
  -1.84103203     -0.366203994     -0.606999993       1.85132027      -1.52126741    
  -1.87709999       0.00000000     -0.606999993      0.299965024      -1.30922258    
  -2.59967995       0.00000000     -0.517000020      0.299965024      -1.30922258    
  -2.54972792      0.507171988     -0.517000020      0.299965024      -1.30922258    
  -1.84103203      0.366203994     -0.606999993      0.299965024      -1.30922258    
  -1.84103203      0.366203994     -0.606999993       1.72634006      -1.51199043    
  -1.33877206      0.266297996     -0.606999993       1.72634006      -1.51199043    
  -1.36500001       0.00000000     -0.606999993       1.72634006      -1.51199043    
  -1.87709999       0.00000000     -0.606999993       1.72634006      -1.51199043    
  -1.84103203      0.366203994     -0.606999993      0.240966320      -1.24820232    
  -2.54972792      0.507171988     -0.517000020      0.240966320      -1.24820232    
  -2.40179110      0.994853973     -0.517000020      0.240966320      -1.24820232    
  -1.73421395      0.718334973     -0.606999993      0.240966320      -1.24820232    
  -1.73421395      0.718334973     -0.606999993       1.60844862      -1.50799143    
  -1.26109600      0.522363007     -0.606999993       1.60844862      -1.50799143    
  -1.33877206      0.266297996     -0.606999993       1.60844862      -1.50799143    
  -1.84103203      0.366203994     -0.606999993       1.60844862      -1.50799143    
  -1.73421395      0.718334973     -0.606999993      0.196394578      -1.21026421    
  -2.40179110      0.994853973     -0.517000020      0.196394578      -1.21026421    
  -2.16155505       1.44430494     -0.517000020      0.196394578      -1.21026421    
  -1.56075203       1.04286098     -0.606999993      0.196394578      -1.21026421    
  -1.56075203       1.04286098     -0.606999993       1.51158857      -1.51034284    
  -1.13495600      0.758352995     -0.606999993       1.51158857      -1.51034284    
  -1.26109600      0.522363007     -0.606999993       1.51158857      -1.51034284    
  -1.73421395      0.718334973     -0.606999993       1.51158857      -1.51034284    
  -1.56075203       1.04286098     -0.606999993      0.168030098      -1.21007848    
  -2.16155505       1.44430494     -0.517000020      0.168030098      -1.21007848    
  -1.83825099       1.83825099     -0.517000020      0.168030098      -1.21007848    
  -1.32730997       1.32730997     -0.606999993      0.168030098      -1.21007848    
  -1.32730997       1.32730997     -0.606999993       1.44683433      -1.51883519    
 -0.965201020      0.965201020     -0.606999993       1.44683433      -1.51883519    
  -1.13495600      0.758352995     -0.606999993       1.44683433      -1.51883519    
  -1.56075203       1.04286098     -0.606999993       1.44683433      -1.51883519    
  -1.32730997       1.32730997     -0.606999993      0.158795774      -1.25820398    
  -1.83825099       1.83825099     -0.517000020      0.158795774      -1.25820398    
  -1.44430494       2.16155505     -0.517000020      0.158795774      -1.25820398    
  -1.04286098       1.56075203     -0.606999993      0.158795774      -1.25820398    
  -1.04286098       1.56075203     -0.606999993       1.42289841      -1.53170252    
 -0.758352995       1.13495600     -0.606999993       1.42289841      -1.53170252    
 -0.965201020      0.965201020     -0.606999993       1.42289841      -1.53170252    
  -1.32730997       1.32730997     -0.606999993       1.42289841      -1.53170252    
  -1.04286098       1.56075203     -0.606999993      0.168294385      -1.33755624    
  -1.44430494       2.16155505     -0.517000020      0.168294385      -1.33755624    
 -0.994853973       2.40179110     -0.517000020      0.168294385      -1.33755624    
 -0.718334973       1.73421395     -0.606999993      0.168294385      -1.33755624    
 -0.718334973       1.73421395     -0.606999993       1.44235015      -1.54584885    
 -0.522363007       1.26109600     -0.606999993       1.44235015      -1.54584885    
 -0.758352995       1.13495600     -0.606999993       1.44235015      -1.54584885    
  -1.04286098       1.56075203     -0.606999993       1.44235015      -1.54584885    
 -0.718334973       1.73421395     -0.606999993      0.197111666      -1.41832888    
 -0.994853973       2.40179110     -0.517000020      0.197111666      -1.41832888    
 -0.507171988       2.54972792     -0.517000020      0.197111666      -1.41832888    
 -0.366203994       1.84103203     -0.606999993      0.197111666      -1.41832888    
 -0.366203994       1.84103203     -0.606999993       1.50004947      -1.55797589    
 -0.266297996       1.33877206     -0.606999993       1.50004947      -1.55797589    
 -0.522363007       1.26109600     -0.606999993       1.50004947      -1.55797589    
 -0.718334973       1.73421395     -0.606999993       1.50004947      -1.55797589    
 -0.366203994       1.84103203     -0.606999993      0.239954546      -1.47578430    
 -0.507171988       2.54972792     -0.517000020      0.239954546      -1.47578430    
   0.00000000       2.59967995     -0.517000020      0.239954546      -1.47578430    
   0.00000000       1.87709999     -0.606999993      0.239954546      -1.47578430    
   0.00000000       1.87709999     -0.606999993       1.58927190      -1.56575131    
   0.00000000       1.36500001     -0.606999993       1.58927190      -1.56575131    
 -0.266297996       1.33877206     -0.606999993       1.58927190      -1.56575131    
 -0.366203994       1.84103203     -0.606999993       1.58927190      -1.56575131    
   0.00000000       1.87709999     -0.606999993      0.287613869      -1.50432158    
   0.00000000       2.59967995     -0.517000020      0.287613869      -1.50432158    
  0.507171988       2.54972792     -0.517000020      0.287613869      -1.50432158    
  0.366203994       1.84103203     -0.606999993      0.287613869      -1.50432158    
  0.366203994       1.84103203     -0.606999993       1.69357610      -1.56834686    
  0.266297996       1.33877206     -0.606999993       1.69357610      -1.56834686    
   0.00000000       1.36500001     -0.606999993       1.69357610      -1.56834686    
   0.00000000       1.87709999     -0.606999993       1.69357610      -1.56834686    
  0.366203994       1.84103203     -0.606999993      0.335586190      -1.50884259    
  0.507171988       2.54972792     -0.517000020      0.335586190      -1.50884259    
  0.994853973       2.40179110     -0.517000020      0.335586190      -1.50884259    
  0.718334973       1.73421395     -0.606999993      0.335586190      -1.50884259    
  0.718334973       1.73421395     -0.606999993       1.80111432      -1.56603205    
  0.522363007       1.26109600     -0.606999993       1.80111432      -1.56603205    
  0.266297996       1.33877206     -0.606999993       1.80111432      -1.56603205    
  0.366203994       1.84103203     -0.606999993       1.80111432      -1.56603205    
  0.718334973       1.73421395     -0.606999993      0.380907536      -1.49558628    
  0.994853973       2.40179110     -0.517000020      0.380907536      -1.49558628    
   1.44430494       2.16155505     -0.517000020      0.380907536      -1.49558628    
   1.04286098       1.56075203     -0.606999993      0.380907536      -1.49558628    
   1.04286098       1.56075203     -0.606999993       1.90389001      -1.56001139    
  0.758352995       1.13495600     -0.606999993       1.90389001      -1.56001139    
  0.522363007       1.26109600     -0.606999993       1.90389001      -1.56001139    
  0.718334973       1.73421395     -0.606999993       1.90389001      -1.56001139    
   1.04286098       1.56075203     -0.606999993      0.419353664      -1.47222400    
   1.44430494       2.16155505     -0.517000020      0.419353664      -1.47222400    
   1.83825099       1.83825099     -0.517000020      0.419353664      -1.47222400    
   1.32730997       1.32730997     -0.606999993      0.419353664      -1.47222400    
   1.32730997       1.32730997     -0.606999993       1.98559058      -1.55165243    
  0.965201020      0.965201020     -0.606999993       1.98559058      -1.55165243    
  0.758352995       1.13495600     -0.606999993       1.98559058      -1.55165243    
   1.04286098       1.56075203     -0.606999993       1.98559058      -1.55165243    
   1.32730997       1.32730997     -0.606999993      0.446755260      -1.44677162    
   1.83825099       1.83825099     -0.517000020      0.446755260      -1.44677162    
   2.16155505       1.44430494     -0.517000020      0.446755260      -1.44677162    
   1.56075203       1.04286098     -0.606999993      0.446755260      -1.44677162    
   1.56075203       1.04286098     -0.606999993       2.03516531      -1.54254568    
   1.13495600      0.758352995     -0.606999993       2.03516531      -1.54254568    
  0.965201020      0.965201020     -0.606999993       2.03516531      -1.54254568    
   1.32730997       1.32730997     -0.606999993       2.03516531      -1.54254568    
   1.56075203       1.04286098     -0.606999993      0.450512290      -1.42352426    
   2.16155505       1.44430494     -0.517000020      0.450512290      -1.42352426    
   2.40179110      0.994853973     -0.517000020      0.450512290      -1.42352426    
   1.73421395      0.718334973     -0.606999993      0.450512290      -1.42352426    
   1.73421395      0.718334973     -0.606999993       2.03068352      -1.53379309    
   1.26109600      0.522363007     -0.606999993       2.03068352      -1.53379309    
   1.13495600      0.758352995     -0.606999993       2.03068352      -1.53379309    
   1.56075203       1.04286098     -0.606999993       2.03068352      -1.53379309    
   1.73421395      0.718334973     -0.606999993      0.427903771      -1.40522468    
   2.40179110      0.994853973     -0.517000020      0.427903771      -1.40522468    
   2.54972792      0.507171988     -0.517000020      0.427903771      -1.40522468    
   1.84103203      0.366203994     -0.606999993      0.427903771      -1.40522468    
   1.84103203      0.366203994     -0.606999993       1.95942676      -1.52607501    
   1.33877206      0.266297996     -0.606999993       1.95942676      -1.52607501    
   1.26109600      0.522363007     -0.606999993       1.95942676      -1.52607501    
   1.73421395      0.718334973     -0.606999993       1.95942676      -1.52607501    
   1.84103203      0.366203994     -0.606999993      0.385759115      -1.39394474    
   2.54972792      0.507171988     -0.517000020      0.385759115      -1.39394474    
   2.59967995       0.00000000     -0.517000020      0.385759115      -1.39394474    
   1.87709999       0.00000000     -0.606999993      0.385759115      -1.39394474    
   1.87709999       0.00000000     -0.606999993       1.85344803      -1.52058923    
   1.36500001       0.00000000     -0.606999993       1.85344803      -1.52058923    
   1.33877206      0.266297996     -0.606999993       1.85344803      -1.52058923    
   1.84103203      0.366203994     -0.606999993       1.85344803      -1.52058923    
   1.87709999       0.00000000     -0.606999993      0.337063253      -1.39204001    
   2.59967995       0.00000000     -0.517000020      0.337063253      -1.39204001    
   2.54972792     -0.507171988     -0.517000020      0.337063253      -1.39204001    
   1.84103203     -0.366203994     -0.606999993      0.337063253      -1.39204001    
   1.84103203     -0.366203994     -0.606999993       1.73814309      -1.51853621    
   1.33877206     -0.266297996     -0.606999993       1.73814309      -1.51853621    
   1.36500001       0.00000000     -0.606999993       1.73814309      -1.51853621    
   1.87709999       0.00000000     -0.606999993       1.73814309      -1.51853621    
   1.84103203     -0.366203994     -0.606999993      0.291021973      -1.39950716    
   2.54972792     -0.507171988     -0.517000020      0.291021973      -1.39950716    
   2.40179110     -0.994853973     -0.517000020      0.291021973      -1.39950716    
   1.73421395     -0.718334973     -0.606999993      0.291021973      -1.39950716    
   1.73421395     -0.718334973     -0.606999993       1.63007760      -1.52060246    
   1.26109600     -0.522363007     -0.606999993       1.63007760      -1.52060246    
   1.33877206     -0.266297996     -0.606999993       1.63007760      -1.52060246    
   1.84103203     -0.366203994     -0.606999993       1.63007760      -1.52060246    
   1.73421395     -0.718334973     -0.606999993      0.253616661      -1.41468692    
   2.40179110     -0.994853973     -0.517000020      0.253616661      -1.41468692    
   2.16155505      -1.44430494     -0.517000020      0.253616661      -1.41468692    
   1.56075203      -1.04286098     -0.606999993      0.253616661      -1.41468692    
   1.56075203      -1.04286098     -0.606999993       1.54280472      -1.52701664    
   1.13495600     -0.758352995     -0.606999993       1.54280472      -1.52701664    
   1.26109600     -0.522363007     -0.606999993       1.54280472      -1.52701664    