 VARIABLES="X" "Y" "Z" "abs(p) (Pa)" "angle(p) (rad)"
ZONE N=   2709,E =    2358, F=FEPOINT, ET=QUADRILATERAL
   0.00000000      -5.48999977     -0.157000005       129.129944      -1.52463245    
   0.00000000      -4.76741982     -0.246999994       129.129944      -1.52463245    
  0.930077016      -4.67581606     -0.246999994       129.129944      -1.52463245    
   1.07104599      -5.38451099     -0.157000005       129.129944      -1.52463245    
  -1.07104599      -5.38451099     -0.157000005       123.057274       1.60948491    
 -0.930077016      -4.67581606     -0.246999994       123.057274       1.60948491    
   0.00000000      -4.76741982     -0.246999994       123.057274       1.60948491    
   0.00000000      -5.48999977     -0.157000005       123.057274       1.60948491    
  -2.10093188      -5.07209921     -0.157000005       366.601501       1.61240280    
  -1.82441294      -4.40452194     -0.246999994       366.601501       1.61240280    
 -0.930077016      -4.67581606     -0.246999994       366.601501       1.61240280    
  -1.07104599      -5.38451099     -0.157000005       366.601501       1.61240280    
  -3.05008101      -4.56476784     -0.157000005       588.851196       1.61363173    
  -2.64863706      -3.96396494     -0.246999994       588.851196       1.61363173    
  -1.82441294      -4.40452194     -0.246999994       588.851196       1.61363173    
  -2.10093188      -5.07209921     -0.157000005       588.851196       1.61363173    
  -3.88201594      -3.88201594     -0.157000005       787.704041       1.61418343    
  -3.37107491      -3.37107491     -0.246999994       787.704041       1.61418343    
  -2.64863706      -3.96396494     -0.246999994       787.704041       1.61418343    
  -3.05008101      -4.56476784     -0.157000005       787.704041       1.61418343    
  -4.56476784      -3.05008101     -0.157000005       959.610291       1.61425674    
  -3.96396494      -2.64863706     -0.246999994       959.610291       1.61425674    
  -3.37107491      -3.37107491     -0.246999994       959.610291       1.61425674    
  -3.88201594      -3.88201594     -0.157000005       959.610291       1.61425674    
  -5.07209921      -2.10093188     -0.157000005       1099.81628       1.61437392    
  -4.40452194      -1.82441294     -0.246999994       1099.81628       1.61437392    
  -3.96396494      -2.64863706     -0.246999994       1099.81628       1.61437392    
  -4.56476784      -3.05008101     -0.157000005       1099.81628       1.61437392    
  -5.38451099      -1.07104599     -0.157000005       1198.88562       1.61433709    
  -4.67581606     -0.930077016     -0.246999994       1198.88562       1.61433709    
  -4.40452194      -1.82441294     -0.246999994       1198.88562       1.61433709    
  -5.07209921      -2.10093188     -0.157000005       1198.88562       1.61433709    
  -5.48999977       0.00000000     -0.157000005       1248.21118       1.61428154    
  -4.76741982       0.00000000     -0.246999994       1248.21118       1.61428154    
  -4.67581606     -0.930077016     -0.246999994       1248.21118       1.61428154    
  -5.38451099      -1.07104599     -0.157000005       1248.21118       1.61428154    
  -5.38451099       1.07104599     -0.157000005       1250.76624       1.61430216    
  -4.67581606      0.930077016     -0.246999994       1250.76624       1.61430216    
  -4.76741982       0.00000000     -0.246999994       1250.76624       1.61430216    
  -5.48999977       0.00000000     -0.157000005       1250.76624       1.61430216    
  -5.07209921       2.10093188     -0.157000005       1205.83240       1.61433029    
  -4.40452194       1.82441294     -0.246999994       1205.83240       1.61433029    
  -4.67581606      0.930077016     -0.246999994       1205.83240       1.61433029    
  -5.38451099       1.07104599     -0.157000005       1205.83240       1.61433029    
  -4.56476784       3.05008101     -0.157000005       1109.88708       1.61454868    
  -3.96396494       2.64863706     -0.246999994       1109.88708       1.61454868    
  -4.40452194       1.82441294     -0.246999994       1109.88708       1.61454868    
  -5.07209921       2.10093188     -0.157000005       1109.88708       1.61454868    
  -3.88201594       3.88201594     -0.157000005       970.911133       1.61493886    
  -3.37107491       3.37107491     -0.246999994       970.911133       1.61493886    
  -3.96396494       2.64863706     -0.246999994       970.911133       1.61493886    
  -4.56476784       3.05008101     -0.157000005       970.911133       1.61493886    
  -3.05008101       4.56476784     -0.157000005       796.810059       1.61509132    
  -2.64863706       3.96396494     -0.246999994       796.810059       1.61509132    
  -3.37107491       3.37107491     -0.246999994       796.810059       1.61509132    
  -3.88201594       3.88201594     -0.157000005       796.810059       1.61509132    
  -2.10093188       5.07209921     -0.157000005       596.147644       1.61532068    
  -1.82441294       4.40452194     -0.246999994       596.147644       1.61532068    
  -2.64863706       3.96396494     -0.246999994       596.147644       1.61532068    
  -3.05008101       4.56476784     -0.157000005       596.147644       1.61532068    
  -1.07104599       5.38451099     -0.157000005       372.854889       1.61546576    
 -0.930077016       4.67581606     -0.246999994       372.854889       1.61546576    
  -1.82441294       4.40452194     -0.246999994       372.854889       1.61546576    
  -2.10093188       5.07209921     -0.157000005       372.854889       1.61546576    
   0.00000000       5.48999977     -0.157000005       129.499039       1.61853266    
   0.00000000       4.76741982     -0.246999994       129.499039       1.61853266    
 -0.930077016       4.67581606     -0.246999994       129.499039       1.61853266    
  -1.07104599       5.38451099     -0.157000005       129.499039       1.61853266    
   1.07104599       5.38451099     -0.157000005       122.616180      -1.53360927    
  0.930077016       4.67581606     -0.246999994       122.616180      -1.53360927    
   0.00000000       4.76741982     -0.246999994       122.616180      -1.53360927    
   0.00000000       5.48999977     -0.157000005       122.616180      -1.53360927    
   2.10093188       5.07209921     -0.157000005       366.293396      -1.52945840    
   1.82441294       4.40452194     -0.246999994       366.293396      -1.52945840    
  0.930077016       4.67581606     -0.246999994       366.293396      -1.52945840    
   1.07104599       5.38451099     -0.157000005       366.293396      -1.52945840    
   3.05008101       4.56476784     -0.157000005       589.887451      -1.52826214    
   2.64863706       3.96396494     -0.246999994       589.887451      -1.52826214    
   1.82441294       4.40452194     -0.246999994       589.887451      -1.52826214    
   2.10093188       5.07209921     -0.157000005       589.887451      -1.52826214    
   3.88201594       3.88201594     -0.157000005       791.249268      -1.52786934    
   3.37107491       3.37107491     -0.246999994       791.249268      -1.52786934    
   2.64863706       3.96396494     -0.246999994       791.249268      -1.52786934    
   3.05008101       4.56476784     -0.157000005       791.249268      -1.52786934    
   4.56476784       3.05008101     -0.157000005       965.909607      -1.52768409    
   3.96396494       2.64863706     -0.246999994       965.909607      -1.52768409    
   3.37107491       3.37107491     -0.246999994       965.909607      -1.52768409    
   3.88201594       3.88201594     -0.157000005       965.909607      -1.52768409    
   5.07209921       2.10093188     -0.157000005       1106.34729      -1.52770281    
   4.40452194       1.82441294     -0.246999994       1106.34729      -1.52770281    
   3.96396494       2.64863706     -0.246999994       1106.34729      -1.52770281    
   4.56476784       3.05008101     -0.157000005       1106.34729      -1.52770281    
   5.38451099       1.07104599     -0.157000005       1204.15881      -1.52754903    
   4.67581606      0.930077016     -0.246999994       1204.15881      -1.52754903    
   4.40452194       1.82441294     -0.246999994       1204.15881      -1.52754903    
   5.07209921       2.10093188     -0.157000005       1204.15881      -1.52754903    
   5.48999977       0.00000000     -0.157000005       1250.55737      -1.52736270    
   4.76741982       0.00000000     -0.246999994       1250.55737      -1.52736270    
   4.67581606      0.930077016     -0.246999994       1250.55737      -1.52736270    
   5.38451099       1.07104599     -0.157000005       1250.55737      -1.52736270    
   5.38451099      -1.07104599     -0.157000005       1249.27551      -1.52722001    
   4.67581606     -0.930077016     -0.246999994       1249.27551      -1.52722001    
   4.76741982       0.00000000     -0.246999994       1249.27551      -1.52722001    
   5.48999977       0.00000000     -0.157000005       1249.27551      -1.52722001    
   5.07209921      -2.10093188     -0.157000005       1200.79773      -1.52710629    
   4.40452194      -1.82441294     -0.246999994       1200.79773      -1.52710629    
   4.67581606     -0.930077016     -0.246999994       1200.79773      -1.52710629    
   5.38451099      -1.07104599     -0.157000005       1200.79773      -1.52710629    
   4.56476784      -3.05008101     -0.157000005       1102.95105      -1.52686477    
   3.96396494      -2.64863706     -0.246999994       1102.95105      -1.52686477    
   4.40452194      -1.82441294     -0.246999994       1102.95105      -1.52686477    
   5.07209921      -2.10093188     -0.157000005       1102.95105      -1.52686477    
   3.88201594      -3.88201594     -0.157000005       964.101807      -1.52663338    
   3.37107491      -3.37107491     -0.246999994       964.101807      -1.52663338    
   3.96396494      -2.64863706     -0.246999994       964.101807      -1.52663338    
   4.56476784      -3.05008101     -0.157000005       964.101807      -1.52663338    
   3.05008101      -4.56476784     -0.157000005       792.191528      -1.52662432    
   2.64863706      -3.96396494     -0.246999994       792.191528      -1.52662432    
   3.37107491      -3.37107491     -0.246999994       792.191528      -1.52662432    
   3.88201594      -3.88201594     -0.157000005       792.191528      -1.52662432    
   2.10093188      -5.07209921     -0.157000005       594.200989      -1.52659953    
   1.82441294      -4.40452194     -0.246999994       594.200989      -1.52659953    
   2.64863706      -3.96396494     -0.246999994       594.200989      -1.52659953    
   3.05008101      -4.56476784     -0.157000005       594.200989      -1.52659953    
   1.07104599      -5.38451099     -0.157000005       372.460083      -1.52664196    
  0.930077016      -4.67581606     -0.246999994       372.460083      -1.52664196    
   1.82441294      -4.40452194     -0.246999994       372.460083      -1.52664196    
   2.10093188      -5.07209921     -0.157000005       372.460083      -1.52664196    
   0.00000000      -1.87709999     -0.606999993       710.625549      -1.56868947    
   0.00000000      -1.36500001     -0.606999993       710.625549      -1.56868947    
  0.266297996      -1.33877206     -0.606999993       710.625549      -1.56868947    
  0.366203994      -1.84103203     -0.606999993       710.625549      -1.56868947    
   0.00000000      -1.87709999     -0.606999993       390.971222       1.57585299    
   0.00000000      -2.59967995     -0.517000020       390.971222       1.57585299    
 -0.507171988      -2.54972792     -0.517000020       390.971222       1.57585299    
 -0.366203994      -1.84103203     -0.606999993       390.971222       1.57585299    
 -0.366203994      -1.84103203     -0.606999993       620.743408       1.57270956    
 -0.266297996      -1.33877206     -0.606999993       620.743408       1.57270956    
   0.00000000      -1.36500001     -0.606999993       620.743408       1.57270956    
   0.00000000      -1.87709999     -0.606999993       620.743408       1.57270956    
 -0.366203994      -1.84103203     -0.606999993       1190.44421       1.57602859    
 -0.507171988      -2.54972792     -0.517000020       1190.44421       1.57602859    
 -0.994853973      -2.40179110     -0.517000020       1190.44421       1.57602859    
 -0.718334973      -1.73421395     -0.606999993       1190.44421       1.57602859    
 -0.718334973      -1.73421395     -0.606999993       1916.89014       1.57277787    
 -0.522363007      -1.26109600     -0.606999993       1916.89014       1.57277787    
 -0.266297996      -1.33877206     -0.606999993       1916.89014       1.57277787    
 -0.366203994      -1.84103203     -0.606999993       1916.89014       1.57277787    
 -0.718334973      -1.73421395     -0.606999993       1897.39099       1.57612228    
 -0.994853973      -2.40179110     -0.517000020       1897.39099       1.57612228    
  -1.44430494      -2.16155505     -0.517000020       1897.39099       1.57612228    
  -1.04286098      -1.56075203     -0.606999993       1897.39099       1.57612228    
  -1.04286098      -1.56075203     -0.606999993       3114.81494       1.57278514    
 -0.758352995      -1.13495600     -0.606999993       3114.81494       1.57278514    
 -0.522363007      -1.26109600     -0.606999993       3114.81494       1.57278514    
 -0.718334973      -1.73421395     -0.606999993       3114.81494       1.57278514    
  -1.04286098      -1.56075203     -0.606999993       2509.13623       1.57619357    
  -1.44430494      -2.16155505     -0.517000020       2509.13623       1.57619357    
  -1.83825099      -1.83825099     -0.517000020       2509.13623       1.57619357    
  -1.32730997      -1.32730997     -0.606999993       2509.13623       1.57619357    
  -1.32730997      -1.32730997     -0.606999993       4177.75342       1.57278907    
 -0.965201020     -0.965201020     -0.606999993       4177.75342       1.57278907    
 -0.758352995      -1.13495600     -0.606999993       4177.75342       1.57278907    
  -1.04286098      -1.56075203     -0.606999993       4177.75342       1.57278907    
  -1.32730997      -1.32730997     -0.606999993       3039.45923       1.57623208    
  -1.83825099      -1.83825099     -0.517000020       3039.45923       1.57623208    
  -2.16155505      -1.44430494     -0.517000020       3039.45923       1.57623208    
  -1.56075203      -1.04286098     -0.606999993       3039.45923       1.57623208    
  -1.56075203      -1.04286098     -0.606999993       5084.95312       1.57279336    
  -1.13495600     -0.758352995     -0.606999993       5084.95312       1.57279336    
 -0.965201020     -0.965201020     -0.606999993       5084.95312       1.57279336    
  -1.32730997      -1.32730997     -0.606999993       5084.95312       1.57279336    
  -1.56075203      -1.04286098     -0.606999993       3486.29956       1.57623637    
  -2.16155505      -1.44430494     -0.517000020       3486.29956       1.57623637    
  -2.40179110     -0.994853973     -0.517000020       3486.29956       1.57623637    
  -1.73421395     -0.718334973     -0.606999993       3486.29956       1.57623637    
  -1.73421395     -0.718334973     -0.606999993       5816.11670       1.57279861    
  -1.26109600     -0.522363007     -0.606999993       5816.11670       1.57279861    
  -1.13495600     -0.758352995     -0.606999993       5816.11670       1.57279861    
  -1.56075203      -1.04286098     -0.606999993       5816.11670       1.57279861    
  -1.73421395     -0.718334973     -0.606999993       3819.54688       1.57622242    
  -2.40179110     -0.994853973     -0.517000020       3819.54688       1.57622242    
  -2.54972792     -0.507171988     -0.517000020       3819.54688       1.57622242    
  -1.84103203     -0.366203994     -0.606999993       3819.54688       1.57622242    
  -1.84103203     -0.366203994     -0.606999993       6337.84766       1.57280409    
  -1.33877206     -0.266297996     -0.606999993       6337.84766       1.57280409    
  -1.26109600     -0.522363007     -0.606999993       6337.84766       1.57280409    
  -1.73421395     -0.718334973     -0.606999993       6337.84766       1.57280409    
  -1.84103203     -0.366203994     -0.606999993       4002.07837       1.57621133    
  -2.54972792     -0.507171988     -0.517000020       4002.07837       1.57621133    
  -2.59967995       0.00000000     -0.517000020       4002.07837       1.57621133    
  -1.87709999       0.00000000     -0.606999993       4002.07837       1.57621133    
  -1.87709999       0.00000000     -0.606999993       6615.46582       1.57280910    
  -1.36500001       0.00000000     -0.606999993       6615.46582       1.57280910    
  -1.33877206     -0.266297996     -0.606999993       6615.46582       1.57280910    
  -1.84103203     -0.366203994     -0.606999993       6615.46582       1.57280910    
  -1.87709999       0.00000000     -0.606999993       4010.15991       1.57621741    
  -2.59967995       0.00000000     -0.517000020       4010.15991       1.57621741    
  -2.54972792      0.507171988     -0.517000020       4010.15991       1.57621741    
  -1.84103203      0.366203994     -0.606999993       4010.15991       1.57621741    
  -1.84103203      0.366203994     -0.606999993       6626.08301       1.57281315    
  -1.33877206      0.266297996     -0.606999993       6626.08301       1.57281315    
  -1.36500001       0.00000000     -0.606999993       6626.08301       1.57281315    
  -1.87709999       0.00000000     -0.606999993       6626.08301       1.57281315    
  -1.84103203      0.366203994     -0.606999993       3841.05859       1.57624424    
  -2.54972792      0.507171988     -0.517000020       3841.05859       1.57624424    
  -2.40179110      0.994853973     -0.517000020       3841.05859       1.57624424    
  -1.73421395      0.718334973     -0.606999993       3841.05859       1.57624424    
  -1.73421395      0.718334973     -0.606999993       6367.77246       1.57281685    
  -1.26109600      0.522363007     -0.606999993       6367.77246       1.57281685    
  -1.33877206      0.266297996     -0.606999993       6367.77246       1.57281685    
  -1.84103203      0.366203994     -0.606999993       6367.77246       1.57281685    
  -1.73421395      0.718334973     -0.606999993       3514.48120       1.57628179    
  -2.40179110      0.994853973     -0.517000020       3514.48120       1.57628179    
  -2.16155505       1.44430494     -0.517000020       3514.48120       1.57628179    
  -1.56075203       1.04286098     -0.606999993       3514.48120       1.57628179    
  -1.56075203       1.04286098     -0.606999993       5860.99707       1.57282054    
  -1.13495600      0.758352995     -0.606999993       5860.99707       1.57282054    
  -1.26109600      0.522363007     -0.606999993       5860.99707       1.57282054    
  -1.73421395      0.718334973     -0.606999993       5860.99707       1.57282054    
  -1.56075203       1.04286098     -0.606999993       3068.35425       1.57630992    
  -2.16155505       1.44430494     -0.517000020       3068.35425       1.57630992    
  -1.83825099       1.83825099     -0.517000020       3068.35425       1.57630992    
  -1.32730997       1.32730997     -0.606999993       3068.35425       1.57630992    
  -1.32730997       1.32730997     -0.606999993       5140.02588       1.57282627    
 -0.965201020      0.965201020     -0.606999993       5140.02588       1.57282627    
  -1.13495600      0.758352995     -0.606999993       5140.02588       1.57282627    
  -1.56075203       1.04286098     -0.606999993       5140.02588       1.57282627    
  -1.32730997       1.32730997     -0.606999993       2538.17041       1.57631099    
  -1.83825099       1.83825099     -0.517000020       2538.17041       1.57631099    
  -1.44430494       2.16155505     -0.517000020       2538.17041       1.57631099    
  -1.04286098       1.56075203     -0.606999993       2538.17041       1.57631099    
  -1.04286098       1.56075203     -0.606999993       4240.02539       1.57283759    
 -0.758352995       1.13495600     -0.606999993       4240.02539       1.57283759    
 -0.965201020      0.965201020     -0.606999993       4240.02539       1.57283759    
  -1.32730997       1.32730997     -0.606999993       4240.02539       1.57283759    
  -1.04286098       1.56075203     -0.606999993       1930.64478       1.57628977    
  -1.44430494       2.16155505     -0.517000020       1930.64478       1.57628977    
 -0.994853973       2.40179110     -0.517000020       1930.64478       1.57628977    
 -0.718334973       1.73421395     -0.606999993       1930.64478       1.57628977    
 -0.718334973       1.73421395     -0.606999993       3184.95630       1.57285893    
 -0.522363007       1.26109600     -0.606999993       3184.95630       1.57285893    
 -0.758352995       1.13495600     -0.606999993       3184.95630       1.57285893    
  -1.04286098       1.56075203     -0.606999993       3184.95630       1.57285893    
 -0.718334973       1.73421395     -0.606999993       1232.47595       1.57629097    
 -0.994853973       2.40179110     -0.517000020       1232.47595       1.57629097    
 -0.507171988       2.54972792     -0.517000020       1232.47595       1.57629097    
 -0.366203994       1.84103203     -0.606999993       1232.47595       1.57629097    
 -0.366203994       1.84103203     -0.606999993       1997.30322       1.57290375    
 -0.266297996       1.33877206     -0.606999993       1997.30322       1.57290375    
 -0.522363007       1.26109600     -0.606999993       1997.30322       1.57290375    
 -0.718334973       1.73421395     -0.606999993       1997.30322       1.57290375    
 -0.366203994       1.84103203     -0.606999993       444.082245       1.57655609    
 -0.507171988       2.54972792     -0.517000020       444.082245       1.57655609    
   0.00000000       2.59967995     -0.517000020       444.082245       1.57655609    
   0.00000000       1.87709999     -0.606999993       444.082245       1.57655609    
   0.00000000       1.87709999     -0.606999993       711.653137       1.57309031    
   0.00000000       1.36500001     -0.606999993       711.653137       1.57309031    
 -0.266297996       1.33877206     -0.606999993       711.653137       1.57309031    
 -0.366203994       1.84103203     -0.606999993       711.653137       1.57309031    
   0.00000000       1.87709999     -0.606999993       383.290680      -1.56606269    
   0.00000000       2.59967995     -0.517000020       383.290680      -1.56606269    
  0.507171988       2.54972792     -0.517000020       383.290680      -1.56606269    
  0.366203994       1.84103203     -0.606999993       383.290680      -1.56606269    
  0.366203994       1.84103203     -0.606999993       611.690857      -1.56910706    
  0.266297996       1.33877206     -0.606999993       611.690857      -1.56910706    
   0.00000000       1.36500001     -0.606999993       611.690857      -1.56910706    
   0.00000000       1.87709999     -0.606999993       611.690857      -1.56910706    
  0.366203994       1.84103203     -0.606999993       1174.44666      -1.56564486    
  0.507171988       2.54972792     -0.517000020       1174.44666      -1.56564486    
  0.994853973       2.40179110     -0.517000020       1174.44666      -1.56564486    
  0.718334973       1.73421395     -0.606999993       1174.44666      -1.56564486    
  0.718334973       1.73421395     -0.606999993       1901.58411      -1.56888938    
  0.522363007       1.26109600     -0.606999993       1901.58411      -1.56888938    
  0.266297996       1.33877206     -0.606999993       1901.58411      -1.56888938    
  0.366203994       1.84103203     -0.606999993       1901.58411      -1.56888938    
  0.718334973       1.73421395     -0.606999993       1877.51697      -1.56550992    
  0.994853973       2.40179110     -0.517000020       1877.51697      -1.56550992    
   1.44430494       2.16155505     -0.517000020       1877.51697      -1.56550992    
   1.04286098       1.56075203     -0.606999993       1877.51697      -1.56550992    
   1.04286098       1.56075203     -0.606999993       3097.70728      -1.56885409    
  0.758352995       1.13495600     -0.606999993       3097.70728      -1.56885409    
  0.522363007       1.26109600     -0.606999993       3097.70728      -1.56885409    
  0.718334973       1.73421395     -0.606999993       3097.70728      -1.56885409    
   1.04286098       1.56075203     -0.606999993       2491.87573      -1.56542766    
   1.44430494       2.16155505     -0.517000020       2491.87573      -1.56542766    
   1.83825099       1.83825099     -0.517000020       2491.87573      -1.56542766    
   1.32730997       1.32730997     -0.606999993       2491.87573      -1.56542766    
   1.32730997       1.32730997     -0.606999993       4164.59082      -1.56883967    
  0.965201020      0.965201020     -0.606999993       4164.59082      -1.56883967    
  0.758352995       1.13495600     -0.606999993       4164.59082      -1.56883967    
   1.04286098       1.56075203     -0.606999993       4164.59082      -1.56883967    
   1.32730997       1.32730997     -0.606999993       3030.38940      -1.56538975    
   1.83825099       1.83825099     -0.517000020       3030.38940      -1.56538975    
   2.16155505       1.44430494     -0.517000020       3030.38940      -1.56538975    
   1.56075203       1.04286098     -0.606999993       3030.38940      -1.56538975    
   1.56075203       1.04286098     -0.606999993       5078.98291      -1.56882918    
   1.13495600      0.758352995     -0.606999993       5078.98291      -1.56882918    
  0.965201020      0.965201020     -0.606999993       5078.98291      -1.56882918    
   1.32730997       1.32730997     -0.606999993       5078.98291      -1.56882918    
   1.56075203       1.04286098     -0.606999993       3485.81104      -1.56538999    
   2.16155505       1.44430494     -0.517000020       3485.81104      -1.56538999    
   2.40179110      0.994853973     -0.517000020       3485.81104      -1.56538999    
   1.73421395      0.718334973     -0.606999993       3485.81104      -1.56538999    
   1.73421395      0.718334973     -0.606999993       5814.41406      -1.56881857    
   1.26109600      0.522363007     -0.606999993       5814.41406      -1.56881857    
   1.13495600      0.758352995     -0.606999993       5814.41406      -1.56881857    
   1.56075203       1.04286098     -0.606999993       5814.41406      -1.56881857    
   1.73421395      0.718334973     -0.606999993       3822.35156      -1.56540573    
   2.40179110      0.994853973     -0.517000020       3822.35156      -1.56540573    
   2.54972792      0.507171988     -0.517000020       3822.35156      -1.56540573    
   1.84103203      0.366203994     -0.606999993       3822.35156      -1.56540573    
   1.84103203      0.366203994     -0.606999993       6337.20361      -1.56881022    
   1.33877206      0.266297996     -0.606999993       6337.20361      -1.56881022    
   1.26109600      0.522363007     -0.606999993       6337.20361      -1.56881022    
   1.73421395      0.718334973     -0.606999993       6337.20361      -1.56881022    
   1.84103203      0.366203994     -0.606999993       4002.02417      -1.56541514    
   2.54972792      0.507171988     -0.517000020       4002.02417      -1.56541514    
   2.59967995       0.00000000     -0.517000020       4002.02417      -1.56541514    
   1.87709999       0.00000000     -0.606999993       4002.02417      -1.56541514    
   1.87709999       0.00000000     -0.606999993       6613.14160      -1.56880498    
   1.36500001       0.00000000     -0.606999993       6613.14160      -1.56880498    
   1.33877206      0.266297996     -0.606999993       6613.14160      -1.56880498    
   1.84103203      0.366203994     -0.606999993       6613.14160      -1.56880498    
   1.87709999       0.00000000     -0.606999993       4004.85913      -1.56540763    
   2.59967995       0.00000000     -0.517000020       4004.85913      -1.56540763    
   2.54972792     -0.507171988     -0.517000020       4004.85913      -1.56540763    
   1.84103203     -0.366203994     -0.606999993       4004.85913      -1.56540763    
   1.84103203     -0.366203994     -0.606999993       6620.51270      -1.56880116    
   1.33877206     -0.266297996     -0.606999993       6620.51270      -1.56880116    
   1.36500001       0.00000000     -0.606999993       6620.51270      -1.56880116    
   1.87709999       0.00000000     -0.606999993       6620.51270      -1.56880116    
   1.84103203     -0.366203994     -0.606999993       3833.13940      -1.56538320    
   2.54972792     -0.507171988     -0.517000020       3833.13940      -1.56538320    
   2.40179110     -0.994853973     -0.517000020       3833.13940      -1.56538320    
   1.73421395     -0.718334973     -0.606999993       3833.13940      -1.56538320    
   1.73421395     -0.718334973     -0.606999993       6361.04297      -1.56879890    
   1.26109600     -0.522363007     -0.606999993       6361.04297      -1.56879890    
   1.33877206     -0.266297996     -0.606999993       6361.04297      -1.56879890    
   1.84103203     -0.366203994     -0.606999993       6361.04297      -1.56879890    
   1.73421395     -0.718334973     -0.606999993       3510.12012      -1.56535530    
   2.40179110     -0.994853973     -0.517000020       3510.12012      -1.56535530    
   2.16155505      -1.44430494     -0.517000020       3510.12012      -1.56535530    
   1.56075203      -1.04286098     -0.606999993       3510.12012      -1.56535530    
   1.56075203      -1.04286098     -0.606999993       5857.28418      -1.56879723    
   1.13495600     -0.758352995     -0.606999993       5857.28418      -1.56879723    
   1.26109600     -0.522363007     -0.606999993       5857.28418      -1.56879723    