 VARIABLES="X" "Y" "Z" "abs(p) (Pa)" "angle(p) (rad)"
ZONE N=   2709,E =    2358, F=FEPOINT, ET=QUADRILATERAL
   0.00000000      -5.48999977     -0.157000005       472.640381      -1.62976384    
   0.00000000      -4.76741982     -0.246999994       472.640381      -1.62976384    
  0.930077016      -4.67581606     -0.246999994       472.640381      -1.62976384    
   1.07104599      -5.38451099     -0.157000005       472.640381      -1.62976384    
  -1.07104599      -5.38451099     -0.157000005       478.320190       1.52207553    
 -0.930077016      -4.67581606     -0.246999994       478.320190       1.52207553    
   0.00000000      -4.76741982     -0.246999994       478.320190       1.52207553    
   0.00000000      -5.48999977     -0.157000005       478.320190       1.52207553    
  -2.10093188      -5.07209921     -0.157000005       1429.83582       1.51890314    
  -1.82441294      -4.40452194     -0.246999994       1429.83582       1.51890314    
 -0.930077016      -4.67581606     -0.246999994       1429.83582       1.51890314    
  -1.07104599      -5.38451099     -0.157000005       1429.83582       1.51890314    
  -3.05008101      -4.56476784     -0.157000005       2282.76978       1.51343942    
  -2.64863706      -3.96396494     -0.246999994       2282.76978       1.51343942    
  -1.82441294      -4.40452194     -0.246999994       2282.76978       1.51343942    
  -2.10093188      -5.07209921     -0.157000005       2282.76978       1.51343942    
  -3.88201594      -3.88201594     -0.157000005       3065.09888       1.51536310    
  -3.37107491      -3.37107491     -0.246999994       3065.09888       1.51536310    
  -2.64863706      -3.96396494     -0.246999994       3065.09888       1.51536310    
  -3.05008101      -4.56476784     -0.157000005       3065.09888       1.51536310    
  -4.56476784      -3.05008101     -0.157000005       3779.97119       1.52098274    
  -3.96396494      -2.64863706     -0.246999994       3779.97119       1.52098274    
  -3.37107491      -3.37107491     -0.246999994       3779.97119       1.52098274    
  -3.88201594      -3.88201594     -0.157000005       3779.97119       1.52098274    
  -5.07209921      -2.10093188     -0.157000005       4261.08154       1.51738977    
  -4.40452194      -1.82441294     -0.246999994       4261.08154       1.51738977    
  -3.96396494      -2.64863706     -0.246999994       4261.08154       1.51738977    
  -4.56476784      -3.05008101     -0.157000005       4261.08154       1.51738977    
  -5.38451099      -1.07104599     -0.157000005       4628.25830       1.51511490    
  -4.67581606     -0.930077016     -0.246999994       4628.25830       1.51511490    
  -4.40452194      -1.82441294     -0.246999994       4628.25830       1.51511490    
  -5.07209921      -2.10093188     -0.157000005       4628.25830       1.51511490    
  -5.48999977       0.00000000     -0.157000005       4892.21289       1.51783335    
  -4.76741982       0.00000000     -0.246999994       4892.21289       1.51783335    
  -4.67581606     -0.930077016     -0.246999994       4892.21289       1.51783335    
  -5.38451099      -1.07104599     -0.157000005       4892.21289       1.51783335    
  -5.38451099       1.07104599     -0.157000005       4904.28809       1.51814377    
  -4.67581606      0.930077016     -0.246999994       4904.28809       1.51814377    
  -4.76741982       0.00000000     -0.246999994       4904.28809       1.51814377    
  -5.48999977       0.00000000     -0.157000005       4904.28809       1.51814377    
  -5.07209921       2.10093188     -0.157000005       4713.68896       1.51862717    
  -4.40452194       1.82441294     -0.246999994       4713.68896       1.51862717    
  -4.67581606      0.930077016     -0.246999994       4713.68896       1.51862717    
  -5.38451099       1.07104599     -0.157000005       4713.68896       1.51862717    
  -4.56476784       3.05008101     -0.157000005       4337.68457       1.51870275    
  -3.96396494       2.64863706     -0.246999994       4337.68457       1.51870275    
  -4.40452194       1.82441294     -0.246999994       4337.68457       1.51870275    
  -5.07209921       2.10093188     -0.157000005       4337.68457       1.51870275    
  -3.88201594       3.88201594     -0.157000005       3751.36938       1.51472342    
  -3.37107491       3.37107491     -0.246999994       3751.36938       1.51472342    
  -3.96396494       2.64863706     -0.246999994       3751.36938       1.51472342    
  -4.56476784       3.05008101     -0.157000005       3751.36938       1.51472342    
  -3.05008101       4.56476784     -0.157000005       3110.65845       1.51790345    
  -2.64863706       3.96396494     -0.246999994       3110.65845       1.51790345    
  -3.37107491       3.37107491     -0.246999994       3110.65845       1.51790345    
  -3.88201594       3.88201594     -0.157000005       3110.65845       1.51790345    
  -2.10093188       5.07209921     -0.157000005       2283.91113       1.51512063    
  -1.82441294       4.40452194     -0.246999994       2283.91113       1.51512063    
  -2.64863706       3.96396494     -0.246999994       2283.91113       1.51512063    
  -3.05008101       4.56476784     -0.157000005       2283.91113       1.51512063    
  -1.07104599       5.38451099     -0.157000005       1421.95349       1.51877749    
 -0.930077016       4.67581606     -0.246999994       1421.95349       1.51877749    
  -1.82441294       4.40452194     -0.246999994       1421.95349       1.51877749    
  -2.10093188       5.07209921     -0.157000005       1421.95349       1.51877749    
   0.00000000       5.48999977     -0.157000005       476.964447       1.51225412    
   0.00000000       4.76741982     -0.246999994       476.964447       1.51225412    
 -0.930077016       4.67581606     -0.246999994       476.964447       1.51225412    
  -1.07104599       5.38451099     -0.157000005       476.964447       1.51225412    
   1.07104599       5.38451099     -0.157000005       484.896729      -1.61553478    
  0.930077016       4.67581606     -0.246999994       484.896729      -1.61553478    
   0.00000000       4.76741982     -0.246999994       484.896729      -1.61553478    
   0.00000000       5.48999977     -0.157000005       484.896729      -1.61553478    
   2.10093188       5.07209921     -0.157000005       1410.39990      -1.62673044    
   1.82441294       4.40452194     -0.246999994       1410.39990      -1.62673044    
  0.930077016       4.67581606     -0.246999994       1410.39990      -1.62673044    
   1.07104599       5.38451099     -0.157000005       1410.39990      -1.62673044    
   3.05008101       4.56476784     -0.157000005       2282.60352      -1.62832510    
   2.64863706       3.96396494     -0.246999994       2282.60352      -1.62832510    
   1.82441294       4.40452194     -0.246999994       2282.60352      -1.62832510    
   2.10093188       5.07209921     -0.157000005       2282.60352      -1.62832510    
   3.88201594       3.88201594     -0.157000005       3110.45093      -1.62220788    
   3.37107491       3.37107491     -0.246999994       3110.45093      -1.62220788    
   2.64863706       3.96396494     -0.246999994       3110.45093      -1.62220788    
   3.05008101       4.56476784     -0.157000005       3110.45093      -1.62220788    
   4.56476784       3.05008101     -0.157000005       3767.45801      -1.62192404    
   3.96396494       2.64863706     -0.246999994       3767.45801      -1.62192404    
   3.37107491       3.37107491     -0.246999994       3767.45801      -1.62192404    
   3.88201594       3.88201594     -0.157000005       3767.45801      -1.62192404    
   5.07209921       2.10093188     -0.157000005       4323.29150      -1.62100470    
   4.40452194       1.82441294     -0.246999994       4323.29150      -1.62100470    
   3.96396494       2.64863706     -0.246999994       4323.29150      -1.62100470    
   4.56476784       3.05008101     -0.157000005       4323.29150      -1.62100470    
   5.38451099       1.07104599     -0.157000005       4628.26123      -1.62698948    
   4.67581606      0.930077016     -0.246999994       4628.26123      -1.62698948    
   4.40452194       1.82441294     -0.246999994       4628.26123      -1.62698948    
   5.07209921       2.10093188     -0.157000005       4628.26123      -1.62698948    
   5.48999977       0.00000000     -0.157000005       4811.83545      -1.62762558    
   4.76741982       0.00000000     -0.246999994       4811.83545      -1.62762558    
   4.67581606      0.930077016     -0.246999994       4811.83545      -1.62762558    
   5.38451099       1.07104599     -0.157000005       4811.83545      -1.62762558    
   5.38451099      -1.07104599     -0.157000005       4809.76270      -1.62648129    
   4.67581606     -0.930077016     -0.246999994       4809.76270      -1.62648129    
   4.76741982       0.00000000     -0.246999994       4809.76270      -1.62648129    
   5.48999977       0.00000000     -0.157000005       4809.76270      -1.62648129    
   5.07209921      -2.10093188     -0.157000005       4619.91357      -1.62582076    
   4.40452194      -1.82441294     -0.246999994       4619.91357      -1.62582076    
   4.67581606     -0.930077016     -0.246999994       4619.91357      -1.62582076    
   5.38451099      -1.07104599     -0.157000005       4619.91357      -1.62582076    
   4.56476784      -3.05008101     -0.157000005       4258.69629      -1.62649035    
   3.96396494      -2.64863706     -0.246999994       4258.69629      -1.62649035    
   4.40452194      -1.82441294     -0.246999994       4258.69629      -1.62649035    
   5.07209921      -2.10093188     -0.157000005       4258.69629      -1.62649035    
   3.88201594      -3.88201594     -0.157000005       3739.06250      -1.62755692    
   3.37107491      -3.37107491     -0.246999994       3739.06250      -1.62755692    
   3.96396494      -2.64863706     -0.246999994       3739.06250      -1.62755692    
   4.56476784      -3.05008101     -0.157000005       3739.06250      -1.62755692    
   3.05008101      -4.56476784     -0.157000005       3108.67383      -1.62404668    
   2.64863706      -3.96396494     -0.246999994       3108.67383      -1.62404668    
   3.37107491      -3.37107491     -0.246999994       3108.67383      -1.62404668    
   3.88201594      -3.88201594     -0.157000005       3108.67383      -1.62404668    
   2.10093188      -5.07209921     -0.157000005       2282.45239      -1.62629473    
   1.82441294      -4.40452194     -0.246999994       2282.45239      -1.62629473    
   2.64863706      -3.96396494     -0.246999994       2282.45239      -1.62629473    
   3.05008101      -4.56476784     -0.157000005       2282.45239      -1.62629473    
   1.07104599      -5.38451099     -0.157000005       1402.74890      -1.62567604    
  0.930077016      -4.67581606     -0.246999994       1402.74890      -1.62567604    
   1.82441294      -4.40452194     -0.246999994       1402.74890      -1.62567604    
   2.10093188      -5.07209921     -0.157000005       1402.74890      -1.62567604    
   0.00000000      -1.87709999     -0.606999993       358.597900      -1.57639062    
   0.00000000      -1.36500001     -0.606999993       358.597900      -1.57639062    
  0.266297996      -1.33877206     -0.606999993       358.597900      -1.57639062    
  0.366203994      -1.84103203     -0.606999993       358.597900      -1.57639062    
   0.00000000      -1.87709999     -0.606999993       287.325378       1.56464338    
   0.00000000      -2.59967995     -0.517000020       287.325378       1.56464338    
 -0.507171988      -2.54972792     -0.517000020       287.325378       1.56464338    
 -0.366203994      -1.84103203     -0.606999993       287.325378       1.56464338    
 -0.366203994      -1.84103203     -0.606999993       361.354370       1.56581962    
 -0.266297996      -1.33877206     -0.606999993       361.354370       1.56581962    
   0.00000000      -1.36500001     -0.606999993       361.354370       1.56581962    
   0.00000000      -1.87709999     -0.606999993       361.354370       1.56581962    
 -0.366203994      -1.84103203     -0.606999993       849.816284       1.56464839    
 -0.507171988      -2.54972792     -0.517000020       849.816284       1.56464839    
 -0.994853973      -2.40179110     -0.517000020       849.816284       1.56464839    
 -0.718334973      -1.73421395     -0.606999993       849.816284       1.56464839    
 -0.718334973      -1.73421395     -0.606999993       1067.00415       1.56564319    
 -0.522363007      -1.26109600     -0.606999993       1067.00415       1.56564319    
 -0.266297996      -1.33877206     -0.606999993       1067.00415       1.56564319    
 -0.366203994      -1.84103203     -0.606999993       1067.00415       1.56564319    
 -0.718334973      -1.73421395     -0.606999993       1377.13525       1.56476712    
 -0.994853973      -2.40179110     -0.517000020       1377.13525       1.56476712    
  -1.44430494      -2.16155505     -0.517000020       1377.13525       1.56476712    
  -1.04286098      -1.56075203     -0.606999993       1377.13525       1.56476712    
  -1.04286098      -1.56075203     -0.606999993       1731.74365       1.56566834    
 -0.758352995      -1.13495600     -0.606999993       1731.74365       1.56566834    
 -0.522363007      -1.26109600     -0.606999993       1731.74365       1.56566834    
 -0.718334973      -1.73421395     -0.606999993       1731.74365       1.56566834    
  -1.04286098      -1.56075203     -0.606999993       1854.17163       1.56485844    
  -1.44430494      -2.16155505     -0.517000020       1854.17163       1.56485844    
  -1.83825099      -1.83825099     -0.517000020       1854.17163       1.56485844    
  -1.32730997      -1.32730997     -0.606999993       1854.17163       1.56485844    
  -1.32730997      -1.32730997     -0.606999993       2331.45288       1.56569672    
 -0.965201020     -0.965201020     -0.606999993       2331.45288       1.56569672    
 -0.758352995      -1.13495600     -0.606999993       2331.45288       1.56569672    
  -1.04286098      -1.56075203     -0.606999993       2331.45288       1.56569672    
  -1.32730997      -1.32730997     -0.606999993       2265.79346       1.56489861    
  -1.83825099      -1.83825099     -0.517000020       2265.79346       1.56489861    
  -2.16155505      -1.44430494     -0.517000020       2265.79346       1.56489861    
  -1.56075203      -1.04286098     -0.606999993       2265.79346       1.56489861    
  -1.56075203      -1.04286098     -0.606999993       2843.82056       1.56570971    
  -1.13495600     -0.758352995     -0.606999993       2843.82056       1.56570971    
 -0.965201020     -0.965201020     -0.606999993       2843.82056       1.56570971    
  -1.32730997      -1.32730997     -0.606999993       2843.82056       1.56570971    
  -1.56075203      -1.04286098     -0.606999993       2590.96167       1.56488073    
  -2.16155505      -1.44430494     -0.517000020       2590.96167       1.56488073    
  -2.40179110     -0.994853973     -0.517000020       2590.96167       1.56488073    
  -1.73421395     -0.718334973     -0.606999993       2590.96167       1.56488073    
  -1.73421395     -0.718334973     -0.606999993       3246.81567       1.56570113    
  -1.26109600     -0.522363007     -0.606999993       3246.81567       1.56570113    
  -1.13495600     -0.758352995     -0.606999993       3246.81567       1.56570113    
  -1.56075203      -1.04286098     -0.606999993       3246.81567       1.56570113    
  -1.73421395     -0.718334973     -0.606999993       2810.11353       1.56482744    
  -2.40179110     -0.994853973     -0.517000020       2810.11353       1.56482744    
  -2.54972792     -0.507171988     -0.517000020       2810.11353       1.56482744    
  -1.84103203     -0.366203994     -0.606999993       2810.11353       1.56482744    
  -1.84103203     -0.366203994     -0.606999993       3521.72021       1.56565952    
  -1.33877206     -0.266297996     -0.606999993       3521.72021       1.56565952    
  -1.26109600     -0.522363007     -0.606999993       3521.72021       1.56565952    
  -1.73421395     -0.718334973     -0.606999993       3521.72021       1.56565952    
  -1.84103203     -0.366203994     -0.606999993       2917.25903       1.56479084    
  -2.54972792     -0.507171988     -0.517000020       2917.25903       1.56479084    
  -2.59967995       0.00000000     -0.517000020       2917.25903       1.56479084    
  -1.87709999       0.00000000     -0.606999993       2917.25903       1.56479084    
  -1.87709999       0.00000000     -0.606999993       3658.70190       1.56563437    
  -1.36500001       0.00000000     -0.606999993       3658.70190       1.56563437    
  -1.33877206     -0.266297996     -0.606999993       3658.70190       1.56563437    
  -1.84103203     -0.366203994     -0.606999993       3658.70190       1.56563437    
  -1.87709999       0.00000000     -0.606999993       2916.10645       1.56476641    
  -2.59967995       0.00000000     -0.517000020       2916.10645       1.56476641    
  -2.54972792      0.507171988     -0.517000020       2916.10645       1.56476641    
  -1.84103203      0.366203994     -0.606999993       2916.10645       1.56476641    
  -1.84103203      0.366203994     -0.606999993       3655.87549       1.56561804    
  -1.33877206      0.266297996     -0.606999993       3655.87549       1.56561804    
  -1.36500001       0.00000000     -0.606999993       3655.87549       1.56561804    
  -1.87709999       0.00000000     -0.606999993       3655.87549       1.56561804    
  -1.84103203      0.366203994     -0.606999993       2808.19824       1.56477892    
  -2.54972792      0.507171988     -0.517000020       2808.19824       1.56477892    
  -2.40179110      0.994853973     -0.517000020       2808.19824       1.56477892    
  -1.73421395      0.718334973     -0.606999993       2808.19824       1.56477892    
  -1.73421395      0.718334973     -0.606999993       3514.43481       1.56561041    
  -1.26109600      0.522363007     -0.606999993       3514.43481       1.56561041    
  -1.33877206      0.266297996     -0.606999993       3514.43481       1.56561041    
  -1.84103203      0.366203994     -0.606999993       3514.43481       1.56561041    
  -1.73421395      0.718334973     -0.606999993       2590.76855       1.56481469    
  -2.40179110      0.994853973     -0.517000020       2590.76855       1.56481469    
  -2.16155505       1.44430494     -0.517000020       2590.76855       1.56481469    
  -1.56075203       1.04286098     -0.606999993       2590.76855       1.56481469    
  -1.56075203       1.04286098     -0.606999993       3237.58374       1.56562078    
  -1.13495600      0.758352995     -0.606999993       3237.58374       1.56562078    
  -1.26109600      0.522363007     -0.606999993       3237.58374       1.56562078    
  -1.73421395      0.718334973     -0.606999993       3237.58374       1.56562078    
  -1.56075203       1.04286098     -0.606999993       2267.23657       1.56483674    
  -2.16155505       1.44430494     -0.517000020       2267.23657       1.56483674    
  -1.83825099       1.83825099     -0.517000020       2267.23657       1.56483674    
  -1.32730997       1.32730997     -0.606999993       2267.23657       1.56483674    
  -1.32730997       1.32730997     -0.606999993       2834.43555       1.56561661    
 -0.965201020      0.965201020     -0.606999993       2834.43555       1.56561661    
  -1.13495600      0.758352995     -0.606999993       2834.43555       1.56561661    
  -1.56075203       1.04286098     -0.606999993       2834.43555       1.56561661    
  -1.32730997       1.32730997     -0.606999993       1855.28137       1.56481981    
  -1.83825099       1.83825099     -0.517000020       1855.28137       1.56481981    
  -1.44430494       2.16155505     -0.517000020       1855.28137       1.56481981    
  -1.04286098       1.56075203     -0.606999993       1855.28137       1.56481981    
  -1.04286098       1.56075203     -0.606999993       2322.51587       1.56560075    
 -0.758352995       1.13495600     -0.606999993       2322.51587       1.56560075    
 -0.965201020      0.965201020     -0.606999993       2322.51587       1.56560075    
  -1.32730997       1.32730997     -0.606999993       2322.51587       1.56560075    
  -1.04286098       1.56075203     -0.606999993       1377.34387       1.56475043    
  -1.44430494       2.16155505     -0.517000020       1377.34387       1.56475043    
 -0.994853973       2.40179110     -0.517000020       1377.34387       1.56475043    
 -0.718334973       1.73421395     -0.606999993       1377.34387       1.56475043    
 -0.718334973       1.73421395     -0.606999993       1723.94592       1.56556785    
 -0.522363007       1.26109600     -0.606999993       1723.94592       1.56556785    
 -0.758352995       1.13495600     -0.606999993       1723.94592       1.56556785    
  -1.04286098       1.56075203     -0.606999993       1723.94592       1.56556785    
 -0.718334973       1.73421395     -0.606999993       850.094910       1.56466269    
 -0.994853973       2.40179110     -0.517000020       850.094910       1.56466269    
 -0.507171988       2.54972792     -0.517000020       850.094910       1.56466269    
 -0.366203994       1.84103203     -0.606999993       850.094910       1.56466269    
 -0.366203994       1.84103203     -0.606999993       1061.70178       1.56554425    
 -0.266297996       1.33877206     -0.606999993       1061.70178       1.56554425    
 -0.522363007       1.26109600     -0.606999993       1061.70178       1.56554425    
 -0.718334973       1.73421395     -0.606999993       1061.70178       1.56554425    
 -0.366203994       1.84103203     -0.606999993       288.711975       1.56470060    
 -0.507171988       2.54972792     -0.517000020       288.711975       1.56470060    
   0.00000000       2.59967995     -0.517000020       288.711975       1.56470060    
   0.00000000       1.87709999     -0.606999993       288.711975       1.56470060    
   0.00000000       1.87709999     -0.606999993       359.122253       1.56558156    
   0.00000000       1.36500001     -0.606999993       359.122253       1.56558156    
 -0.266297996       1.33877206     -0.606999993       359.122253       1.56558156    
 -0.366203994       1.84103203     -0.606999993       359.122253       1.56558156    
   0.00000000       1.87709999     -0.606999993       285.554626      -1.57720363    
   0.00000000       2.59967995     -0.517000020       285.554626      -1.57720363    
  0.507171988       2.54972792     -0.517000020       285.554626      -1.57720363    
  0.366203994       1.84103203     -0.606999993       285.554626      -1.57720363    
  0.366203994       1.84103203     -0.606999993       357.460815      -1.57626927    
  0.266297996       1.33877206     -0.606999993       357.460815      -1.57626927    
   0.00000000       1.36500001     -0.606999993       357.460815      -1.57626927    
   0.00000000       1.87709999     -0.606999993       357.460815      -1.57626927    
  0.366203994       1.84103203     -0.606999993       847.238159      -1.57702613    
  0.507171988       2.54972792     -0.517000020       847.238159      -1.57702613    
  0.994853973       2.40179110     -0.517000020       847.238159      -1.57702613    
  0.718334973       1.73421395     -0.606999993       847.238159      -1.57702613    
  0.718334973       1.73421395     -0.606999993       1060.36292      -1.57615364    
  0.522363007       1.26109600     -0.606999993       1060.36292      -1.57615364    
  0.266297996       1.33877206     -0.606999993       1060.36292      -1.57615364    
  0.366203994       1.84103203     -0.606999993       1060.36292      -1.57615364    
  0.718334973       1.73421395     -0.606999993       1374.97314      -1.57686996    
  0.994853973       2.40179110     -0.517000020       1374.97314      -1.57686996    
   1.44430494       2.16155505     -0.517000020       1374.97314      -1.57686996    
   1.04286098       1.56075203     -0.606999993       1374.97314      -1.57686996    
   1.04286098       1.56075203     -0.606999993       1723.63208      -1.57604575    
  0.758352995       1.13495600     -0.606999993       1723.63208      -1.57604575    
  0.522363007       1.26109600     -0.606999993       1723.63208      -1.57604575    
  0.718334973       1.73421395     -0.606999993       1723.63208      -1.57604575    
   1.04286098       1.56075203     -0.606999993       1853.46545      -1.57676744    
   1.44430494       2.16155505     -0.517000020       1853.46545      -1.57676744    
   1.83825099       1.83825099     -0.517000020       1853.46545      -1.57676744    
   1.32730997       1.32730997     -0.606999993       1853.46545      -1.57676744    
   1.32730997       1.32730997     -0.606999993       2323.19653      -1.57599139    
  0.965201020      0.965201020     -0.606999993       2323.19653      -1.57599139    
  0.758352995       1.13495600     -0.606999993       2323.19653      -1.57599139    
   1.04286098       1.56075203     -0.606999993       2323.19653      -1.57599139    
   1.32730997       1.32730997     -0.606999993       2265.87256      -1.57673812    
   1.83825099       1.83825099     -0.517000020       2265.87256      -1.57673812    
   2.16155505       1.44430494     -0.517000020       2265.87256      -1.57673812    
   1.56075203       1.04286098     -0.606999993       2265.87256      -1.57673812    
   1.56075203       1.04286098     -0.606999993       2835.92334      -1.57596576    
   1.13495600      0.758352995     -0.606999993       2835.92334      -1.57596576    
  0.965201020      0.965201020     -0.606999993       2835.92334      -1.57596576    
   1.32730997       1.32730997     -0.606999993       2835.92334      -1.57596576    
   1.56075203       1.04286098     -0.606999993       2589.45337      -1.57676339    
   2.16155505       1.44430494     -0.517000020       2589.45337      -1.57676339    
   2.40179110      0.994853973     -0.517000020       2589.45337      -1.57676339    
   1.73421395      0.718334973     -0.606999993       2589.45337      -1.57676339    
   1.73421395      0.718334973     -0.606999993       3238.62305      -1.57596672    
   1.26109600      0.522363007     -0.606999993       3238.62305      -1.57596672    
   1.13495600      0.758352995     -0.606999993       3238.62305      -1.57596672    
   1.56075203       1.04286098     -0.606999993       3238.62305      -1.57596672    
   1.73421395      0.718334973     -0.606999993       2806.62671      -1.57682133    
   2.40179110      0.994853973     -0.517000020       2806.62671      -1.57682133    
   2.54972792      0.507171988     -0.517000020       2806.62671      -1.57682133    
   1.84103203      0.366203994     -0.606999993       2806.62671      -1.57682133    
   1.84103203      0.366203994     -0.606999993       3514.30762      -1.57598484    
   1.33877206      0.266297996     -0.606999993       3514.30762      -1.57598484    
   1.26109600      0.522363007     -0.606999993       3514.30762      -1.57598484    
   1.73421395      0.718334973     -0.606999993       3514.30762      -1.57598484    
   1.84103203      0.366203994     -0.606999993       2914.32690      -1.57683980    
   2.54972792      0.507171988     -0.517000020       2914.32690      -1.57683980    
   2.59967995       0.00000000     -0.517000020       2914.32690      -1.57683980    
   1.87709999       0.00000000     -0.606999993       2914.32690      -1.57683980    
   1.87709999       0.00000000     -0.606999993       3654.54248      -1.57599127    
   1.36500001       0.00000000     -0.606999993       3654.54248      -1.57599127    
   1.33877206      0.266297996     -0.606999993       3654.54248      -1.57599127    
   1.84103203      0.366203994     -0.606999993       3654.54248      -1.57599127    
   1.87709999       0.00000000     -0.606999993       2915.50635      -1.57684338    
   2.59967995       0.00000000     -0.517000020       2915.50635      -1.57684338    
   2.54972792     -0.507171988     -0.517000020       2915.50635      -1.57684338    
   1.84103203     -0.366203994     -0.606999993       2915.50635      -1.57684338    
   1.84103203     -0.366203994     -0.606999993       3656.31250      -1.57599068    
   1.33877206     -0.266297996     -0.606999993       3656.31250      -1.57599068    
   1.36500001       0.00000000     -0.606999993       3656.31250      -1.57599068    
   1.87709999       0.00000000     -0.606999993       3656.31250      -1.57599068    
   1.84103203     -0.366203994     -0.606999993       2808.69385      -1.57682145    
   2.54972792     -0.507171988     -0.517000020       2808.69385      -1.57682145    
   2.40179110     -0.994853973     -0.517000020       2808.69385      -1.57682145    
   1.73421395     -0.718334973     -0.606999993       2808.69385      -1.57682145    
   1.73421395     -0.718334973     -0.606999993       3518.55591      -1.57597113    
   1.26109600     -0.522363007     -0.606999993       3518.55591      -1.57597113    
   1.33877206     -0.266297996     -0.606999993       3518.55591      -1.57597113    
   1.84103203     -0.366203994     -0.606999993       3518.55591      -1.57597113    
   1.73421395     -0.718334973     -0.606999993       2589.95605      -1.57678032    
   2.40179110     -0.994853973     -0.517000020       2589.95605      -1.57678032    
   2.16155505      -1.44430494     -0.517000020       2589.95605      -1.57678032    
   1.56075203      -1.04286098     -0.606999993       2589.95605      -1.57678032    
   1.56075203      -1.04286098     -0.606999993       3243.38867      -1.57595444    
   1.13495600     -0.758352995     -0.606999993       3243.38867      -1.57595444    
   1.26109600     -0.522363007     -0.606999993       3243.38867      -1.57595444    