 VARIABLES="X" "Y" "Z" "abs(p) (Pa)" "angle(p) (rad)"
ZONE N=   2709,E =    2358, F=FEPOINT, ET=QUADRILATERAL
   0.00000000      -5.48999977     -0.157000005       213.799332     -0.981199205    
   0.00000000      -4.76741982     -0.246999994       213.799332     -0.981199205    
  0.930077016      -4.67581606     -0.246999994       213.799332     -0.981199205    
   1.07104599      -5.38451099     -0.157000005       213.799332     -0.981199205    
  -1.07104599      -5.38451099     -0.157000005       213.156921     -0.986819565    
 -0.930077016      -4.67581606     -0.246999994       213.156921     -0.986819565    
   0.00000000      -4.76741982     -0.246999994       213.156921     -0.986819565    
   0.00000000      -5.48999977     -0.157000005       213.156921     -0.986819565    
  -2.10093188      -5.07209921     -0.157000005       209.200485      -1.02070487    
  -1.82441294      -4.40452194     -0.246999994       209.200485      -1.02070487    
 -0.930077016      -4.67581606     -0.246999994       209.200485      -1.02070487    
  -1.07104599      -5.38451099     -0.157000005       209.200485      -1.02070487    
  -3.05008101      -4.56476784     -0.157000005       184.848022     -0.958476603    
  -2.64863706      -3.96396494     -0.246999994       184.848022     -0.958476603    
  -1.82441294      -4.40452194     -0.246999994       184.848022     -0.958476603    
  -2.10093188      -5.07209921     -0.157000005       184.848022     -0.958476603    
  -3.88201594      -3.88201594     -0.157000005       169.667404     -0.965864956    
  -3.37107491      -3.37107491     -0.246999994       169.667404     -0.965864956    
  -2.64863706      -3.96396494     -0.246999994       169.667404     -0.965864956    
  -3.05008101      -4.56476784     -0.157000005       169.667404     -0.965864956    
  -4.56476784      -3.05008101     -0.157000005       151.514725      -1.03075087    
  -3.96396494      -2.64863706     -0.246999994       151.514725      -1.03075087    
  -3.37107491      -3.37107491     -0.246999994       151.514725      -1.03075087    
  -3.88201594      -3.88201594     -0.157000005       151.514725      -1.03075087    
  -5.07209921      -2.10093188     -0.157000005       107.059143     -0.984205365    
  -4.40452194      -1.82441294     -0.246999994       107.059143     -0.984205365    
  -3.96396494      -2.64863706     -0.246999994       107.059143     -0.984205365    
  -4.56476784      -3.05008101     -0.157000005       107.059143     -0.984205365    
  -5.38451099      -1.07104599     -0.157000005       59.3644333     -0.935671866    
  -4.67581606     -0.930077016     -0.246999994       59.3644333     -0.935671866    
  -4.40452194      -1.82441294     -0.246999994       59.3644333     -0.935671866    
  -5.07209921      -2.10093188     -0.157000005       59.3644333     -0.935671866    
  -5.48999977       0.00000000     -0.157000005       17.9943829     -0.917443752    
  -4.76741982       0.00000000     -0.246999994       17.9943829     -0.917443752    
  -4.67581606     -0.930077016     -0.246999994       17.9943829     -0.917443752    
  -5.38451099      -1.07104599     -0.157000005       17.9943829     -0.917443752    
  -5.38451099       1.07104599     -0.157000005       19.2020836       2.14030862    
  -4.67581606      0.930077016     -0.246999994       19.2020836       2.14030862    
  -4.76741982       0.00000000     -0.246999994       19.2020836       2.14030862    
  -5.48999977       0.00000000     -0.157000005       19.2020836       2.14030862    
  -5.07209921       2.10093188     -0.157000005       59.0085297       2.12595272    
  -4.40452194       1.82441294     -0.246999994       59.0085297       2.12595272    
  -4.67581606      0.930077016     -0.246999994       59.0085297       2.12595272    
  -5.38451099       1.07104599     -0.157000005       59.0085297       2.12595272    
  -4.56476784       3.05008101     -0.157000005       105.112000       2.10067964    
  -3.96396494       2.64863706     -0.246999994       105.112000       2.10067964    
  -4.40452194       1.82441294     -0.246999994       105.112000       2.10067964    
  -5.07209921       2.10093188     -0.157000005       105.112000       2.10067964    
  -3.88201594       3.88201594     -0.157000005       143.998688       2.13863349    
  -3.37107491       3.37107491     -0.246999994       143.998688       2.13863349    
  -3.96396494       2.64863706     -0.246999994       143.998688       2.13863349    
  -4.56476784       3.05008101     -0.157000005       143.998688       2.13863349    
  -3.05008101       4.56476784     -0.157000005       178.899033       2.11824656    
  -2.64863706       3.96396494     -0.246999994       178.899033       2.11824656    
  -3.37107491       3.37107491     -0.246999994       178.899033       2.11824656    
  -3.88201594       3.88201594     -0.157000005       178.899033       2.11824656    
  -2.10093188       5.07209921     -0.157000005       189.747665       2.17975760    
  -1.82441294       4.40452194     -0.246999994       189.747665       2.17975760    
  -2.64863706       3.96396494     -0.246999994       189.747665       2.17975760    
  -3.05008101       4.56476784     -0.157000005       189.747665       2.17975760    
  -1.07104599       5.38451099     -0.157000005       211.787262       2.12510443    
 -0.930077016       4.67581606     -0.246999994       211.787262       2.12510443    
  -1.82441294       4.40452194     -0.246999994       211.787262       2.12510443    
  -2.10093188       5.07209921     -0.157000005       211.787262       2.12510443    
   0.00000000       5.48999977     -0.157000005       215.153214       2.14625216    
   0.00000000       4.76741982     -0.246999994       215.153214       2.14625216    
 -0.930077016       4.67581606     -0.246999994       215.153214       2.14625216    
  -1.07104599       5.38451099     -0.157000005       215.153214       2.14625216    
   1.07104599       5.38451099     -0.157000005       221.368835       2.10746336    
  0.930077016       4.67581606     -0.246999994       221.368835       2.10746336    
   0.00000000       4.76741982     -0.246999994       221.368835       2.10746336    
   0.00000000       5.48999977     -0.157000005       221.368835       2.10746336    
   2.10093188       5.07209921     -0.157000005       204.227661       2.16540694    
   1.82441294       4.40452194     -0.246999994       204.227661       2.16540694    
  0.930077016       4.67581606     -0.246999994       204.227661       2.16540694    
   1.07104599       5.38451099     -0.157000005       204.227661       2.16540694    
   3.05008101       4.56476784     -0.157000005       187.913910       2.19045377    
   2.64863706       3.96396494     -0.246999994       187.913910       2.19045377    
   1.82441294       4.40452194     -0.246999994       187.913910       2.19045377    
   2.10093188       5.07209921     -0.157000005       187.913910       2.19045377    
   3.88201594       3.88201594     -0.157000005       178.331787       2.13070893    
   3.37107491       3.37107491     -0.246999994       178.331787       2.13070893    
   2.64863706       3.96396494     -0.246999994       178.331787       2.13070893    
   3.05008101       4.56476784     -0.157000005       178.331787       2.13070893    
   4.56476784       3.05008101     -0.157000005       147.689362       2.13068962    
   3.96396494       2.64863706     -0.246999994       147.689362       2.13068962    
   3.37107491       3.37107491     -0.246999994       147.689362       2.13068962    
   3.88201594       3.88201594     -0.157000005       147.689362       2.13068962    
   5.07209921       2.10093188     -0.157000005       105.849579       2.12250853    
   4.40452194       1.82441294     -0.246999994       105.849579       2.12250853    
   3.96396494       2.64863706     -0.246999994       105.849579       2.12250853    
   4.56476784       3.05008101     -0.157000005       105.849579       2.12250853    
   5.38451099       1.07104599     -0.157000005       56.2159576       2.20439887    
   4.67581606      0.930077016     -0.246999994       56.2159576       2.20439887    
   4.40452194       1.82441294     -0.246999994       56.2159576       2.20439887    
   5.07209921       2.10093188     -0.157000005       56.2159576       2.20439887    
   5.48999977       0.00000000     -0.157000005       15.9091120       2.22720194    
   4.76741982       0.00000000     -0.246999994       15.9091120       2.22720194    
   4.67581606      0.930077016     -0.246999994       15.9091120       2.22720194    
   5.38451099       1.07104599     -0.157000005       15.9091120       2.22720194    
   5.38451099      -1.07104599     -0.157000005       20.2474003     -0.873210490    
   4.67581606     -0.930077016     -0.246999994       20.2474003     -0.873210490    
   4.76741982       0.00000000     -0.246999994       20.2474003     -0.873210490    
   5.48999977       0.00000000     -0.157000005       20.2474003     -0.873210490    
   5.07209921      -2.10093188     -0.157000005       60.4870415     -0.943514585    
   4.40452194      -1.82441294     -0.246999994       60.4870415     -0.943514585    
   4.67581606     -0.930077016     -0.246999994       60.4870415     -0.943514585    
   5.38451099      -1.07104599     -0.157000005       60.4870415     -0.943514585    
   4.56476784      -3.05008101     -0.157000005       105.155029     -0.988208950    
   3.96396494      -2.64863706     -0.246999994       105.155029     -0.988208950    
   4.40452194      -1.82441294     -0.246999994       105.155029     -0.988208950    
   5.07209921      -2.10093188     -0.157000005       105.155029     -0.988208950    
   3.88201594      -3.88201594     -0.157000005       144.210602     -0.997423887    
   3.37107491      -3.37107491     -0.246999994       144.210602     -0.997423887    
   3.96396494      -2.64863706     -0.246999994       144.210602     -0.997423887    
   4.56476784      -3.05008101     -0.157000005       144.210602     -0.997423887    
   3.05008101      -4.56476784     -0.157000005       174.307922      -1.01593053    
   2.64863706      -3.96396494     -0.246999994       174.307922      -1.01593053    
   3.37107491      -3.37107491     -0.246999994       174.307922      -1.01593053    
   3.88201594      -3.88201594     -0.157000005       174.307922      -1.01593053    
   2.10093188      -5.07209921     -0.157000005       185.738602     -0.955213249    
   1.82441294      -4.40452194     -0.246999994       185.738602     -0.955213249    
   2.64863706      -3.96396494     -0.246999994       185.738602     -0.955213249    
   3.05008101      -4.56476784     -0.157000005       185.738602     -0.955213249    
   1.07104599      -5.38451099     -0.157000005       204.042618     -0.968780041    
  0.930077016      -4.67581606     -0.246999994       204.042618     -0.968780041    
   1.82441294      -4.40452194     -0.246999994       204.042618     -0.968780041    
   2.10093188      -5.07209921     -0.157000005       204.042618     -0.968780041    
   0.00000000      -1.87709999     -0.606999993       11736.8594      -1.56845760    
   0.00000000      -1.36500001     -0.606999993       11736.8594      -1.56845760    
  0.266297996      -1.33877206     -0.606999993       11736.8594      -1.56845760    
  0.366203994      -1.84103203     -0.606999993       11736.8594      -1.56845760    
   0.00000000      -1.87709999     -0.606999993       5296.83691      -1.56698430    
   0.00000000      -2.59967995     -0.517000020       5296.83691      -1.56698430    
 -0.507171988      -2.54972792     -0.517000020       5296.83691      -1.56698430    
 -0.366203994      -1.84103203     -0.606999993       5296.83691      -1.56698430    
 -0.366203994      -1.84103203     -0.606999993       11763.3340      -1.56843781    
 -0.266297996      -1.33877206     -0.606999993       11763.3340      -1.56843781    
   0.00000000      -1.36500001     -0.606999993       11763.3340      -1.56843781    
   0.00000000      -1.87709999     -0.606999993       11763.3340      -1.56843781    
 -0.366203994      -1.84103203     -0.606999993       5178.24121      -1.56703210    
 -0.507171988      -2.54972792     -0.517000020       5178.24121      -1.56703210    
 -0.994853973      -2.40179110     -0.517000020       5178.24121      -1.56703210    
 -0.718334973      -1.73421395     -0.606999993       5178.24121      -1.56703210    
 -0.718334973      -1.73421395     -0.606999993       11387.5508      -1.56843543    
 -0.522363007      -1.26109600     -0.606999993       11387.5508      -1.56843543    
 -0.266297996      -1.33877206     -0.606999993       11387.5508      -1.56843543    
 -0.366203994      -1.84103203     -0.606999993       11387.5508      -1.56843543    
 -0.718334973      -1.73421395     -0.606999993       4886.13574      -1.56709337    
 -0.994853973      -2.40179110     -0.517000020       4886.13574      -1.56709337    
  -1.44430494      -2.16155505     -0.517000020       4886.13574      -1.56709337    
  -1.04286098      -1.56075203     -0.606999993       4886.13574      -1.56709337    
  -1.04286098      -1.56075203     -0.606999993       10582.6953      -1.56843960    
 -0.758352995      -1.13495600     -0.606999993       10582.6953      -1.56843960    
 -0.522363007      -1.26109600     -0.606999993       10582.6953      -1.56843960    
 -0.718334973      -1.73421395     -0.606999993       10582.6953      -1.56843960    
  -1.04286098      -1.56075203     -0.606999993       4363.86572      -1.56711769    
  -1.44430494      -2.16155505     -0.517000020       4363.86572      -1.56711769    
  -1.83825099      -1.83825099     -0.517000020       4363.86572      -1.56711769    
  -1.32730997      -1.32730997     -0.606999993       4363.86572      -1.56711769    
  -1.32730997      -1.32730997     -0.606999993       9330.91211      -1.56844401    
 -0.965201020     -0.965201020     -0.606999993       9330.91211      -1.56844401    
 -0.758352995      -1.13495600     -0.606999993       9330.91211      -1.56844401    
  -1.04286098      -1.56075203     -0.606999993       9330.91211      -1.56844401    
  -1.32730997      -1.32730997     -0.606999993       3583.24829      -1.56707752    
  -1.83825099      -1.83825099     -0.517000020       3583.24829      -1.56707752    
  -2.16155505      -1.44430494     -0.517000020       3583.24829      -1.56707752    
  -1.56075203      -1.04286098     -0.606999993       3583.24829      -1.56707752    
  -1.56075203      -1.04286098     -0.606999993       7653.96045      -1.56843901    
  -1.13495600     -0.758352995     -0.606999993       7653.96045      -1.56843901    
 -0.965201020     -0.965201020     -0.606999993       7653.96045      -1.56843901    
  -1.32730997      -1.32730997     -0.606999993       7653.96045      -1.56843901    
  -1.56075203      -1.04286098     -0.606999993       2589.69507      -1.56696677    
  -2.16155505      -1.44430494     -0.517000020       2589.69507      -1.56696677    
  -2.40179110     -0.994853973     -0.517000020       2589.69507      -1.56696677    
  -1.73421395     -0.718334973     -0.606999993       2589.69507      -1.56696677    
  -1.73421395     -0.718334973     -0.606999993       5639.33398      -1.56843162    
  -1.26109600     -0.522363007     -0.606999993       5639.33398      -1.56843162    
  -1.13495600     -0.758352995     -0.606999993       5639.33398      -1.56843162    
  -1.56075203      -1.04286098     -0.606999993       5639.33398      -1.56843162    
  -1.73421395     -0.718334973     -0.606999993       1518.54688      -1.56681180    
  -2.40179110     -0.994853973     -0.517000020       1518.54688      -1.56681180    
  -2.54972792     -0.507171988     -0.517000020       1518.54688      -1.56681180    
  -1.84103203     -0.366203994     -0.606999993       1518.54688      -1.56681180    
  -1.84103203     -0.366203994     -0.606999993       3422.12939      -1.56844330    
  -1.33877206     -0.266297996     -0.606999993       3422.12939      -1.56844330    
  -1.26109600     -0.522363007     -0.606999993       3422.12939      -1.56844330    
  -1.73421395     -0.718334973     -0.606999993       3422.12939      -1.56844330    
  -1.84103203     -0.366203994     -0.606999993       484.822083      -1.56653583    
  -2.54972792     -0.507171988     -0.517000020       484.822083      -1.56653583    
  -2.59967995       0.00000000     -0.517000020       484.822083      -1.56653583    
  -1.87709999       0.00000000     -0.606999993       484.822083      -1.56653583    
  -1.87709999       0.00000000     -0.606999993       1126.08264      -1.56857002    
  -1.36500001       0.00000000     -0.606999993       1126.08264      -1.56857002    
  -1.33877206     -0.266297996     -0.606999993       1126.08264      -1.56857002    
  -1.84103203     -0.366203994     -0.606999993       1126.08264      -1.56857002    
  -1.87709999       0.00000000     -0.606999993       492.313629       1.57458067    
  -2.59967995       0.00000000     -0.517000020       492.313629       1.57458067    
  -2.54972792      0.507171988     -0.517000020       492.313629       1.57458067    
  -1.84103203      0.366203994     -0.606999993       492.313629       1.57458067    
  -1.84103203      0.366203994     -0.606999993       1167.35876       1.57338965    
  -1.33877206      0.266297996     -0.606999993       1167.35876       1.57338965    
  -1.36500001       0.00000000     -0.606999993       1167.35876       1.57338965    
  -1.87709999       0.00000000     -0.606999993       1167.35876       1.57338965    
  -1.84103203      0.366203994     -0.606999993       1479.29199       1.57466769    
  -2.54972792      0.507171988     -0.517000020       1479.29199       1.57466769    
  -2.40179110      0.994853973     -0.517000020       1479.29199       1.57466769    
  -1.73421395      0.718334973     -0.606999993       1479.29199       1.57466769    
  -1.73421395      0.718334973     -0.606999993       3417.22949       1.57324314    
  -1.26109600      0.522363007     -0.606999993       3417.22949       1.57324314    
  -1.33877206      0.266297996     -0.606999993       3417.22949       1.57324314    
  -1.84103203      0.366203994     -0.606999993       3417.22949       1.57324314    
  -1.73421395      0.718334973     -0.606999993       2496.61499       1.57457805    
  -2.40179110      0.994853973     -0.517000020       2496.61499       1.57457805    
  -2.16155505       1.44430494     -0.517000020       2496.61499       1.57457805    
  -1.56075203       1.04286098     -0.606999993       2496.61499       1.57457805    
  -1.56075203       1.04286098     -0.606999993       5565.02637       1.57318223    
  -1.13495600      0.758352995     -0.606999993       5565.02637       1.57318223    
  -1.26109600      0.522363007     -0.606999993       5565.02637       1.57318223    
  -1.73421395      0.718334973     -0.606999993       5565.02637       1.57318223    
  -1.56075203       1.04286098     -0.606999993       3464.54590       1.57447076    
  -2.16155505       1.44430494     -0.517000020       3464.54590       1.57447076    
  -1.83825099       1.83825099     -0.517000020       3464.54590       1.57447076    
  -1.32730997       1.32730997     -0.606999993       3464.54590       1.57447076    
  -1.32730997       1.32730997     -0.606999993       7512.64404       1.57313371    
 -0.965201020      0.965201020     -0.606999993       7512.64404       1.57313371    
  -1.13495600      0.758352995     -0.606999993       7512.64404       1.57313371    
  -1.56075203       1.04286098     -0.606999993       7512.64404       1.57313371    
  -1.32730997       1.32730997     -0.606999993       4247.86963       1.57441795    
  -1.83825099       1.83825099     -0.517000020       4247.86963       1.57441795    
  -1.44430494       2.16155505     -0.517000020       4247.86963       1.57441795    
  -1.04286098       1.56075203     -0.606999993       4247.86963       1.57441795    
  -1.04286098       1.56075203     -0.606999993       9139.12402       1.57309711    
 -0.758352995       1.13495600     -0.606999993       9139.12402       1.57309711    
 -0.965201020      0.965201020     -0.606999993       9139.12402       1.57309711    
  -1.32730997       1.32730997     -0.606999993       9139.12402       1.57309711    
  -1.04286098       1.56075203     -0.606999993       4778.73096       1.57442808    
  -1.44430494       2.16155505     -0.517000020       4778.73096       1.57442808    
 -0.994853973       2.40179110     -0.517000020       4778.73096       1.57442808    
 -0.718334973       1.73421395     -0.606999993       4778.73096       1.57442808    
 -0.718334973       1.73421395     -0.606999993       10358.1133       1.57307577    
 -0.522363007       1.26109600     -0.606999993       10358.1133       1.57307577    
 -0.758352995       1.13495600     -0.606999993       10358.1133       1.57307577    
  -1.04286098       1.56075203     -0.606999993       10358.1133       1.57307577    
 -0.718334973       1.73421395     -0.606999993       5074.98389       1.57448781    
 -0.994853973       2.40179110     -0.517000020       5074.98389       1.57448781    
 -0.507171988       2.54972792     -0.517000020       5074.98389       1.57448781    
 -0.366203994       1.84103203     -0.606999993       5074.98389       1.57448781    
 -0.366203994       1.84103203     -0.606999993       11143.3047       1.57306862    
 -0.266297996       1.33877206     -0.606999993       11143.3047       1.57306862    
 -0.522363007       1.26109600     -0.606999993       11143.3047       1.57306862    
 -0.718334973       1.73421395     -0.606999993       11143.3047       1.57306862    
 -0.366203994       1.84103203     -0.606999993       5196.60254       1.57454431    
 -0.507171988       2.54972792     -0.517000020       5196.60254       1.57454431    
   0.00000000       2.59967995     -0.517000020       5196.60254       1.57454431    
   0.00000000       1.87709999     -0.606999993       5196.60254       1.57454431    
   0.00000000       1.87709999     -0.606999993       11514.8359       1.57306397    
   0.00000000       1.36500001     -0.606999993       11514.8359       1.57306397    
 -0.266297996       1.33877206     -0.606999993       11514.8359       1.57306397    
 -0.366203994       1.84103203     -0.606999993       11514.8359       1.57306397    
   0.00000000       1.87709999     -0.606999993       5190.28906       1.57454383    
   0.00000000       2.59967995     -0.517000020       5190.28906       1.57454383    
  0.507171988       2.54972792     -0.517000020       5190.28906       1.57454383    
  0.366203994       1.84103203     -0.606999993       5190.28906       1.57454383    
  0.366203994       1.84103203     -0.606999993       11497.6230       1.57305419    
  0.266297996       1.33877206     -0.606999993       11497.6230       1.57305419    
   0.00000000       1.36500001     -0.606999993       11497.6230       1.57305419    
   0.00000000       1.87709999     -0.606999993       11497.6230       1.57305419    
  0.366203994       1.84103203     -0.606999993       5057.51807       1.57449257    
  0.507171988       2.54972792     -0.517000020       5057.51807       1.57449257    
  0.994853973       2.40179110     -0.517000020       5057.51807       1.57449257    
  0.718334973       1.73421395     -0.606999993       5057.51807       1.57449257    
  0.718334973       1.73421395     -0.606999993       11095.1582       1.57304084    
  0.522363007       1.26109600     -0.606999993       11095.1582       1.57304084    
  0.266297996       1.33877206     -0.606999993       11095.1582       1.57304084    
  0.366203994       1.84103203     -0.606999993       11095.1582       1.57304084    
  0.718334973       1.73421395     -0.606999993       4753.89600       1.57443905    
  0.994853973       2.40179110     -0.517000020       4753.89600       1.57443905    
   1.44430494       2.16155505     -0.517000020       4753.89600       1.57443905    
   1.04286098       1.56075203     -0.606999993       4753.89600       1.57443905    
   1.04286098       1.56075203     -0.606999993       10287.8896       1.57303238    
  0.758352995       1.13495600     -0.606999993       10287.8896       1.57303238    
  0.522363007       1.26109600     -0.606999993       10287.8896       1.57303238    
  0.718334973       1.73421395     -0.606999993       10287.8896       1.57303238    
   1.04286098       1.56075203     -0.606999993       4221.59668       1.57443726    
   1.44430494       2.16155505     -0.517000020       4221.59668       1.57443726    
   1.83825099       1.83825099     -0.517000020       4221.59668       1.57443726    
   1.32730997       1.32730997     -0.606999993       4221.59668       1.57443726    
   1.32730997       1.32730997     -0.606999993       9058.85059       1.57304323    
  0.965201020      0.965201020     -0.606999993       9058.85059       1.57304323    
  0.758352995       1.13495600     -0.606999993       9058.85059       1.57304323    
   1.04286098       1.56075203     -0.606999993       9058.85059       1.57304323    
   1.32730997       1.32730997     -0.606999993       3443.05200       1.57451534    
   1.83825099       1.83825099     -0.517000020       3443.05200       1.57451534    
   2.16155505       1.44430494     -0.517000020       3443.05200       1.57451534    
   1.56075203       1.04286098     -0.606999993       3443.05200       1.57451534    
   1.56075203       1.04286098     -0.606999993       7437.70020       1.57307792    
   1.13495600      0.758352995     -0.606999993       7437.70020       1.57307792    
  0.965201020      0.965201020     -0.606999993       7437.70020       1.57307792    
   1.32730997       1.32730997     -0.606999993       7437.70020       1.57307792    
   1.56075203       1.04286098     -0.606999993       2485.21265       1.57467365    
   2.16155505       1.44430494     -0.517000020       2485.21265       1.57467365    
   2.40179110      0.994853973     -0.517000020       2485.21265       1.57467365    
   1.73421395      0.718334973     -0.606999993       2485.21265       1.57467365    
   1.73421395      0.718334973     -0.606999993       5508.01904       1.57314324    
   1.26109600      0.522363007     -0.606999993       5508.01904       1.57314324    
   1.13495600      0.758352995     -0.606999993       5508.01904       1.57314324    
   1.56075203       1.04286098     -0.606999993       5508.01904       1.57314324    
   1.73421395      0.718334973     -0.606999993       1482.49670       1.57489288    
   2.40179110      0.994853973     -0.517000020       1482.49670       1.57489288    
   2.54972792      0.507171988     -0.517000020       1482.49670       1.57489288    
   1.84103203      0.366203994     -0.606999993       1482.49670       1.57489288    
   1.84103203      0.366203994     -0.606999993       3390.31689       1.57326448    
   1.33877206      0.266297996     -0.606999993       3390.31689       1.57326448    
   1.26109600      0.522363007     -0.606999993       3390.31689       1.57326448    
   1.73421395      0.718334973     -0.606999993       3390.31689       1.57326448    
   1.84103203      0.366203994     -0.606999993       513.241211       1.57542884    
   2.54972792      0.507171988     -0.517000020       513.241211       1.57542884    
   2.59967995       0.00000000     -0.517000020       513.241211       1.57542884    
   1.87709999       0.00000000     -0.606999993       513.241211       1.57542884    
   1.87709999       0.00000000     -0.606999993       1179.77576       1.57373154    
   1.36500001       0.00000000     -0.606999993       1179.77576       1.57373154    
   1.33877206      0.266297996     -0.606999993       1179.77576       1.57373154    
   1.84103203      0.366203994     -0.606999993       1179.77576       1.57373154    
   1.87709999       0.00000000     -0.606999993       445.185364      -1.56768882    
   2.59967995       0.00000000     -0.517000020       445.185364      -1.56768882    
   2.54972792     -0.507171988     -0.517000020       445.185364      -1.56768882    
   1.84103203     -0.366203994     -0.606999993       445.185364      -1.56768882    
   1.84103203     -0.366203994     -0.606999993       1072.37537      -1.56927860    
   1.33877206     -0.266297996     -0.606999993       1072.37537      -1.56927860    
   1.36500001       0.00000000     -0.606999993       1072.37537      -1.56927860    
   1.87709999       0.00000000     -0.606999993       1072.37537      -1.56927860    
   1.84103203     -0.366203994     -0.606999993       1462.27905      -1.56723428    
   2.54972792     -0.507171988     -0.517000020       1462.27905      -1.56723428    
   2.40179110     -0.994853973     -0.517000020       1462.27905      -1.56723428    
   1.73421395     -0.718334973     -0.606999993       1462.27905      -1.56723428    
   1.73421395     -0.718334973     -0.606999993       3330.42212      -1.56876004    
   1.26109600     -0.522363007     -0.606999993       3330.42212      -1.56876004    
   1.33877206     -0.266297996     -0.606999993       3330.42212      -1.56876004    
   1.84103203     -0.366203994     -0.606999993       3330.42212      -1.56876004    
   1.73421395     -0.718334973     -0.606999993       2521.70630      -1.56724179    
   2.40179110     -0.994853973     -0.517000020       2521.70630      -1.56724179    
   2.16155505      -1.44430494     -0.517000020       2521.70630      -1.56724179    
   1.56075203      -1.04286098     -0.606999993       2521.70630      -1.56724179    
   1.56075203      -1.04286098     -0.606999993       5521.66992      -1.56866241    
   1.13495600     -0.758352995     -0.606999993       5521.66992      -1.56866241    
   1.26109600     -0.522363007     -0.606999993       5521.66992      -1.56866241    