 VARIABLES="X" "Y" "Z" "abs(p) (Pa)" "angle(p) (rad)"
ZONE N=   2709,E =    2358, F=FEPOINT, ET=QUADRILATERAL
   0.00000000      -5.48999977     -0.157000005       435.389404      -1.27071941    
   0.00000000      -4.76741982     -0.246999994       435.389404      -1.27071941    
  0.930077016      -4.67581606     -0.246999994       435.389404      -1.27071941    
   1.07104599      -5.38451099     -0.157000005       435.389404      -1.27071941    
  -1.07104599      -5.38451099     -0.157000005       456.494324       1.88810110    
 -0.930077016      -4.67581606     -0.246999994       456.494324       1.88810110    
   0.00000000      -4.76741982     -0.246999994       456.494324       1.88810110    
   0.00000000      -5.48999977     -0.157000005       456.494324       1.88810110    
  -2.10093188      -5.07209921     -0.157000005       1340.39075       1.87806797    
  -1.82441294      -4.40452194     -0.246999994       1340.39075       1.87806797    
 -0.930077016      -4.67581606     -0.246999994       1340.39075       1.87806797    
  -1.07104599      -5.38451099     -0.157000005       1340.39075       1.87806797    
  -3.05008101      -4.56476784     -0.157000005       2152.50708       1.88110650    
  -2.64863706      -3.96396494     -0.246999994       2152.50708       1.88110650    
  -1.82441294      -4.40452194     -0.246999994       2152.50708       1.88110650    
  -2.10093188      -5.07209921     -0.157000005       2152.50708       1.88110650    
  -3.88201594      -3.88201594     -0.157000005       2895.52051       1.87981009    
  -3.37107491      -3.37107491     -0.246999994       2895.52051       1.87981009    
  -2.64863706      -3.96396494     -0.246999994       2895.52051       1.87981009    
  -3.05008101      -4.56476784     -0.157000005       2895.52051       1.87981009    
  -4.56476784      -3.05008101     -0.157000005       3555.42407       1.87445569    
  -3.96396494      -2.64863706     -0.246999994       3555.42407       1.87445569    
  -3.37107491      -3.37107491     -0.246999994       3555.42407       1.87445569    
  -3.88201594      -3.88201594     -0.157000005       3555.42407       1.87445569    
  -5.07209921      -2.10093188     -0.157000005       4020.33252       1.87921894    
  -4.40452194      -1.82441294     -0.246999994       4020.33252       1.87921894    
  -3.96396494      -2.64863706     -0.246999994       4020.33252       1.87921894    
  -4.56476784      -3.05008101     -0.157000005       4020.33252       1.87921894    
  -5.38451099      -1.07104599     -0.157000005       4355.89746       1.87976956    
  -4.67581606     -0.930077016     -0.246999994       4355.89746       1.87976956    
  -4.40452194      -1.82441294     -0.246999994       4355.89746       1.87976956    
  -5.07209921      -2.10093188     -0.157000005       4355.89746       1.87976956    
  -5.48999977       0.00000000     -0.157000005       4563.33105       1.87510347    
  -4.76741982       0.00000000     -0.246999994       4563.33105       1.87510347    
  -4.67581606     -0.930077016     -0.246999994       4563.33105       1.87510347    
  -5.38451099      -1.07104599     -0.157000005       4563.33105       1.87510347    
  -5.38451099       1.07104599     -0.157000005       4566.12891       1.87442148    
  -4.67581606      0.930077016     -0.246999994       4566.12891       1.87442148    
  -4.76741982       0.00000000     -0.246999994       4566.12891       1.87442148    
  -5.48999977       0.00000000     -0.157000005       4566.12891       1.87442148    
  -5.07209921       2.10093188     -0.157000005       4388.68506       1.87438834    
  -4.40452194       1.82441294     -0.246999994       4388.68506       1.87438834    
  -4.67581606      0.930077016     -0.246999994       4388.68506       1.87438834    
  -5.38451099       1.07104599     -0.157000005       4388.68506       1.87438834    
  -4.56476784       3.05008101     -0.157000005       4038.99268       1.87472212    
  -3.96396494       2.64863706     -0.246999994       4038.99268       1.87472212    
  -4.40452194       1.82441294     -0.246999994       4038.99268       1.87472212    
  -5.07209921       2.10093188     -0.157000005       4038.99268       1.87472212    
  -3.88201594       3.88201594     -0.157000005       3511.50684       1.87884152    
  -3.37107491       3.37107491     -0.246999994       3511.50684       1.87884152    
  -3.96396494       2.64863706     -0.246999994       3511.50684       1.87884152    
  -4.56476784       3.05008101     -0.157000005       3511.50684       1.87884152    
  -3.05008101       4.56476784     -0.157000005       2896.36255       1.87504995    
  -2.64863706       3.96396494     -0.246999994       2896.36255       1.87504995    
  -3.37107491       3.37107491     -0.246999994       2896.36255       1.87504995    
  -3.88201594       3.88201594     -0.157000005       2896.36255       1.87504995    
  -2.10093188       5.07209921     -0.157000005       2137.23877       1.87793207    
  -1.82441294       4.40452194     -0.246999994       2137.23877       1.87793207    
  -2.64863706       3.96396494     -0.246999994       2137.23877       1.87793207    
  -3.05008101       4.56476784     -0.157000005       2137.23877       1.87793207    
  -1.07104599       5.38451099     -0.157000005       1320.36218       1.87340200    
 -0.930077016       4.67581606     -0.246999994       1320.36218       1.87340200    
  -1.82441294       4.40452194     -0.246999994       1320.36218       1.87340200    
  -2.10093188       5.07209921     -0.157000005       1320.36218       1.87340200    
   0.00000000       5.48999977     -0.157000005       437.418823       1.87016797    
   0.00000000       4.76741982     -0.246999994       437.418823       1.87016797    
 -0.930077016       4.67581606     -0.246999994       437.418823       1.87016797    
  -1.07104599       5.38451099     -0.157000005       437.418823       1.87016797    
   1.07104599       5.38451099     -0.157000005       460.258789      -1.25843501    
  0.930077016       4.67581606     -0.246999994       460.258789      -1.25843501    
   0.00000000       4.76741982     -0.246999994       460.258789      -1.25843501    
   0.00000000       5.48999977     -0.157000005       460.258789      -1.25843501    
   2.10093188       5.07209921     -0.157000005       1330.98291      -1.25890243    
   1.82441294       4.40452194     -0.246999994       1330.98291      -1.25890243    
  0.930077016       4.67581606     -0.246999994       1330.98291      -1.25890243    
   1.07104599       5.38451099     -0.157000005       1330.98291      -1.25890243    
   3.05008101       4.56476784     -0.157000005       2156.57007      -1.26095164    
   2.64863706       3.96396494     -0.246999994       2156.57007      -1.26095164    
   1.82441294       4.40452194     -0.246999994       2156.57007      -1.26095164    
   2.10093188       5.07209921     -0.157000005       2156.57007      -1.26095164    
   3.88201594       3.88201594     -0.157000005       2923.62085      -1.26675653    
   3.37107491       3.37107491     -0.246999994       2923.62085      -1.26675653    
   2.64863706       3.96396494     -0.246999994       2923.62085      -1.26675653    
   3.05008101       4.56476784     -0.157000005       2923.62085      -1.26675653    
   4.56476784       3.05008101     -0.157000005       3554.30029      -1.26630414    
   3.96396494       2.64863706     -0.246999994       3554.30029      -1.26630414    
   3.37107491       3.37107491     -0.246999994       3554.30029      -1.26630414    
   3.88201594       3.88201594     -0.157000005       3554.30029      -1.26630414    
   5.07209921       2.10093188     -0.157000005       4057.92212      -1.26731765    
   4.40452194       1.82441294     -0.246999994       4057.92212      -1.26731765    
   3.96396494       2.64863706     -0.246999994       4057.92212      -1.26731765    
   4.56476784       3.05008101     -0.157000005       4057.92212      -1.26731765    
   5.38451099       1.07104599     -0.157000005       4358.13867      -1.26188624    
   4.67581606      0.930077016     -0.246999994       4358.13867      -1.26188624    
   4.40452194       1.82441294     -0.246999994       4358.13867      -1.26188624    
   5.07209921       2.10093188     -0.157000005       4358.13867      -1.26188624    
   5.48999977       0.00000000     -0.157000005       4519.87402      -1.26091886    
   4.76741982       0.00000000     -0.246999994       4519.87402      -1.26091886    
   4.67581606      0.930077016     -0.246999994       4519.87402      -1.26091886    
   5.38451099       1.07104599     -0.157000005       4519.87402      -1.26091886    
   5.38451099      -1.07104599     -0.157000005       4514.55908      -1.26084435    
   4.67581606     -0.930077016     -0.246999994       4514.55908      -1.26084435    
   4.76741982       0.00000000     -0.246999994       4514.55908      -1.26084435    
   5.48999977       0.00000000     -0.157000005       4514.55908      -1.26084435    
   5.07209921      -2.10093188     -0.157000005       4337.45215      -1.26094210    
   4.40452194      -1.82441294     -0.246999994       4337.45215      -1.26094210    
   4.67581606     -0.930077016     -0.246999994       4337.45215      -1.26094210    
   5.38451099      -1.07104599     -0.157000005       4337.45215      -1.26094210    
   4.56476784      -3.05008101     -0.157000005       3994.08569      -1.26116717    
   3.96396494      -2.64863706     -0.246999994       3994.08569      -1.26116717    
   4.40452194      -1.82441294     -0.246999994       3994.08569      -1.26116717    
   5.07209921      -2.10093188     -0.157000005       3994.08569      -1.26116717    
   3.88201594      -3.88201594     -0.157000005       3500.10791      -1.26187611    
   3.37107491      -3.37107491     -0.246999994       3500.10791      -1.26187611    
   3.96396494      -2.64863706     -0.246999994       3500.10791      -1.26187611    
   4.56476784      -3.05008101     -0.157000005       3500.10791      -1.26187611    
   3.05008101      -4.56476784     -0.157000005       2890.90308      -1.26655841    
   2.64863706      -3.96396494     -0.246999994       2890.90308      -1.26655841    
   3.37107491      -3.37107491     -0.246999994       2890.90308      -1.26655841    
   3.88201594      -3.88201594     -0.157000005       2890.90308      -1.26655841    
   2.10093188      -5.07209921     -0.157000005       2132.47290      -1.26353085    
   1.82441294      -4.40452194     -0.246999994       2132.47290      -1.26353085    
   2.64863706      -3.96396494     -0.246999994       2132.47290      -1.26353085    
   3.05008101      -4.56476784     -0.157000005       2132.47290      -1.26353085    
   1.07104599      -5.38451099     -0.157000005       1308.35229      -1.26410604    
  0.930077016      -4.67581606     -0.246999994       1308.35229      -1.26410604    
   1.82441294      -4.40452194     -0.246999994       1308.35229      -1.26410604    
   2.10093188      -5.07209921     -0.157000005       1308.35229      -1.26410604    
   0.00000000      -1.87709999     -0.606999993       320.780457      -1.47431803    
   0.00000000      -1.36500001     -0.606999993       320.780457      -1.47431803    
  0.266297996      -1.33877206     -0.606999993       320.780457      -1.47431803    
  0.366203994      -1.84103203     -0.606999993       320.780457      -1.47431803    
   0.00000000      -1.87709999     -0.606999993       378.337463       1.69212019    
   0.00000000      -2.59967995     -0.517000020       378.337463       1.69212019    
 -0.507171988      -2.54972792     -0.517000020       378.337463       1.69212019    
 -0.366203994      -1.84103203     -0.606999993       378.337463       1.69212019    
 -0.366203994      -1.84103203     -0.606999993       305.741119       1.67432380    
 -0.266297996      -1.33877206     -0.606999993       305.741119       1.67432380    
   0.00000000      -1.36500001     -0.606999993       305.741119       1.67432380    
   0.00000000      -1.87709999     -0.606999993       305.741119       1.67432380    
 -0.366203994      -1.84103203     -0.606999993       1120.99658       1.68780518    
 -0.507171988      -2.54972792     -0.517000020       1120.99658       1.68780518    
 -0.994853973      -2.40179110     -0.517000020       1120.99658       1.68780518    
 -0.718334973      -1.73421395     -0.606999993       1120.99658       1.68780518    
 -0.718334973      -1.73421395     -0.606999993       920.478210       1.67125130    
 -0.522363007      -1.26109600     -0.606999993       920.478210       1.67125130    
 -0.266297996      -1.33877206     -0.606999993       920.478210       1.67125130    
 -0.366203994      -1.84103203     -0.606999993       920.478210       1.67125130    
 -0.718334973      -1.73421395     -0.606999993       1818.09045       1.68573153    
 -0.994853973      -2.40179110     -0.517000020       1818.09045       1.68573153    
  -1.44430494      -2.16155505     -0.517000020       1818.09045       1.68573153    
  -1.04286098      -1.56075203     -0.606999993       1818.09045       1.68573153    
  -1.04286098      -1.56075203     -0.606999993       1500.87512       1.66974139    
 -0.758352995      -1.13495600     -0.606999993       1500.87512       1.66974139    
 -0.522363007      -1.26109600     -0.606999993       1500.87512       1.66974139    
 -0.718334973      -1.73421395     -0.606999993       1500.87512       1.66974139    
  -1.04286098      -1.56075203     -0.606999993       2449.83276       1.68421805    
  -1.44430494      -2.16155505     -0.517000020       2449.83276       1.68421805    
  -1.83825099      -1.83825099     -0.517000020       2449.83276       1.68421805    
  -1.32730997      -1.32730997     -0.606999993       2449.83276       1.68421805    
  -1.32730997      -1.32730997     -0.606999993       2027.11938       1.66859257    
 -0.965201020     -0.965201020     -0.606999993       2027.11938       1.66859257    
 -0.758352995      -1.13495600     -0.606999993       2027.11938       1.66859257    
  -1.04286098      -1.56075203     -0.606999993       2027.11938       1.66859257    
  -1.32730997      -1.32730997     -0.606999993       2996.21680       1.68334186    
  -1.83825099      -1.83825099     -0.517000020       2996.21680       1.68334186    
  -2.16155505      -1.44430494     -0.517000020       2996.21680       1.68334186    
  -1.56075203      -1.04286098     -0.606999993       2996.21680       1.68334186    
  -1.56075203      -1.04286098     -0.606999993       2479.75391       1.66787684    
  -1.13495600     -0.758352995     -0.606999993       2479.75391       1.66787684    
 -0.965201020     -0.965201020     -0.606999993       2479.75391       1.66787684    
  -1.32730997      -1.32730997     -0.606999993       2479.75391       1.66787684    
  -1.56075203      -1.04286098     -0.606999993       3428.85693       1.68314910    
  -2.16155505      -1.44430494     -0.517000020       3428.85693       1.68314910    
  -2.40179110     -0.994853973     -0.517000020       3428.85693       1.68314910    
  -1.73421395     -0.718334973     -0.606999993       3428.85693       1.68314910    
  -1.73421395     -0.718334973     -0.606999993       2837.64331       1.66763604    
  -1.26109600     -0.522363007     -0.606999993       2837.64331       1.66763604    
  -1.13495600     -0.758352995     -0.606999993       2837.64331       1.66763604    
  -1.56075203      -1.04286098     -0.606999993       2837.64331       1.66763604    
  -1.73421395     -0.718334973     -0.606999993       3721.43628       1.68338799    
  -2.40179110     -0.994853973     -0.517000020       3721.43628       1.68338799    
  -2.54972792     -0.507171988     -0.517000020       3721.43628       1.68338799    
  -1.84103203     -0.366203994     -0.606999993       3721.43628       1.68338799    
  -1.84103203     -0.366203994     -0.606999993       3083.02026       1.66771007    
  -1.33877206     -0.266297996     -0.606999993       3083.02026       1.66771007    
  -1.26109600     -0.522363007     -0.606999993       3083.02026       1.66771007    
  -1.73421395     -0.718334973     -0.606999993       3083.02026       1.66771007    
  -1.84103203     -0.366203994     -0.606999993       3865.90210       1.68362749    
  -2.54972792     -0.507171988     -0.517000020       3865.90210       1.68362749    
  -2.59967995       0.00000000     -0.517000020       3865.90210       1.68362749    
  -1.87709999       0.00000000     -0.606999993       3865.90210       1.68362749    
  -1.87709999       0.00000000     -0.606999993       3207.42139       1.66781437    
  -1.36500001       0.00000000     -0.606999993       3207.42139       1.66781437    
  -1.33877206     -0.266297996     -0.606999993       3207.42139       1.66781437    
  -1.84103203     -0.366203994     -0.606999993       3207.42139       1.66781437    
  -1.87709999       0.00000000     -0.606999993       3867.05176       1.68353784    
  -2.59967995       0.00000000     -0.517000020       3867.05176       1.68353784    
  -2.54972792      0.507171988     -0.517000020       3867.05176       1.68353784    
  -1.84103203      0.366203994     -0.606999993       3867.05176       1.68353784    
  -1.84103203      0.366203994     -0.606999993       3209.94336       1.66771388    
  -1.33877206      0.266297996     -0.606999993       3209.94336       1.66771388    
  -1.36500001       0.00000000     -0.606999993       3209.94336       1.66771388    
  -1.87709999       0.00000000     -0.606999993       3209.94336       1.66771388    
  -1.84103203      0.366203994     -0.606999993       3726.51343       1.68304825    
  -2.54972792      0.507171988     -0.517000020       3726.51343       1.68304825    
  -2.40179110      0.994853973     -0.517000020       3726.51343       1.68304825    
  -1.73421395      0.718334973     -0.606999993       3726.51343       1.68304825    
  -1.73421395      0.718334973     -0.606999993       3091.27148       1.66735756    
  -1.26109600      0.522363007     -0.606999993       3091.27148       1.66735756    
  -1.33877206      0.266297996     -0.606999993       3091.27148       1.66735756    
  -1.84103203      0.366203994     -0.606999993       3091.27148       1.66735756    
  -1.73421395      0.718334973     -0.606999993       3440.00269       1.68241203    
  -2.40179110      0.994853973     -0.517000020       3440.00269       1.68241203    
  -2.16155505       1.44430494     -0.517000020       3440.00269       1.68241203    
  -1.56075203       1.04286098     -0.606999993       3440.00269       1.68241203    
  -1.56075203       1.04286098     -0.606999993       2852.40820       1.66692030    
  -1.13495600      0.758352995     -0.606999993       2852.40820       1.66692030    
  -1.26109600      0.522363007     -0.606999993       2852.40820       1.66692030    
  -1.73421395      0.718334973     -0.606999993       2852.40820       1.66692030    
  -1.56075203       1.04286098     -0.606999993       3011.55420       1.68205070    
  -2.16155505       1.44430494     -0.517000020       3011.55420       1.68205070    
  -1.83825099       1.83825099     -0.517000020       3011.55420       1.68205070    
  -1.32730997       1.32730997     -0.606999993       3011.55420       1.68205070    
  -1.32730997       1.32730997     -0.606999993       2500.02954       1.66668153    
 -0.965201020      0.965201020     -0.606999993       2500.02954       1.66668153    
  -1.13495600      0.758352995     -0.606999993       2500.02954       1.66668153    
  -1.56075203       1.04286098     -0.606999993       2500.02954       1.66668153    
  -1.32730997       1.32730997     -0.606999993       2464.63330       1.68226445    
  -1.83825099       1.83825099     -0.517000020       2464.63330       1.68226445    
  -1.44430494       2.16155505     -0.517000020       2464.63330       1.68226445    
  -1.04286098       1.56075203     -0.606999993       2464.63330       1.68226445    
  -1.04286098       1.56075203     -0.606999993       2050.01880       1.66682255    
 -0.758352995       1.13495600     -0.606999993       2050.01880       1.66682255    
 -0.965201020      0.965201020     -0.606999993       2050.01880       1.66682255    
  -1.32730997       1.32730997     -0.606999993       2050.01880       1.66682255    
  -1.04286098       1.56075203     -0.606999993       1829.52759       1.68292224    
  -1.44430494       2.16155505     -0.517000020       1829.52759       1.68292224    
 -0.994853973       2.40179110     -0.517000020       1829.52759       1.68292224    
 -0.718334973       1.73421395     -0.606999993       1829.52759       1.68292224    
 -0.718334973       1.73421395     -0.606999993       1523.39185       1.66725767    
 -0.522363007       1.26109600     -0.606999993       1523.39185       1.66725767    
 -0.758352995       1.13495600     -0.606999993       1523.39185       1.66725767    
  -1.04286098       1.56075203     -0.606999993       1523.39185       1.66725767    
 -0.718334973       1.73421395     -0.606999993       1128.79578       1.68342376    
 -0.994853973       2.40179110     -0.517000020       1128.79578       1.68342376    
 -0.507171988       2.54972792     -0.517000020       1128.79578       1.68342376    
 -0.366203994       1.84103203     -0.606999993       1128.79578       1.68342376    
 -0.366203994       1.84103203     -0.606999993       940.570374       1.66753972    
 -0.266297996       1.33877206     -0.606999993       940.570374       1.66753972    
 -0.522363007       1.26109600     -0.606999993       940.570374       1.66753972    
 -0.718334973       1.73421395     -0.606999993       940.570374       1.66753972    
 -0.366203994       1.84103203     -0.606999993       382.839996       1.68070936    
 -0.507171988       2.54972792     -0.517000020       382.839996       1.68070936    
   0.00000000       2.59967995     -0.517000020       382.839996       1.68070936    
   0.00000000       1.87709999     -0.606999993       382.839996       1.68070936    
   0.00000000       1.87709999     -0.606999993       321.948608       1.66569853    
   0.00000000       1.36500001     -0.606999993       321.948608       1.66569853    
 -0.266297996       1.33877206     -0.606999993       321.948608       1.66569853    
 -0.366203994       1.84103203     -0.606999993       321.948608       1.66569853    
   0.00000000       1.87709999     -0.606999993       380.031647      -1.45044744    
   0.00000000       2.59967995     -0.517000020       380.031647      -1.45044744    
  0.507171988       2.54972792     -0.517000020       380.031647      -1.45044744    
  0.366203994       1.84103203     -0.606999993       380.031647      -1.45044744    
  0.366203994       1.84103203     -0.606999993       309.307190      -1.46859515    
  0.266297996       1.33877206     -0.606999993       309.307190      -1.46859515    
   0.00000000       1.36500001     -0.606999993       309.307190      -1.46859515    
   0.00000000       1.87709999     -0.606999993       309.307190      -1.46859515    
  0.366203994       1.84103203     -0.606999993       1126.13220      -1.45478320    
  0.507171988       2.54972792     -0.517000020       1126.13220      -1.45478320    
  0.994853973       2.40179110     -0.517000020       1126.13220      -1.45478320    
  0.718334973       1.73421395     -0.606999993       1126.13220      -1.45478320    
  0.718334973       1.73421395     -0.606999993       928.221008      -1.47162569    
  0.522363007       1.26109600     -0.606999993       928.221008      -1.47162569    
  0.266297996       1.33877206     -0.606999993       928.221008      -1.47162569    
  0.366203994       1.84103203     -0.606999993       928.221008      -1.47162569    
  0.718334973       1.73421395     -0.606999993       1827.06396      -1.45674765    
  0.994853973       2.40179110     -0.517000020       1827.06396      -1.45674765    
   1.44430494       2.16155505     -0.517000020       1827.06396      -1.45674765    
   1.04286098       1.56075203     -0.606999993       1827.06396      -1.45674765    
   1.04286098       1.56075203     -0.606999993       1511.83337      -1.47293556    
  0.758352995       1.13495600     -0.606999993       1511.83337      -1.47293556    
  0.522363007       1.26109600     -0.606999993       1511.83337      -1.47293556    
  0.718334973       1.73421395     -0.606999993       1511.83337      -1.47293556    
   1.04286098       1.56075203     -0.606999993       2462.24585      -1.45806575    
   1.44430494       2.16155505     -0.517000020       2462.24585      -1.45806575    
   1.83825099       1.83825099     -0.517000020       2462.24585      -1.45806575    
   1.32730997       1.32730997     -0.606999993       2462.24585      -1.45806575    
   1.32730997       1.32730997     -0.606999993       2039.44409      -1.47381020    
  0.965201020      0.965201020     -0.606999993       2039.44409      -1.47381020    
  0.758352995       1.13495600     -0.606999993       2039.44409      -1.47381020    
   1.04286098       1.56075203     -0.606999993       2039.44409      -1.47381020    
   1.32730997       1.32730997     -0.606999993       3009.06689      -1.45865214    
   1.83825099       1.83825099     -0.517000020       3009.06689      -1.45865214    
   2.16155505       1.44430494     -0.517000020       3009.06689      -1.45865214    
   1.56075203       1.04286098     -0.606999993       3009.06689      -1.45865214    
   1.56075203       1.04286098     -0.606999993       2490.61182      -1.47419882    
   1.13495600      0.758352995     -0.606999993       2490.61182      -1.47419882    
  0.965201020      0.965201020     -0.606999993       2490.61182      -1.47419882    
   1.32730997       1.32730997     -0.606999993       2490.61182      -1.47419882    
   1.56075203       1.04286098     -0.606999993       3437.16968      -1.45853543    
   2.16155505       1.44430494     -0.517000020       3437.16968      -1.45853543    
   2.40179110      0.994853973     -0.517000020       3437.16968      -1.45853543    
   1.73421395      0.718334973     -0.606999993       3437.16968      -1.45853543    
   1.73421395      0.718334973     -0.606999993       2844.29907      -1.47411406    
   1.26109600      0.522363007     -0.606999993       2844.29907      -1.47411406    
   1.13495600      0.758352995     -0.606999993       2844.29907      -1.47411406    
   1.56075203       1.04286098     -0.606999993       2844.29907      -1.47411406    
   1.73421395      0.718334973     -0.606999993       3723.18726      -1.45807052    
   2.40179110      0.994853973     -0.517000020       3723.18726      -1.45807052    
   2.54972792      0.507171988     -0.517000020       3723.18726      -1.45807052    
   1.84103203      0.366203994     -0.606999993       3723.18726      -1.45807052    
   1.84103203      0.366203994     -0.606999993       3084.61743      -1.47380233    
   1.33877206      0.266297996     -0.606999993       3084.61743      -1.47380233    
   1.26109600      0.522363007     -0.606999993       3084.61743      -1.47380233    
   1.73421395      0.718334973     -0.606999993       3084.61743      -1.47380233    
   1.84103203      0.366203994     -0.606999993       3863.40601      -1.45773625    
   2.54972792      0.507171988     -0.517000020       3863.40601      -1.45773625    
   2.59967995       0.00000000     -0.517000020       3863.40601      -1.45773625    
   1.87709999       0.00000000     -0.606999993       3863.40601      -1.45773625    
   1.87709999       0.00000000     -0.606999993       3205.03296      -1.47355807    
   1.36500001       0.00000000     -0.606999993       3205.03296      -1.47355807    
   1.33877206      0.266297996     -0.606999993       3205.03296      -1.47355807    
   1.84103203      0.366203994     -0.606999993       3205.03296      -1.47355807    
   1.87709999       0.00000000     -0.606999993       3862.30518      -1.45781517    
   2.59967995       0.00000000     -0.517000020       3862.30518      -1.45781517    
   2.54972792     -0.507171988     -0.517000020       3862.30518      -1.45781517    
   1.84103203     -0.366203994     -0.606999993       3862.30518      -1.45781517    
   1.84103203     -0.366203994     -0.606999993       3204.61963      -1.47357941    
   1.33877206     -0.266297996     -0.606999993       3204.61963      -1.47357941    
   1.36500001       0.00000000     -0.606999993       3204.61963      -1.47357941    
   1.87709999       0.00000000     -0.606999993       3204.61963      -1.47357941    
   1.84103203     -0.366203994     -0.606999993       3718.34180      -1.45826769    
   2.54972792     -0.507171988     -0.517000020       3718.34180      -1.45826769    
   2.40179110     -0.994853973     -0.517000020       3718.34180      -1.45826769    
   1.73421395     -0.718334973     -0.606999993       3718.34180      -1.45826769    
   1.73421395     -0.718334973     -0.606999993       3082.69653      -1.47383058    
   1.26109600     -0.522363007     -0.606999993       3082.69653      -1.47383058    
   1.33877206     -0.266297996     -0.606999993       3082.69653      -1.47383058    
   1.84103203     -0.366203994     -0.606999993       3082.69653      -1.47383058    
   1.73421395     -0.718334973     -0.606999993       3426.56299      -1.45875216    
   2.40179110     -0.994853973     -0.517000020       3426.56299      -1.45875216    
   2.16155505      -1.44430494     -0.517000020       3426.56299      -1.45875216    
   1.56075203      -1.04286098     -0.606999993       3426.56299      -1.45875216    
   1.56075203      -1.04286098     -0.606999993       2840.15625      -1.47408664    
   1.13495600     -0.758352995     -0.606999993       2840.15625      -1.47408664    
   1.26109600     -0.522363007     -0.606999993       2840.15625      -1.47408664    