 VARIABLES="X" "Y" "Z" "abs(p) (Pa)" "angle(p) (rad)"
ZONE N=   2709,E =    2358, F=FEPOINT, ET=QUADRILATERAL
   0.00000000      -5.48999977     -0.157000005       230.361801      -3.09718561    
   0.00000000      -4.76741982     -0.246999994       230.361801      -3.09718561    
  0.930077016      -4.67581606     -0.246999994       230.361801      -3.09718561    
   1.07104599      -5.38451099     -0.157000005       230.361801      -3.09718561    
  -1.07104599      -5.38451099     -0.157000005       230.303299      -3.09215569    
 -0.930077016      -4.67581606     -0.246999994       230.303299      -3.09215569    
   0.00000000      -4.76741982     -0.246999994       230.303299      -3.09215569    
   0.00000000      -5.48999977     -0.157000005       230.303299      -3.09215569    
  -2.10093188      -5.07209921     -0.157000005       215.126907      -3.07133269    
  -1.82441294      -4.40452194     -0.246999994       215.126907      -3.07133269    
 -0.930077016      -4.67581606     -0.246999994       215.126907      -3.07133269    
  -1.07104599      -5.38451099     -0.157000005       215.126907      -3.07133269    
  -3.05008101      -4.56476784     -0.157000005       204.828522      -3.08965206    
  -2.64863706      -3.96396494     -0.246999994       204.828522      -3.08965206    
  -1.82441294      -4.40452194     -0.246999994       204.828522      -3.08965206    
  -2.10093188      -5.07209921     -0.157000005       204.828522      -3.08965206    
  -3.88201594      -3.88201594     -0.157000005       179.263962      -3.09606051    
  -3.37107491      -3.37107491     -0.246999994       179.263962      -3.09606051    
  -2.64863706      -3.96396494     -0.246999994       179.263962      -3.09606051    
  -3.05008101      -4.56476784     -0.157000005       179.263962      -3.09606051    
  -4.56476784      -3.05008101     -0.157000005       141.012405      -3.08388472    
  -3.96396494      -2.64863706     -0.246999994       141.012405      -3.08388472    
  -3.37107491      -3.37107491     -0.246999994       141.012405      -3.08388472    
  -3.88201594      -3.88201594     -0.157000005       141.012405      -3.08388472    
  -5.07209921      -2.10093188     -0.157000005       108.498863      -3.10543370    
  -4.40452194      -1.82441294     -0.246999994       108.498863      -3.10543370    
  -3.96396494      -2.64863706     -0.246999994       108.498863      -3.10543370    
  -4.56476784      -3.05008101     -0.157000005       108.498863      -3.10543370    
  -5.38451099      -1.07104599     -0.157000005       68.4645538      -3.09841943    
  -4.67581606     -0.930077016     -0.246999994       68.4645538      -3.09841943    
  -4.40452194      -1.82441294     -0.246999994       68.4645538      -3.09841943    
  -5.07209921      -2.10093188     -0.157000005       68.4645538      -3.09841943    
  -5.48999977       0.00000000     -0.157000005       23.3795586      -3.03435421    
  -4.76741982       0.00000000     -0.246999994       23.3795586      -3.03435421    
  -4.67581606     -0.930077016     -0.246999994       23.3795586      -3.03435421    
  -5.38451099      -1.07104599     -0.157000005       23.3795586      -3.03435421    
  -5.38451099       1.07104599     -0.157000005       21.4234447       1.01393983E-02
  -4.67581606      0.930077016     -0.246999994       21.4234447       1.01393983E-02
  -4.76741982       0.00000000     -0.246999994       21.4234447       1.01393983E-02
  -5.48999977       0.00000000     -0.157000005       21.4234447       1.01393983E-02
  -5.07209921       2.10093188     -0.157000005       64.7785263       6.00127243E-02
  -4.40452194       1.82441294     -0.246999994       64.7785263       6.00127243E-02
  -4.67581606      0.930077016     -0.246999994       64.7785263       6.00127243E-02
  -5.38451099       1.07104599     -0.157000005       64.7785263       6.00127243E-02
  -4.56476784       3.05008101     -0.157000005       105.156540       6.93393350E-02
  -3.96396494       2.64863706     -0.246999994       105.156540       6.93393350E-02
  -4.40452194       1.82441294     -0.246999994       105.156540       6.93393350E-02
  -5.07209921       2.10093188     -0.157000005       105.156540       6.93393350E-02
  -3.88201594       3.88201594     -0.157000005       145.862244       5.35174944E-02
  -3.37107491       3.37107491     -0.246999994       145.862244       5.35174944E-02
  -3.96396494       2.64863706     -0.246999994       145.862244       5.35174944E-02
  -4.56476784       3.05008101     -0.157000005       145.862244       5.35174944E-02
  -3.05008101       4.56476784     -0.157000005       172.473236       6.71688095E-02
  -2.64863706       3.96396494     -0.246999994       172.473236       6.71688095E-02
  -3.37107491       3.37107491     -0.246999994       172.473236       6.71688095E-02
  -3.88201594       3.88201594     -0.157000005       172.473236       6.71688095E-02
  -2.10093188       5.07209921     -0.157000005       203.315216       4.98100817E-02
  -1.82441294       4.40452194     -0.246999994       203.315216       4.98100817E-02
  -2.64863706       3.96396494     -0.246999994       203.315216       4.98100817E-02
  -3.05008101       4.56476784     -0.157000005       203.315216       4.98100817E-02
  -1.07104599       5.38451099     -0.157000005       214.257599       6.64501637E-02
 -0.930077016       4.67581606     -0.246999994       214.257599       6.64501637E-02
  -1.82441294       4.40452194     -0.246999994       214.257599       6.64501637E-02
  -2.10093188       5.07209921     -0.157000005       214.257599       6.64501637E-02
   0.00000000       5.48999977     -0.157000005       229.340744       5.26574925E-02
   0.00000000       4.76741982     -0.246999994       229.340744       5.26574925E-02
 -0.930077016       4.67581606     -0.246999994       229.340744       5.26574925E-02
  -1.07104599       5.38451099     -0.157000005       229.340744       5.26574925E-02
   1.07104599       5.38451099     -0.157000005       222.527618       7.11017847E-02
  0.930077016       4.67581606     -0.246999994       222.527618       7.11017847E-02
   0.00000000       4.76741982     -0.246999994       222.527618       7.11017847E-02
   0.00000000       5.48999977     -0.157000005       222.527618       7.11017847E-02
   2.10093188       5.07209921     -0.157000005       221.141556       5.44535741E-02
   1.82441294       4.40452194     -0.246999994       221.141556       5.44535741E-02
  0.930077016       4.67581606     -0.246999994       221.141556       5.44535741E-02
   1.07104599       5.38451099     -0.157000005       221.141556       5.44535741E-02
   3.05008101       4.56476784     -0.157000005       204.995712       4.98314686E-02
   2.64863706       3.96396494     -0.246999994       204.995712       4.98314686E-02
   1.82441294       4.40452194     -0.246999994       204.995712       4.98314686E-02
   2.10093188       5.07209921     -0.157000005       204.995712       4.98314686E-02
   3.88201594       3.88201594     -0.157000005       173.728577       6.26113638E-02
   3.37107491       3.37107491     -0.246999994       173.728577       6.26113638E-02
   2.64863706       3.96396494     -0.246999994       173.728577       6.26113638E-02
   3.05008101       4.56476784     -0.157000005       173.728577       6.26113638E-02
   4.56476784       3.05008101     -0.157000005       143.587799       4.97450978E-02
   3.96396494       2.64863706     -0.246999994       143.587799       4.97450978E-02
   3.37107491       3.37107491     -0.246999994       143.587799       4.97450978E-02
   3.88201594       3.88201594     -0.157000005       143.587799       4.97450978E-02
   5.07209921       2.10093188     -0.157000005       105.331993       5.54384515E-02
   4.40452194       1.82441294     -0.246999994       105.331993       5.54384515E-02
   3.96396494       2.64863706     -0.246999994       105.331993       5.54384515E-02
   4.56476784       3.05008101     -0.157000005       105.331993       5.54384515E-02
   5.38451099       1.07104599     -0.157000005       67.8849182       4.47516590E-02
   4.67581606      0.930077016     -0.246999994       67.8849182       4.47516590E-02
   4.40452194       1.82441294     -0.246999994       67.8849182       4.47516590E-02
   5.07209921       2.10093188     -0.157000005       67.8849182       4.47516590E-02
   5.48999977       0.00000000     -0.157000005       23.3293076       9.00017768E-02
   4.76741982       0.00000000     -0.246999994       23.3293076       9.00017768E-02
   4.67581606      0.930077016     -0.246999994       23.3293076       9.00017768E-02
   5.38451099       1.07104599     -0.157000005       23.3293076       9.00017768E-02
   5.38451099      -1.07104599     -0.157000005       22.9553986       3.11622739    
   4.67581606     -0.930077016     -0.246999994       22.9553986       3.11622739    
   4.76741982       0.00000000     -0.246999994       22.9553986       3.11622739    
   5.48999977       0.00000000     -0.157000005       22.9553986       3.11622739    
   5.07209921      -2.10093188     -0.157000005       67.5833054      -3.11300755    
   4.40452194      -1.82441294     -0.246999994       67.5833054      -3.11300755    
   4.67581606     -0.930077016     -0.246999994       67.5833054      -3.11300755    
   5.38451099      -1.07104599     -0.157000005       67.5833054      -3.11300755    
   4.56476784      -3.05008101     -0.157000005       109.210403      -3.09760809    
   3.96396494      -2.64863706     -0.246999994       109.210403      -3.09760809    
   4.40452194      -1.82441294     -0.246999994       109.210403      -3.09760809    
   5.07209921      -2.10093188     -0.157000005       109.210403      -3.09760809    
   3.88201594      -3.88201594     -0.157000005       146.702545      -3.09205818    
   3.37107491      -3.37107491     -0.246999994       146.702545      -3.09205818    
   3.96396494      -2.64863706     -0.246999994       146.702545      -3.09205818    
   4.56476784      -3.05008101     -0.157000005       146.702545      -3.09205818    
   3.05008101      -4.56476784     -0.157000005       173.378357      -3.07654524    
   2.64863706      -3.96396494     -0.246999994       173.378357      -3.07654524    
   3.37107491      -3.37107491     -0.246999994       173.378357      -3.07654524    
   3.88201594      -3.88201594     -0.157000005       173.378357      -3.07654524    
   2.10093188      -5.07209921     -0.157000005       204.416962      -3.09641123    
   1.82441294      -4.40452194     -0.246999994       204.416962      -3.09641123    
   2.64863706      -3.96396494     -0.246999994       204.416962      -3.09641123    
   3.05008101      -4.56476784     -0.157000005       204.416962      -3.09641123    
   1.07104599      -5.38451099     -0.157000005       221.944809      -3.09919310    
  0.930077016      -4.67581606     -0.246999994       221.944809      -3.09919310    
   1.82441294      -4.40452194     -0.246999994       221.944809      -3.09919310    
   2.10093188      -5.07209921     -0.157000005       221.944809      -3.09919310    
   0.00000000      -1.87709999     -0.606999993       765.629028      -1.60252452    
   0.00000000      -1.36500001     -0.606999993       765.629028      -1.60252452    
  0.266297996      -1.33877206     -0.606999993       765.629028      -1.60252452    
  0.366203994      -1.84103203     -0.606999993       765.629028      -1.60252452    
   0.00000000      -1.87709999     -0.606999993       254.715515      -1.66719854    
   0.00000000      -2.59967995     -0.517000020       254.715515      -1.66719854    
 -0.507171988      -2.54972792     -0.517000020       254.715515      -1.66719854    
 -0.366203994      -1.84103203     -0.606999993       254.715515      -1.66719854    
 -0.366203994      -1.84103203     -0.606999993       769.853394      -1.60243869    
 -0.266297996      -1.33877206     -0.606999993       769.853394      -1.60243869    
   0.00000000      -1.36500001     -0.606999993       769.853394      -1.60243869    
   0.00000000      -1.87709999     -0.606999993       769.853394      -1.60243869    
 -0.366203994      -1.84103203     -0.606999993       246.442612      -1.66676438    
 -0.507171988      -2.54972792     -0.517000020       246.442612      -1.66676438    
 -0.994853973      -2.40179110     -0.517000020       246.442612      -1.66676438    
 -0.718334973      -1.73421395     -0.606999993       246.442612      -1.66676438    
 -0.718334973      -1.73421395     -0.606999993       743.943726      -1.60245621    
 -0.522363007      -1.26109600     -0.606999993       743.943726      -1.60245621    
 -0.266297996      -1.33877206     -0.606999993       743.943726      -1.60245621    
 -0.366203994      -1.84103203     -0.606999993       743.943726      -1.60245621    
 -0.718334973      -1.73421395     -0.606999993       228.451569      -1.66663051    
 -0.994853973      -2.40179110     -0.517000020       228.451569      -1.66663051    
  -1.44430494      -2.16155505     -0.517000020       228.451569      -1.66663051    
  -1.04286098      -1.56075203     -0.606999993       228.451569      -1.66663051    
  -1.04286098      -1.56075203     -0.606999993       688.507996      -1.60253727    
 -0.758352995      -1.13495600     -0.606999993       688.507996      -1.60253727    
 -0.522363007      -1.26109600     -0.606999993       688.507996      -1.60253727    
 -0.718334973      -1.73421395     -0.606999993       688.507996      -1.60253727    
  -1.04286098      -1.56075203     -0.606999993       201.608978      -1.66658759    
  -1.44430494      -2.16155505     -0.517000020       201.608978      -1.66658759    
  -1.83825099      -1.83825099     -0.517000020       201.608978      -1.66658759    
  -1.32730997      -1.32730997     -0.606999993       201.608978      -1.66658759    
  -1.32730997      -1.32730997     -0.606999993       605.906128      -1.60264528    
 -0.965201020     -0.965201020     -0.606999993       605.906128      -1.60264528    
 -0.758352995      -1.13495600     -0.606999993       605.906128      -1.60264528    
  -1.04286098      -1.56075203     -0.606999993       605.906128      -1.60264528    
  -1.32730997      -1.32730997     -0.606999993       166.755417      -1.66627657    
  -1.83825099      -1.83825099     -0.517000020       166.755417      -1.66627657    
  -2.16155505      -1.44430494     -0.517000020       166.755417      -1.66627657    
  -1.56075203      -1.04286098     -0.606999993       166.755417      -1.66627657    
  -1.56075203      -1.04286098     -0.606999993       498.882324      -1.60273385    
  -1.13495600     -0.758352995     -0.606999993       498.882324      -1.60273385    
 -0.965201020     -0.965201020     -0.606999993       498.882324      -1.60273385    
  -1.32730997      -1.32730997     -0.606999993       498.882324      -1.60273385    
  -1.56075203      -1.04286098     -0.606999993       124.831787      -1.66541541    
  -2.16155505      -1.44430494     -0.517000020       124.831787      -1.66541541    
  -2.40179110     -0.994853973     -0.517000020       124.831787      -1.66541541    
  -1.73421395     -0.718334973     -0.606999993       124.831787      -1.66541541    
  -1.73421395     -0.718334973     -0.606999993       371.528015      -1.60278952    
  -1.26109600     -0.522363007     -0.606999993       371.528015      -1.60278952    
  -1.13495600     -0.758352995     -0.606999993       371.528015      -1.60278952    
  -1.56075203      -1.04286098     -0.606999993       371.528015      -1.60278952    
  -1.73421395     -0.718334973     -0.606999993       77.4180527      -1.66419089    
  -2.40179110     -0.994853973     -0.517000020       77.4180527      -1.66419089    
  -2.54972792     -0.507171988     -0.517000020       77.4180527      -1.66419089    
  -1.84103203     -0.366203994     -0.606999993       77.4180527      -1.66419089    
  -1.84103203     -0.366203994     -0.606999993       228.905243      -1.60299265    
  -1.33877206     -0.266297996     -0.606999993       228.905243      -1.60299265    
  -1.26109600     -0.522363007     -0.606999993       228.905243      -1.60299265    
  -1.73421395     -0.718334973     -0.606999993       228.905243      -1.60299265    
  -1.84103203     -0.366203994     -0.606999993       26.5989380      -1.66379297    
  -2.54972792     -0.507171988     -0.517000020       26.5989380      -1.66379297    
  -2.59967995       0.00000000     -0.517000020       26.5989380      -1.66379297    
  -1.87709999       0.00000000     -0.606999993       26.5989380      -1.66379297    
  -1.87709999       0.00000000     -0.606999993       76.5604630      -1.60491645    
  -1.36500001       0.00000000     -0.606999993       76.5604630      -1.60491645    
  -1.33877206     -0.266297996     -0.606999993       76.5604630      -1.60491645    
  -1.84103203     -0.366203994     -0.606999993       76.5604630      -1.60491645    
  -1.87709999       0.00000000     -0.606999993       25.3097191       1.48023176    
  -2.59967995       0.00000000     -0.517000020       25.3097191       1.48023176    
  -2.54972792      0.507171988     -0.517000020       25.3097191       1.48023176    
  -1.84103203      0.366203994     -0.606999993       25.3097191       1.48023176    
  -1.84103203      0.366203994     -0.606999993       78.9649734       1.54286206    
  -1.33877206      0.266297996     -0.606999993       78.9649734       1.54286206    
  -1.36500001       0.00000000     -0.606999993       78.9649734       1.54286206    
  -1.87709999       0.00000000     -0.606999993       78.9649734       1.54286206    
  -1.84103203      0.366203994     -0.606999993       76.1414413       1.47867048    
  -2.54972792      0.507171988     -0.517000020       76.1414413       1.47867048    
  -2.40179110      0.994853973     -0.517000020       76.1414413       1.47867048    
  -1.73421395      0.718334973     -0.606999993       76.1414413       1.47867048    
  -1.73421395      0.718334973     -0.606999993       231.220734       1.54075861    
  -1.26109600      0.522363007     -0.606999993       231.220734       1.54075861    
  -1.33877206      0.266297996     -0.606999993       231.220734       1.54075861    
  -1.84103203      0.366203994     -0.606999993       231.220734       1.54075861    
  -1.73421395      0.718334973     -0.606999993       123.648323       1.47722089    
  -2.40179110      0.994853973     -0.517000020       123.648323       1.47722089    
  -2.16155505       1.44430494     -0.517000020       123.648323       1.47722089    
  -1.56075203       1.04286098     -0.606999993       123.648323       1.47722089    
  -1.56075203       1.04286098     -0.606999993       373.608490       1.54014695    
  -1.13495600      0.758352995     -0.606999993       373.608490       1.54014695    
  -1.26109600      0.522363007     -0.606999993       373.608490       1.54014695    
  -1.73421395      0.718334973     -0.606999993       373.608490       1.54014695    
  -1.56075203       1.04286098     -0.606999993       165.633301       1.47606361    
  -2.16155505       1.44430494     -0.517000020       165.633301       1.47606361    
  -1.83825099       1.83825099     -0.517000020       165.633301       1.47606361    
  -1.32730997       1.32730997     -0.606999993       165.633301       1.47606361    
  -1.32730997       1.32730997     -0.606999993       500.326080       1.53980744    
 -0.965201020      0.965201020     -0.606999993       500.326080       1.53980744    
  -1.13495600      0.758352995     -0.606999993       500.326080       1.53980744    
  -1.56075203       1.04286098     -0.606999993       500.326080       1.53980744    
  -1.32730997       1.32730997     -0.606999993       200.503479       1.47549355    
  -1.83825099       1.83825099     -0.517000020       200.503479       1.47549355    
  -1.44430494       2.16155505     -0.517000020       200.503479       1.47549355    
  -1.04286098       1.56075203     -0.606999993       200.503479       1.47549355    
  -1.04286098       1.56075203     -0.606999993       606.487305       1.53962862    
 -0.758352995       1.13495600     -0.606999993       606.487305       1.53962862    
 -0.965201020      0.965201020     -0.606999993       606.487305       1.53962862    
  -1.32730997       1.32730997     -0.606999993       606.487305       1.53962862    
  -1.04286098       1.56075203     -0.606999993       227.314865       1.47531247    
  -1.44430494       2.16155505     -0.517000020       227.314865       1.47531247    
 -0.994853973       2.40179110     -0.517000020       227.314865       1.47531247    
 -0.718334973       1.73421395     -0.606999993       227.314865       1.47531247    
 -0.718334973       1.73421395     -0.606999993       688.122986       1.53956425    
 -0.522363007       1.26109600     -0.606999993       688.122986       1.53956425    
 -0.758352995       1.13495600     -0.606999993       688.122986       1.53956425    
  -1.04286098       1.56075203     -0.606999993       688.122986       1.53956425    
 -0.718334973       1.73421395     -0.606999993       245.323135       1.47515857    
 -0.994853973       2.40179110     -0.517000020       245.323135       1.47515857    
 -0.507171988       2.54972792     -0.517000020       245.323135       1.47515857    
 -0.366203994       1.84103203     -0.606999993       245.323135       1.47515857    
 -0.366203994       1.84103203     -0.606999993       742.498230       1.53953338    
 -0.266297996       1.33877206     -0.606999993       742.498230       1.53953338    
 -0.522363007       1.26109600     -0.606999993       742.498230       1.53953338    
 -0.718334973       1.73421395     -0.606999993       742.498230       1.53953338    
 -0.366203994       1.84103203     -0.606999993       253.722885       1.47481251    
 -0.507171988       2.54972792     -0.517000020       253.722885       1.47481251    
   0.00000000       2.59967995     -0.517000020       253.722885       1.47481251    
   0.00000000       1.87709999     -0.606999993       253.722885       1.47481251    
   0.00000000       1.87709999     -0.606999993       767.775391       1.53948951    
   0.00000000       1.36500001     -0.606999993       767.775391       1.53948951    
 -0.266297996       1.33877206     -0.606999993       767.775391       1.53948951    
 -0.366203994       1.84103203     -0.606999993       767.775391       1.53948951    
   0.00000000       1.87709999     -0.606999993       251.917252       1.47424650    
   0.00000000       2.59967995     -0.517000020       251.917252       1.47424650    
  0.507171988       2.54972792     -0.517000020       251.917252       1.47424650    
  0.366203994       1.84103203     -0.606999993       251.917252       1.47424650    
  0.366203994       1.84103203     -0.606999993       763.183044       1.53938758    
  0.266297996       1.33877206     -0.606999993       763.183044       1.53938758    
   0.00000000       1.36500001     -0.606999993       763.183044       1.53938758    
   0.00000000       1.87709999     -0.606999993       763.183044       1.53938758    
  0.366203994       1.84103203     -0.606999993       240.212555       1.47350824    
  0.507171988       2.54972792     -0.517000020       240.212555       1.47350824    
  0.994853973       2.40179110     -0.517000020       240.212555       1.47350824    
  0.718334973       1.73421395     -0.606999993       240.212555       1.47350824    
  0.718334973       1.73421395     -0.606999993       729.470215       1.53925240    
  0.522363007       1.26109600     -0.606999993       729.470215       1.53925240    
  0.266297996       1.33877206     -0.606999993       729.470215       1.53925240    
  0.366203994       1.84103203     -0.606999993       729.470215       1.53925240    
  0.718334973       1.73421395     -0.606999993       219.727753       1.47267473    
  0.994853973       2.40179110     -0.517000020       219.727753       1.47267473    
   1.44430494       2.16155505     -0.517000020       219.727753       1.47267473    
   1.04286098       1.56075203     -0.606999993       219.727753       1.47267473    
   1.04286098       1.56075203     -0.606999993       668.701233       1.53914165    
  0.758352995       1.13495600     -0.606999993       668.701233       1.53914165    
  0.522363007       1.26109600     -0.606999993       668.701233       1.53914165    
  0.718334973       1.73421395     -0.606999993       668.701233       1.53914165    
   1.04286098       1.56075203     -0.606999993       191.727112       1.47209978    
   1.44430494       2.16155505     -0.517000020       191.727112       1.47209978    
   1.83825099       1.83825099     -0.517000020       191.727112       1.47209978    
   1.32730997       1.32730997     -0.606999993       191.727112       1.47209978    
   1.32730997       1.32730997     -0.606999993       583.465271       1.53907263    
  0.965201020      0.965201020     -0.606999993       583.465271       1.53907263    
  0.758352995       1.13495600     -0.606999993       583.465271       1.53907263    
   1.04286098       1.56075203     -0.606999993       583.465271       1.53907263    
   1.32730997       1.32730997     -0.606999993       157.142639       1.47221172    
   1.83825099       1.83825099     -0.517000020       157.142639       1.47221172    
   2.16155505       1.44430494     -0.517000020       157.142639       1.47221172    
   1.56075203       1.04286098     -0.606999993       157.142639       1.47221172    
   1.56075203       1.04286098     -0.606999993       477.246674       1.53913617    
   1.13495600      0.758352995     -0.606999993       477.246674       1.53913617    
  0.965201020      0.965201020     -0.606999993       477.246674       1.53913617    
   1.32730997       1.32730997     -0.606999993       477.246674       1.53913617    
   1.56075203       1.04286098     -0.606999993       116.871834       1.47341800    
   2.16155505       1.44430494     -0.517000020       116.871834       1.47341800    
   2.40179110      0.994853973     -0.517000020       116.871834       1.47341800    
   1.73421395      0.718334973     -0.606999993       116.871834       1.47341800    
   1.73421395      0.718334973     -0.606999993       353.740967       1.53942192    
   1.26109600      0.522363007     -0.606999993       353.740967       1.53942192    
   1.13495600      0.758352995     -0.606999993       353.740967       1.53942192    
   1.56075203       1.04286098     -0.606999993       353.740967       1.53942192    
   1.73421395      0.718334973     -0.606999993       72.3090439       1.47592270    
   2.40179110      0.994853973     -0.517000020       72.3090439       1.47592270    
   2.54972792      0.507171988     -0.517000020       72.3090439       1.47592270    
   1.84103203      0.366203994     -0.606999993       72.3090439       1.47592270    
   1.84103203      0.366203994     -0.606999993       217.522095       1.54005551    
   1.33877206      0.266297996     -0.606999993       217.522095       1.54005551    
   1.26109600      0.522363007     -0.606999993       217.522095       1.54005551    
   1.73421395      0.718334973     -0.606999993       217.522095       1.54005551    
   1.84103203      0.366203994     -0.606999993       25.1773129       1.48398459    
   2.54972792      0.507171988     -0.517000020       25.1773129       1.48398459    
   2.59967995       0.00000000     -0.517000020       25.1773129       1.48398459    
   1.87709999       0.00000000     -0.606999993       25.1773129       1.48398459    
   1.87709999       0.00000000     -0.606999993       73.5082855       1.54257095    
   1.36500001       0.00000000     -0.606999993       73.5082855       1.54257095    
   1.33877206      0.266297996     -0.606999993       73.5082855       1.54257095    
   1.84103203      0.366203994     -0.606999993       73.5082855       1.54257095    
   1.87709999       0.00000000     -0.606999993       22.8058739      -1.68157482    
   2.59967995       0.00000000     -0.517000020       22.8058739      -1.68157482    
   2.54972792     -0.507171988     -0.517000020       22.8058739      -1.68157482    
   1.84103203     -0.366203994     -0.606999993       22.8058739      -1.68157482    
   1.84103203     -0.366203994     -0.606999993       73.2033768      -1.60631835    
   1.33877206     -0.266297996     -0.606999993       73.2033768      -1.60631835    
   1.36500001       0.00000000     -0.606999993       73.2033768      -1.60631835    
   1.87709999       0.00000000     -0.606999993       73.2033768      -1.60631835    
   1.84103203     -0.366203994     -0.606999993       70.0905914      -1.67396331    
   2.54972792     -0.507171988     -0.517000020       70.0905914      -1.67396331    
   2.40179110     -0.994853973     -0.517000020       70.0905914      -1.67396331    
   1.73421395     -0.718334973     -0.606999993       70.0905914      -1.67396331    
   1.73421395     -0.718334973     -0.606999993       217.355469      -1.60402524    
   1.26109600     -0.522363007     -0.606999993       217.355469      -1.60402524    
   1.33877206     -0.266297996     -0.606999993       217.355469      -1.60402524    
   1.84103203     -0.366203994     -0.606999993       217.355469      -1.60402524    
   1.73421395     -0.718334973     -0.606999993       114.942589      -1.67318428    
   2.40179110     -0.994853973     -0.517000020       114.942589      -1.67318428    
   2.16155505      -1.44430494     -0.517000020       114.942589      -1.67318428    
   1.56075203      -1.04286098     -0.606999993       114.942589      -1.67318428    
   1.56075203      -1.04286098     -0.606999993       354.100372      -1.60364544    
   1.13495600     -0.758352995     -0.606999993       354.100372      -1.60364544    
   1.26109600     -0.522363007     -0.606999993       354.100372      -1.60364544    