 VARIABLES="X" "Y" "Z" "abs(p) (Pa)" "angle(p) (rad)"
ZONE N=   2709,E =    2358, F=FEPOINT, ET=QUADRILATERAL
   0.00000000      -5.48999977     -0.157000005       41.6484032      -1.25737035    
   0.00000000      -4.76741982     -0.246999994       41.6484032      -1.25737035    
  0.930077016      -4.67581606     -0.246999994       41.6484032      -1.25737035    
   1.07104599      -5.38451099     -0.157000005       41.6484032      -1.25737035    
  -1.07104599      -5.38451099     -0.157000005       40.7233582       1.88338852    
 -0.930077016      -4.67581606     -0.246999994       40.7233582       1.88338852    
   0.00000000      -4.76741982     -0.246999994       40.7233582       1.88338852    
   0.00000000      -5.48999977     -0.157000005       40.7233582       1.88338852    
  -2.10093188      -5.07209921     -0.157000005       120.848709       1.88449776    
  -1.82441294      -4.40452194     -0.246999994       120.848709       1.88449776    
 -0.930077016      -4.67581606     -0.246999994       120.848709       1.88449776    
  -1.07104599      -5.38451099     -0.157000005       120.848709       1.88449776    
  -3.05008101      -4.56476784     -0.157000005       195.422760       1.88681865    
  -2.64863706      -3.96396494     -0.246999994       195.422760       1.88681865    
  -1.82441294      -4.40452194     -0.246999994       195.422760       1.88681865    
  -2.10093188      -5.07209921     -0.157000005       195.422760       1.88681865    
  -3.88201594      -3.88201594     -0.157000005       262.352173       1.88758123    
  -3.37107491      -3.37107491     -0.246999994       262.352173       1.88758123    
  -2.64863706      -3.96396494     -0.246999994       262.352173       1.88758123    
  -3.05008101      -4.56476784     -0.157000005       262.352173       1.88758123    
  -4.56476784      -3.05008101     -0.157000005       319.387238       1.88708591    
  -3.96396494      -2.64863706     -0.246999994       319.387238       1.88708591    
  -3.37107491      -3.37107491     -0.246999994       319.387238       1.88708591    
  -3.88201594      -3.88201594     -0.157000005       319.387238       1.88708591    
  -5.07209921      -2.10093188     -0.157000005       365.558289       1.88713598    
  -4.40452194      -1.82441294     -0.246999994       365.558289       1.88713598    
  -3.96396494      -2.64863706     -0.246999994       365.558289       1.88713598    
  -4.56476784      -3.05008101     -0.157000005       365.558289       1.88713598    
  -5.38451099      -1.07104599     -0.157000005       397.556915       1.88666165    
  -4.67581606     -0.930077016     -0.246999994       397.556915       1.88666165    
  -4.40452194      -1.82441294     -0.246999994       397.556915       1.88666165    
  -5.07209921      -2.10093188     -0.157000005       397.556915       1.88666165    
  -5.48999977       0.00000000     -0.157000005       413.242371       1.88605595    
  -4.76741982       0.00000000     -0.246999994       413.242371       1.88605595    
  -4.67581606     -0.930077016     -0.246999994       413.242371       1.88605595    
  -5.38451099      -1.07104599     -0.157000005       413.242371       1.88605595    
  -5.38451099       1.07104599     -0.157000005       413.593719       1.88575375    
  -4.67581606      0.930077016     -0.246999994       413.593719       1.88575375    
  -4.76741982       0.00000000     -0.246999994       413.593719       1.88575375    
  -5.48999977       0.00000000     -0.157000005       413.593719       1.88575375    
  -5.07209921       2.10093188     -0.157000005       398.250854       1.88543642    
  -4.40452194       1.82441294     -0.246999994       398.250854       1.88543642    
  -4.67581606      0.930077016     -0.246999994       398.250854       1.88543642    
  -5.38451099       1.07104599     -0.157000005       398.250854       1.88543642    
  -4.56476784       3.05008101     -0.157000005       366.886383       1.88569212    
  -3.96396494       2.64863706     -0.246999994       366.886383       1.88569212    
  -4.40452194       1.82441294     -0.246999994       366.886383       1.88569212    
  -5.07209921       2.10093188     -0.157000005       366.886383       1.88569212    
  -3.88201594       3.88201594     -0.157000005       321.577087       1.88649905    
  -3.37107491       3.37107491     -0.246999994       321.577087       1.88649905    
  -3.96396494       2.64863706     -0.246999994       321.577087       1.88649905    
  -4.56476784       3.05008101     -0.157000005       321.577087       1.88649905    
  -3.05008101       4.56476784     -0.157000005       263.674011       1.88625228    
  -2.64863706       3.96396494     -0.246999994       263.674011       1.88625228    
  -3.37107491       3.37107491     -0.246999994       263.674011       1.88625228    
  -3.88201594       3.88201594     -0.157000005       263.674011       1.88625228    
  -2.10093188       5.07209921     -0.157000005       196.587067       1.88605797    
  -1.82441294       4.40452194     -0.246999994       196.587067       1.88605797    
  -2.64863706       3.96396494     -0.246999994       196.587067       1.88605797    
  -3.05008101       4.56476784     -0.157000005       196.587067       1.88605797    
  -1.07104599       5.38451099     -0.157000005       121.820595       1.88405311    
 -0.930077016       4.67581606     -0.246999994       121.820595       1.88405311    
  -1.82441294       4.40452194     -0.246999994       121.820595       1.88405311    
  -2.10093188       5.07209921     -0.157000005       121.820595       1.88405311    
   0.00000000       5.48999977     -0.157000005       41.6569633       1.88239992    
   0.00000000       4.76741982     -0.246999994       41.6569633       1.88239992    
 -0.930077016       4.67581606     -0.246999994       41.6569633       1.88239992    
  -1.07104599       5.38451099     -0.157000005       41.6569633       1.88239992    
   1.07104599       5.38451099     -0.157000005       40.7135811      -1.25733197    
  0.930077016       4.67581606     -0.246999994       40.7135811      -1.25733197    
   0.00000000       4.76741982     -0.246999994       40.7135811      -1.25733197    
   0.00000000       5.48999977     -0.157000005       40.7135811      -1.25733197    
   2.10093188       5.07209921     -0.157000005       121.052917      -1.25632691    
   1.82441294       4.40452194     -0.246999994       121.052917      -1.25632691    
  0.930077016       4.67581606     -0.246999994       121.052917      -1.25632691    
   1.07104599       5.38451099     -0.157000005       121.052917      -1.25632691    
   3.05008101       4.56476784     -0.157000005       195.755005      -1.25503182    
   2.64863706       3.96396494     -0.246999994       195.755005      -1.25503182    
   1.82441294       4.40452194     -0.246999994       195.755005      -1.25503182    
   2.10093188       5.07209921     -0.157000005       195.755005      -1.25503182    
   3.88201594       3.88201594     -0.157000005       262.865967      -1.25515580    
   3.37107491       3.37107491     -0.246999994       262.865967      -1.25515580    
   2.64863706       3.96396494     -0.246999994       262.865967      -1.25515580    
   3.05008101       4.56476784     -0.157000005       262.865967      -1.25515580    
   4.56476784       3.05008101     -0.157000005       320.649750      -1.25523329    
   3.96396494       2.64863706     -0.246999994       320.649750      -1.25523329    
   3.37107491       3.37107491     -0.246999994       320.649750      -1.25523329    
   3.88201594       3.88201594     -0.157000005       320.649750      -1.25523329    
   5.07209921       2.10093188     -0.157000005       366.407410      -1.25572717    
   4.40452194       1.82441294     -0.246999994       366.407410      -1.25572717    
   3.96396494       2.64863706     -0.246999994       366.407410      -1.25572717    
   4.56476784       3.05008101     -0.157000005       366.407410      -1.25572717    
   5.38451099       1.07104599     -0.157000005       398.524933      -1.25540602    
   4.67581606      0.930077016     -0.246999994       398.524933      -1.25540602    
   4.40452194       1.82441294     -0.246999994       398.524933      -1.25540602    
   5.07209921       2.10093188     -0.157000005       398.524933      -1.25540602    
   5.48999977       0.00000000     -0.157000005       414.191925      -1.25500286    
   4.76741982       0.00000000     -0.246999994       414.191925      -1.25500286    
   4.67581606      0.930077016     -0.246999994       414.191925      -1.25500286    
   5.38451099       1.07104599     -0.157000005       414.191925      -1.25500286    
   5.38451099      -1.07104599     -0.157000005       413.978882      -1.25477469    
   4.67581606     -0.930077016     -0.246999994       413.978882      -1.25477469    
   4.76741982       0.00000000     -0.246999994       413.978882      -1.25477469    
   5.48999977       0.00000000     -0.157000005       413.978882      -1.25477469    
   5.07209921      -2.10093188     -0.157000005       398.016602      -1.25467157    
   4.40452194      -1.82441294     -0.246999994       398.016602      -1.25467157    
   4.67581606     -0.930077016     -0.246999994       398.016602      -1.25467157    
   5.38451099      -1.07104599     -0.157000005       398.016602      -1.25467157    
   4.56476784      -3.05008101     -0.157000005       366.218079      -1.25416636    
   3.96396494      -2.64863706     -0.246999994       366.218079      -1.25416636    
   4.40452194      -1.82441294     -0.246999994       366.218079      -1.25416636    
   5.07209921      -2.10093188     -0.157000005       366.218079      -1.25416636    
   3.88201594      -3.88201594     -0.157000005       320.518677      -1.25375879    
   3.37107491      -3.37107491     -0.246999994       320.518677      -1.25375879    
   3.96396494      -2.64863706     -0.246999994       320.518677      -1.25375879    
   4.56476784      -3.05008101     -0.157000005       320.518677      -1.25375879    
   3.05008101      -4.56476784     -0.157000005       262.879028      -1.25420356    
   2.64863706      -3.96396494     -0.246999994       262.879028      -1.25420356    
   3.37107491      -3.37107491     -0.246999994       262.879028      -1.25420356    
   3.88201594      -3.88201594     -0.157000005       262.879028      -1.25420356    
   2.10093188      -5.07209921     -0.157000005       196.236481      -1.25462675    
   1.82441294      -4.40452194     -0.246999994       196.236481      -1.25462675    
   2.64863706      -3.96396494     -0.246999994       196.236481      -1.25462675    
   3.05008101      -4.56476784     -0.157000005       196.236481      -1.25462675    
   1.07104599      -5.38451099     -0.157000005       121.853333      -1.25629759    
  0.930077016      -4.67581606     -0.246999994       121.853333      -1.25629759    
   1.82441294      -4.40452194     -0.246999994       121.853333      -1.25629759    
   2.10093188      -5.07209921     -0.157000005       121.853333      -1.25629759    
   0.00000000      -1.87709999     -0.606999993       89.7802963      -1.53298450    
   0.00000000      -1.36500001     -0.606999993       89.7802963      -1.53298450    
  0.266297996      -1.33877206     -0.606999993       89.7802963      -1.53298450    
  0.366203994      -1.84103203     -0.606999993       89.7802963      -1.53298450    
   0.00000000      -1.87709999     -0.606999993       60.5566673       1.65716028    
   0.00000000      -2.59967995     -0.517000020       60.5566673       1.65716028    
 -0.507171988      -2.54972792     -0.517000020       60.5566673       1.65716028    
 -0.366203994      -1.84103203     -0.606999993       60.5566673       1.65716028    
 -0.366203994      -1.84103203     -0.606999993       78.4540558       1.60850513    
 -0.266297996      -1.33877206     -0.606999993       78.4540558       1.60850513    
   0.00000000      -1.36500001     -0.606999993       78.4540558       1.60850513    
   0.00000000      -1.87709999     -0.606999993       78.4540558       1.60850513    
 -0.366203994      -1.84103203     -0.606999993       182.773209       1.65609121    
 -0.507171988      -2.54972792     -0.517000020       182.773209       1.65609121    
 -0.994853973      -2.40179110     -0.517000020       182.773209       1.65609121    
 -0.718334973      -1.73421395     -0.606999993       182.773209       1.65609121    
 -0.718334973      -1.73421395     -0.606999993       242.105423       1.60845530    
 -0.522363007      -1.26109600     -0.606999993       242.105423       1.60845530    
 -0.266297996      -1.33877206     -0.606999993       242.105423       1.60845530    
 -0.366203994      -1.84103203     -0.606999993       242.105423       1.60845530    
 -0.718334973      -1.73421395     -0.606999993       291.184082       1.65667808    
 -0.994853973      -2.40179110     -0.517000020       291.184082       1.65667808    
  -1.44430494      -2.16155505     -0.517000020       291.184082       1.65667808    
  -1.04286098      -1.56075203     -0.606999993       291.184082       1.65667808    
  -1.04286098      -1.56075203     -0.606999993       393.086212       1.60832787    
 -0.758352995      -1.13495600     -0.606999993       393.086212       1.60832787    
 -0.522363007      -1.26109600     -0.606999993       393.086212       1.60832787    
 -0.718334973      -1.73421395     -0.606999993       393.086212       1.60832787    
  -1.04286098      -1.56075203     -0.606999993       385.829041       1.65716088    
  -1.44430494      -2.16155505     -0.517000020       385.829041       1.65716088    
  -1.83825099      -1.83825099     -0.517000020       385.829041       1.65716088    
  -1.32730997      -1.32730997     -0.606999993       385.829041       1.65716088    
  -1.32730997      -1.32730997     -0.606999993       527.200378       1.60821629    
 -0.965201020     -0.965201020     -0.606999993       527.200378       1.60821629    
 -0.758352995      -1.13495600     -0.606999993       527.200378       1.60821629    
  -1.04286098      -1.56075203     -0.606999993       527.200378       1.60821629    
  -1.32730997      -1.32730997     -0.606999993       468.465668       1.65721941    
  -1.83825099      -1.83825099     -0.517000020       468.465668       1.65721941    
  -2.16155505      -1.44430494     -0.517000020       468.465668       1.65721941    
  -1.56075203      -1.04286098     -0.606999993       468.465668       1.65721941    
  -1.56075203      -1.04286098     -0.606999993       642.059814       1.60814941    
  -1.13495600     -0.758352995     -0.606999993       642.059814       1.60814941    
 -0.965201020     -0.965201020     -0.606999993       642.059814       1.60814941    
  -1.32730997      -1.32730997     -0.606999993       642.059814       1.60814941    
  -1.56075203      -1.04286098     -0.606999993       537.872498       1.65693140    
  -2.16155505      -1.44430494     -0.517000020       537.872498       1.65693140    
  -2.40179110     -0.994853973     -0.517000020       537.872498       1.65693140    
  -1.73421395     -0.718334973     -0.606999993       537.872498       1.65693140    
  -1.73421395     -0.718334973     -0.606999993       734.920898       1.60811996    
  -1.26109600     -0.522363007     -0.606999993       734.920898       1.60811996    
  -1.13495600     -0.758352995     -0.606999993       734.920898       1.60811996    
  -1.56075203      -1.04286098     -0.606999993       734.920898       1.60811996    
  -1.73421395     -0.718334973     -0.606999993       588.591675       1.65659523    
  -2.40179110     -0.994853973     -0.517000020       588.591675       1.65659523    
  -2.54972792     -0.507171988     -0.517000020       588.591675       1.65659523    
  -1.84103203     -0.366203994     -0.606999993       588.591675       1.65659523    
  -1.84103203     -0.366203994     -0.606999993       801.164978       1.60811830    
  -1.33877206     -0.266297996     -0.606999993       801.164978       1.60811830    
  -1.26109600     -0.522363007     -0.606999993       801.164978       1.60811830    
  -1.73421395     -0.718334973     -0.606999993       801.164978       1.60811830    
  -1.84103203     -0.366203994     -0.606999993       615.704224       1.65636337    
  -2.54972792     -0.507171988     -0.517000020       615.704224       1.65636337    
  -2.59967995       0.00000000     -0.517000020       615.704224       1.65636337    
  -1.87709999       0.00000000     -0.606999993       615.704224       1.65636337    
  -1.87709999       0.00000000     -0.606999993       836.369507       1.60811698    
  -1.36500001       0.00000000     -0.606999993       836.369507       1.60811698    
  -1.33877206     -0.266297996     -0.606999993       836.369507       1.60811698    
  -1.84103203     -0.366203994     -0.606999993       836.369507       1.60811698    
  -1.87709999       0.00000000     -0.606999993       616.810669       1.65626323    
  -2.59967995       0.00000000     -0.517000020       616.810669       1.65626323    
  -2.54972792      0.507171988     -0.517000020       616.810669       1.65626323    
  -1.84103203      0.366203994     -0.606999993       616.810669       1.65626323    
  -1.84103203      0.366203994     -0.606999993       837.808411       1.60808790    
  -1.33877206      0.266297996     -0.606999993       837.808411       1.60808790    
  -1.36500001       0.00000000     -0.606999993       837.808411       1.60808790    
  -1.87709999       0.00000000     -0.606999993       837.808411       1.60808790    
  -1.84103203      0.366203994     -0.606999993       591.704102       1.65629447    
  -2.54972792      0.507171988     -0.517000020       591.704102       1.65629447    
  -2.40179110      0.994853973     -0.517000020       591.704102       1.65629447    
  -1.73421395      0.718334973     -0.606999993       591.704102       1.65629447    
  -1.73421395      0.718334973     -0.606999993       805.266052       1.60802388    
  -1.26109600      0.522363007     -0.606999993       805.266052       1.60802388    
  -1.33877206      0.266297996     -0.606999993       805.266052       1.60802388    
  -1.84103203      0.366203994     -0.606999993       805.266052       1.60802388    
  -1.73421395      0.718334973     -0.606999993       542.251526       1.65643656    
  -2.40179110      0.994853973     -0.517000020       542.251526       1.65643656    
  -2.16155505       1.44430494     -0.517000020       542.251526       1.65643656    
  -1.56075203       1.04286098     -0.606999993       542.251526       1.65643656    
  -1.56075203       1.04286098     -0.606999993       741.131958       1.60794282    
  -1.13495600      0.758352995     -0.606999993       741.131958       1.60794282    
  -1.26109600      0.522363007     -0.606999993       741.131958       1.60794282    
  -1.73421395      0.718334973     -0.606999993       741.131958       1.60794282    
  -1.56075203       1.04286098     -0.606999993       473.094727       1.65655363    
  -2.16155505       1.44430494     -0.517000020       473.094727       1.65655363    
  -1.83825099       1.83825099     -0.517000020       473.094727       1.65655363    
  -1.32730997       1.32730997     -0.606999993       473.094727       1.65655363    
  -1.32730997       1.32730997     -0.606999993       649.656067       1.60787582    
 -0.965201020      0.965201020     -0.606999993       649.656067       1.60787582    
  -1.13495600      0.758352995     -0.606999993       649.656067       1.60787582    
  -1.56075203       1.04286098     -0.606999993       649.656067       1.60787582    
  -1.32730997       1.32730997     -0.606999993       390.180511       1.65631664    
  -1.83825099       1.83825099     -0.517000020       390.180511       1.65631664    
  -1.44430494       2.16155505     -0.517000020       390.180511       1.65631664    
  -1.04286098       1.56075203     -0.606999993       390.180511       1.65631664    
  -1.04286098       1.56075203     -0.606999993       535.629333       1.60784268    
 -0.758352995       1.13495600     -0.606999993       535.629333       1.60784268    
 -0.965201020      0.965201020     -0.606999993       535.629333       1.60784268    
  -1.32730997       1.32730997     -0.606999993       535.629333       1.60784268    
  -1.04286098       1.56075203     -0.606999993       295.593109       1.65552163    
  -1.44430494       2.16155505     -0.517000020       295.593109       1.65552163    
 -0.994853973       2.40179110     -0.517000020       295.593109       1.65552163    
 -0.718334973       1.73421395     -0.606999993       295.593109       1.65552163    
 -0.718334973       1.73421395     -0.606999993       402.275909       1.60783350    
 -0.522363007       1.26109600     -0.606999993       402.275909       1.60783350    
 -0.758352995       1.13495600     -0.606999993       402.275909       1.60783350    
  -1.04286098       1.56075203     -0.606999993       402.275909       1.60783350    
 -0.718334973       1.73421395     -0.606999993       187.914261       1.65414274    
 -0.994853973       2.40179110     -0.517000020       187.914261       1.65414274    
 -0.507171988       2.54972792     -0.517000020       187.914261       1.65414274    
 -0.366203994       1.84103203     -0.606999993       187.914261       1.65414274    
 -0.366203994       1.84103203     -0.606999993       252.284332       1.60773277    
 -0.266297996       1.33877206     -0.606999993       252.284332       1.60773277    
 -0.522363007       1.26109600     -0.606999993       252.284332       1.60773277    
 -0.718334973       1.73421395     -0.606999993       252.284332       1.60773277    
 -0.366203994       1.84103203     -0.606999993       66.8631134       1.65110302    
 -0.507171988       2.54972792     -0.517000020       66.8631134       1.65110302    
   0.00000000       2.59967995     -0.517000020       66.8631134       1.65110302    
   0.00000000       1.87709999     -0.606999993       66.8631134       1.65110302    
   0.00000000       1.87709999     -0.606999993       89.6765060       1.60687292    
   0.00000000       1.36500001     -0.606999993       89.6765060       1.60687292    
 -0.266297996       1.33877206     -0.606999993       89.6765060       1.60687292    
 -0.366203994       1.84103203     -0.606999993       89.6765060       1.60687292    
   0.00000000       1.87709999     -0.606999993       59.8777771      -1.48253024    
   0.00000000       2.59967995     -0.517000020       59.8777771      -1.48253024    
  0.507171988       2.54972792     -0.517000020       59.8777771      -1.48253024    
  0.366203994       1.84103203     -0.606999993       59.8777771      -1.48253024    
  0.366203994       1.84103203     -0.606999993       77.8009949      -1.53164935    
  0.266297996       1.33877206     -0.606999993       77.8009949      -1.53164935    
   0.00000000       1.36500001     -0.606999993       77.8009949      -1.53164935    
   0.00000000       1.87709999     -0.606999993       77.8009949      -1.53164935    
  0.366203994       1.84103203     -0.606999993       181.239044      -1.48482025    
  0.507171988       2.54972792     -0.517000020       181.239044      -1.48482025    
  0.994853973       2.40179110     -0.517000020       181.239044      -1.48482025    
  0.718334973       1.73421395     -0.606999993       181.239044      -1.48482025    
  0.718334973       1.73421395     -0.606999993       240.902771      -1.53286064    
  0.522363007       1.26109600     -0.606999993       240.902771      -1.53286064    
  0.266297996       1.33877206     -0.606999993       240.902771      -1.53286064    
  0.366203994       1.84103203     -0.606999993       240.902771      -1.53286064    
  0.718334973       1.73421395     -0.606999993       289.472198      -1.48452246    
  0.994853973       2.40179110     -0.517000020       289.472198      -1.48452246    
   1.44430494       2.16155505     -0.517000020       289.472198      -1.48452246    
   1.04286098       1.56075203     -0.606999993       289.472198      -1.48452246    
   1.04286098       1.56075203     -0.606999993       391.870514      -1.53319347    
  0.758352995       1.13495600     -0.606999993       391.870514      -1.53319347    
  0.522363007       1.26109600     -0.606999993       391.870514      -1.53319347    
  0.718334973       1.73421395     -0.606999993       391.870514      -1.53319347    
   1.04286098       1.56075203     -0.606999993       384.835297      -1.48423123    
   1.44430494       2.16155505     -0.517000020       384.835297      -1.48423123    
   1.83825099       1.83825099     -0.517000020       384.835297      -1.48423123    
   1.32730997       1.32730997     -0.606999993       384.835297      -1.48423123    
   1.32730997       1.32730997     -0.606999993       526.601807      -1.53337586    
  0.965201020      0.965201020     -0.606999993       526.601807      -1.53337586    
  0.758352995       1.13495600     -0.606999993       526.601807      -1.53337586    
   1.04286098       1.56075203     -0.606999993       526.601807      -1.53337586    
   1.32730997       1.32730997     -0.606999993       468.710571      -1.48430562    
   1.83825099       1.83825099     -0.517000020       468.710571      -1.48430562    
   2.16155505       1.44430494     -0.517000020       468.710571      -1.48430562    
   1.56075203       1.04286098     -0.606999993       468.710571      -1.48430562    
   1.56075203       1.04286098     -0.606999993       642.329834      -1.53344965    
   1.13495600      0.758352995     -0.606999993       642.329834      -1.53344965    
  0.965201020      0.965201020     -0.606999993       642.329834      -1.53344965    
   1.32730997       1.32730997     -0.606999993       642.329834      -1.53344965    
   1.56075203       1.04286098     -0.606999993       538.962402      -1.48463225    
   2.16155505       1.44430494     -0.517000020       538.962402      -1.48463225    
   2.40179110      0.994853973     -0.517000020       538.962402      -1.48463225    
   1.73421395      0.718334973     -0.606999993       538.962402      -1.48463225    
   1.73421395      0.718334973     -0.606999993       735.582825      -1.53343070    
   1.26109600      0.522363007     -0.606999993       735.582825      -1.53343070    
   1.13495600      0.758352995     -0.606999993       735.582825      -1.53343070    
   1.56075203       1.04286098     -0.606999993       735.582825      -1.53343070    
   1.73421395      0.718334973     -0.606999993       589.604797      -1.48492646    
   2.40179110      0.994853973     -0.517000020       589.604797      -1.48492646    
   2.54972792      0.507171988     -0.517000020       589.604797      -1.48492646    
   1.84103203      0.366203994     -0.606999993       589.604797      -1.48492646    
   1.84103203      0.366203994     -0.606999993       801.683838      -1.53338397    
   1.33877206      0.266297996     -0.606999993       801.683838      -1.53338397    
   1.26109600      0.522363007     -0.606999993       801.683838      -1.53338397    
   1.73421395      0.718334973     -0.606999993       801.683838      -1.53338397    
   1.84103203      0.366203994     -0.606999993       615.972778      -1.48508489    
   2.54972792      0.507171988     -0.517000020       615.972778      -1.48508489    
   2.59967995       0.00000000     -0.517000020       615.972778      -1.48508489    
   1.87709999       0.00000000     -0.606999993       615.972778      -1.48508489    
   1.87709999       0.00000000     -0.606999993       836.369934      -1.53335297    
   1.36500001       0.00000000     -0.606999993       836.369934      -1.53335297    
   1.33877206      0.266297996     -0.606999993       836.369934      -1.53335297    
   1.84103203      0.366203994     -0.606999993       836.369934      -1.53335297    
   1.87709999       0.00000000     -0.606999993       616.161316      -1.48510671    
   2.59967995       0.00000000     -0.517000020       616.161316      -1.48510671    
   2.54972792     -0.507171988     -0.517000020       616.161316      -1.48510671    
   1.84103203     -0.366203994     -0.606999993       616.161316      -1.48510671    
   1.84103203     -0.366203994     -0.606999993       837.130188      -1.53335226    
   1.33877206     -0.266297996     -0.606999993       837.130188      -1.53335226    
   1.36500001       0.00000000     -0.606999993       837.130188      -1.53335226    
   1.87709999       0.00000000     -0.606999993       837.130188      -1.53335226    
   1.84103203     -0.366203994     -0.606999993       590.330566      -1.48500013    
   2.54972792     -0.507171988     -0.517000020       590.330566      -1.48500013    
   2.40179110     -0.994853973     -0.517000020       590.330566      -1.48500013    
   1.73421395     -0.718334973     -0.606999993       590.330566      -1.48500013    
   1.73421395     -0.718334973     -0.606999993       804.137329      -1.53337872    
   1.26109600     -0.522363007     -0.606999993       804.137329      -1.53337872    
   1.33877206     -0.266297996     -0.606999993       804.137329      -1.53337872    
   1.84103203     -0.366203994     -0.606999993       804.137329      -1.53337872    
   1.73421395     -0.718334973     -0.606999993       540.824097      -1.48480189    
   2.40179110     -0.994853973     -0.517000020       540.824097      -1.48480189    
   2.16155505      -1.44430494     -0.517000020       540.824097      -1.48480189    
   1.56075203      -1.04286098     -0.606999993       540.824097      -1.48480189    
   1.56075203      -1.04286098     -0.606999993       740.080200      -1.53340745    
   1.13495600     -0.758352995     -0.606999993       740.080200      -1.53340745    
   1.26109600     -0.522363007     -0.606999993       740.080200      -1.53340745    