 VARIABLES="X" "Y" "Z" "abs(p) (Pa)" "angle(p) (rad)"
ZONE N=   2709,E =    2358, F=FEPOINT, ET=QUADRILATERAL
   0.00000000      -5.48999977     -0.157000005       47.2959709     -0.322201252    
   0.00000000      -4.76741982     -0.246999994       47.2959709     -0.322201252    
  0.930077016      -4.67581606     -0.246999994       47.2959709     -0.322201252    
   1.07104599      -5.38451099     -0.157000005       47.2959709     -0.322201252    
  -1.07104599      -5.38451099     -0.157000005       46.2371407       2.79125524    
 -0.930077016      -4.67581606     -0.246999994       46.2371407       2.79125524    
   0.00000000      -4.76741982     -0.246999994       46.2371407       2.79125524    
   0.00000000      -5.48999977     -0.157000005       46.2371407       2.79125524    
  -2.10093188      -5.07209921     -0.157000005       136.925507       2.80346704    
  -1.82441294      -4.40452194     -0.246999994       136.925507       2.80346704    
 -0.930077016      -4.67581606     -0.246999994       136.925507       2.80346704    
  -1.07104599      -5.38451099     -0.157000005       136.925507       2.80346704    
  -3.05008101      -4.56476784     -0.157000005       223.054504       2.81657004    
  -2.64863706      -3.96396494     -0.246999994       223.054504       2.81657004    
  -1.82441294      -4.40452194     -0.246999994       223.054504       2.81657004    
  -2.10093188      -5.07209921     -0.157000005       223.054504       2.81657004    
  -3.88201594      -3.88201594     -0.157000005       299.699554       2.82071495    
  -3.37107491      -3.37107491     -0.246999994       299.699554       2.82071495    
  -2.64863706      -3.96396494     -0.246999994       299.699554       2.82071495    
  -3.05008101      -4.56476784     -0.157000005       299.699554       2.82071495    
  -4.56476784      -3.05008101     -0.157000005       363.136108       2.81809711    
  -3.96396494      -2.64863706     -0.246999994       363.136108       2.81809711    
  -3.37107491      -3.37107491     -0.246999994       363.136108       2.81809711    
  -3.88201594      -3.88201594     -0.157000005       363.136108       2.81809711    
  -5.07209921      -2.10093188     -0.157000005       417.517456       2.81947923    
  -4.40452194      -1.82441294     -0.246999994       417.517456       2.81947923    
  -3.96396494      -2.64863706     -0.246999994       417.517456       2.81947923    
  -4.56476784      -3.05008101     -0.157000005       417.517456       2.81947923    
  -5.38451099      -1.07104599     -0.157000005       454.166504       2.81781840    
  -4.67581606     -0.930077016     -0.246999994       454.166504       2.81781840    
  -4.40452194      -1.82441294     -0.246999994       454.166504       2.81781840    
  -5.07209921      -2.10093188     -0.157000005       454.166504       2.81781840    
  -5.48999977       0.00000000     -0.157000005       470.070435       2.81465244    
  -4.76741982       0.00000000     -0.246999994       470.070435       2.81465244    
  -4.67581606     -0.930077016     -0.246999994       470.070435       2.81465244    
  -5.38451099      -1.07104599     -0.157000005       470.070435       2.81465244    
  -5.38451099       1.07104599     -0.157000005       470.234863       2.81351709    
  -4.67581606      0.930077016     -0.246999994       470.234863       2.81351709    
  -4.76741982       0.00000000     -0.246999994       470.234863       2.81351709    
  -5.48999977       0.00000000     -0.157000005       470.234863       2.81351709    
  -5.07209921       2.10093188     -0.157000005       452.757416       2.81242728    
  -4.40452194       1.82441294     -0.246999994       452.757416       2.81242728    
  -4.67581606      0.930077016     -0.246999994       452.757416       2.81242728    
  -5.38451099       1.07104599     -0.157000005       452.757416       2.81242728    
  -4.56476784       3.05008101     -0.157000005       417.598053       2.81396770    
  -3.96396494       2.64863706     -0.246999994       417.598053       2.81396770    
  -4.40452194       1.82441294     -0.246999994       417.598053       2.81396770    
  -5.07209921       2.10093188     -0.157000005       417.598053       2.81396770    
  -3.88201594       3.88201594     -0.157000005       367.942108       2.81878519    
  -3.37107491       3.37107491     -0.246999994       367.942108       2.81878519    
  -3.96396494       2.64863706     -0.246999994       367.942108       2.81878519    
  -4.56476784       3.05008101     -0.157000005       367.942108       2.81878519    
  -3.05008101       4.56476784     -0.157000005       300.747559       2.81778550    
  -2.64863706       3.96396494     -0.246999994       300.747559       2.81778550    
  -3.37107491       3.37107491     -0.246999994       300.747559       2.81778550    
  -3.88201594       3.88201594     -0.157000005       300.747559       2.81778550    
  -2.10093188       5.07209921     -0.157000005       224.837433       2.81850290    
  -1.82441294       4.40452194     -0.246999994       224.837433       2.81850290    
  -2.64863706       3.96396494     -0.246999994       224.837433       2.81850290    
  -3.05008101       4.56476784     -0.157000005       224.837433       2.81850290    
  -1.07104599       5.38451099     -0.157000005       138.511734       2.81114793    
 -0.930077016       4.67581606     -0.246999994       138.511734       2.81114793    
  -1.82441294       4.40452194     -0.246999994       138.511734       2.81114793    
  -2.10093188       5.07209921     -0.157000005       138.511734       2.81114793    
   0.00000000       5.48999977     -0.157000005       47.4019394       2.81599069    
   0.00000000       4.76741982     -0.246999994       47.4019394       2.81599069    
 -0.930077016       4.67581606     -0.246999994       47.4019394       2.81599069    
  -1.07104599       5.38451099     -0.157000005       47.4019394       2.81599069    
   1.07104599       5.38451099     -0.157000005       46.1122856     -0.352981657    
  0.930077016       4.67581606     -0.246999994       46.1122856     -0.352981657    
   0.00000000       4.76741982     -0.246999994       46.1122856     -0.352981657    
   0.00000000       5.48999977     -0.157000005       46.1122856     -0.352981657    
   2.10093188       5.07209921     -0.157000005       138.110229     -0.335943460    
   1.82441294       4.40452194     -0.246999994       138.110229     -0.335943460    
  0.930077016       4.67581606     -0.246999994       138.110229     -0.335943460    
   1.07104599       5.38451099     -0.157000005       138.110229     -0.335943460    
   3.05008101       4.56476784     -0.157000005       223.716995     -0.327730298    
   2.64863706       3.96396494     -0.246999994       223.716995     -0.327730298    
   1.82441294       4.40452194     -0.246999994       223.716995     -0.327730298    
   2.10093188       5.07209921     -0.157000005       223.716995     -0.327730298    
   3.88201594       3.88201594     -0.157000005       299.038361     -0.328026533    
   3.37107491       3.37107491     -0.246999994       299.038361     -0.328026533    
   2.64863706       3.96396494     -0.246999994       299.038361     -0.328026533    
   3.05008101       4.56476784     -0.157000005       299.038361     -0.328026533    
   4.56476784       3.05008101     -0.157000005       364.952667     -0.327598363    
   3.96396494       2.64863706     -0.246999994       364.952667     -0.327598363    
   3.37107491       3.37107491     -0.246999994       364.952667     -0.327598363    
   3.88201594       3.88201594     -0.157000005       364.952667     -0.327598363    
   5.07209921       2.10093188     -0.157000005       416.360596     -0.329516292    
   4.40452194       1.82441294     -0.246999994       416.360596     -0.329516292    
   3.96396494       2.64863706     -0.246999994       416.360596     -0.329516292    
   4.56476784       3.05008101     -0.157000005       416.360596     -0.329516292    
   5.38451099       1.07104599     -0.157000005       455.161957     -0.326683789    
   4.67581606      0.930077016     -0.246999994       455.161957     -0.326683789    
   4.40452194       1.82441294     -0.246999994       455.161957     -0.326683789    
   5.07209921       2.10093188     -0.157000005       455.161957     -0.326683789    
   5.48999977       0.00000000     -0.157000005       473.731812     -0.324322999    
   4.76741982       0.00000000     -0.246999994       473.731812     -0.324322999    
   4.67581606      0.930077016     -0.246999994       473.731812     -0.324322999    
   5.38451099       1.07104599     -0.157000005       473.731812     -0.324322999    
   5.38451099      -1.07104599     -0.157000005       473.661957     -0.322850108    
   4.67581606     -0.930077016     -0.246999994       473.661957     -0.322850108    
   4.76741982       0.00000000     -0.246999994       473.661957     -0.322850108    
   5.48999977       0.00000000     -0.157000005       473.661957     -0.322850108    
   5.07209921      -2.10093188     -0.157000005       455.392487     -0.321952432    
   4.40452194      -1.82441294     -0.246999994       455.392487     -0.321952432    
   4.67581606     -0.930077016     -0.246999994       455.392487     -0.321952432    
   5.38451099      -1.07104599     -0.157000005       455.392487     -0.321952432    
   4.56476784      -3.05008101     -0.157000005       419.262390     -0.319285721    
   3.96396494      -2.64863706     -0.246999994       419.262390     -0.319285721    
   4.40452194      -1.82441294     -0.246999994       419.262390     -0.319285721    
   5.07209921      -2.10093188     -0.157000005       419.262390     -0.319285721    
   3.88201594      -3.88201594     -0.157000005       366.978973     -0.317056388    
   3.37107491      -3.37107491     -0.246999994       366.978973     -0.317056388    
   3.96396494      -2.64863706     -0.246999994       366.978973     -0.317056388    
   4.56476784      -3.05008101     -0.157000005       366.978973     -0.317056388    
   3.05008101      -4.56476784     -0.157000005       299.593781     -0.319161624    
   2.64863706      -3.96396494     -0.246999994       299.593781     -0.319161624    
   3.37107491      -3.37107491     -0.246999994       299.593781     -0.319161624    
   3.88201594      -3.88201594     -0.157000005       299.593781     -0.319161624    
   2.10093188      -5.07209921     -0.157000005       224.084290     -0.319691896    
   1.82441294      -4.40452194     -0.246999994       224.084290     -0.319691896    
   2.64863706      -3.96396494     -0.246999994       224.084290     -0.319691896    
   3.05008101      -4.56476784     -0.157000005       224.084290     -0.319691896    
   1.07104599      -5.38451099     -0.157000005       138.785629     -0.325618386    
  0.930077016      -4.67581606     -0.246999994       138.785629     -0.325618386    
   1.82441294      -4.40452194     -0.246999994       138.785629     -0.325618386    
   2.10093188      -5.07209921     -0.157000005       138.785629     -0.325618386    
   0.00000000      -1.87709999     -0.606999993       128.436905      -1.48663938    
   0.00000000      -1.36500001     -0.606999993       128.436905      -1.48663938    
  0.266297996      -1.33877206     -0.606999993       128.436905      -1.48663938    
  0.366203994      -1.84103203     -0.606999993       128.436905      -1.48663938    
   0.00000000      -1.87709999     -0.606999993       77.5100708       1.75161779    
   0.00000000      -2.59967995     -0.517000020       77.5100708       1.75161779    
 -0.507171988      -2.54972792     -0.517000020       77.5100708       1.75161779    
 -0.366203994      -1.84103203     -0.606999993       77.5100708       1.75161779    
 -0.366203994      -1.84103203     -0.606999993       116.842270       1.65276539    
 -0.266297996      -1.33877206     -0.606999993       116.842270       1.65276539    
   0.00000000      -1.36500001     -0.606999993       116.842270       1.65276539    
   0.00000000      -1.87709999     -0.606999993       116.842270       1.65276539    
 -0.366203994      -1.84103203     -0.606999993       231.391037       1.75195634    
 -0.507171988      -2.54972792     -0.517000020       231.391037       1.75195634    
 -0.994853973      -2.40179110     -0.517000020       231.391037       1.75195634    
 -0.718334973      -1.73421395     -0.606999993       231.391037       1.75195634    
 -0.718334973      -1.73421395     -0.606999993       355.158783       1.65359473    
 -0.522363007      -1.26109600     -0.606999993       355.158783       1.65359473    
 -0.266297996      -1.33877206     -0.606999993       355.158783       1.65359473    
 -0.366203994      -1.84103203     -0.606999993       355.158783       1.65359473    
 -0.718334973      -1.73421395     -0.606999993       365.875885       1.75509286    
 -0.994853973      -2.40179110     -0.517000020       365.875885       1.75509286    
  -1.44430494      -2.16155505     -0.517000020       365.875885       1.75509286    
  -1.04286098      -1.56075203     -0.606999993       365.875885       1.75509286    
  -1.04286098      -1.56075203     -0.606999993       574.488953       1.65383518    
 -0.758352995      -1.13495600     -0.606999993       574.488953       1.65383518    
 -0.522363007      -1.26109600     -0.606999993       574.488953       1.65383518    
 -0.718334973      -1.73421395     -0.606999993       574.488953       1.65383518    
  -1.04286098      -1.56075203     -0.606999993       482.184235       1.75759447    
  -1.44430494      -2.16155505     -0.517000020       482.184235       1.75759447    
  -1.83825099      -1.83825099     -0.517000020       482.184235       1.75759447    
  -1.32730997      -1.32730997     -0.606999993       482.184235       1.75759447    
  -1.32730997      -1.32730997     -0.606999993       768.863342       1.65400875    
 -0.965201020     -0.965201020     -0.606999993       768.863342       1.65400875    
 -0.758352995      -1.13495600     -0.606999993       768.863342       1.65400875    
  -1.04286098      -1.56075203     -0.606999993       768.863342       1.65400875    
  -1.32730997      -1.32730997     -0.606999993       584.133911       1.75846624    
  -1.83825099      -1.83825099     -0.517000020       584.133911       1.75846624    
  -2.16155505      -1.44430494     -0.517000020       584.133911       1.75846624    
  -1.56075203      -1.04286098     -0.606999993       584.133911       1.75846624    
  -1.56075203      -1.04286098     -0.606999993       935.176697       1.65411508    
  -1.13495600     -0.758352995     -0.606999993       935.176697       1.65411508    
 -0.965201020     -0.965201020     -0.606999993       935.176697       1.65411508    
  -1.32730997      -1.32730997     -0.606999993       935.176697       1.65411508    
  -1.56075203      -1.04286098     -0.606999993       671.042847       1.75781405    
  -2.16155505      -1.44430494     -0.517000020       671.042847       1.75781405    
  -2.40179110     -0.994853973     -0.517000020       671.042847       1.75781405    
  -1.73421395     -0.718334973     -0.606999993       671.042847       1.75781405    
  -1.73421395     -0.718334973     -0.606999993       1069.80432       1.65411580    
  -1.26109600     -0.522363007     -0.606999993       1069.80432       1.65411580    
  -1.13495600     -0.758352995     -0.606999993       1069.80432       1.65411580    
  -1.56075203      -1.04286098     -0.606999993       1069.80432       1.65411580    
  -1.73421395     -0.718334973     -0.606999993       735.456116       1.75668752    
  -2.40179110     -0.994853973     -0.517000020       735.456116       1.75668752    
  -2.54972792     -0.507171988     -0.517000020       735.456116       1.75668752    
  -1.84103203     -0.366203994     -0.606999993       735.456116       1.75668752    
  -1.84103203     -0.366203994     -0.606999993       1165.98975       1.65406311    
  -1.33877206     -0.266297996     -0.606999993       1165.98975       1.65406311    
  -1.26109600     -0.522363007     -0.606999993       1165.98975       1.65406311    
  -1.73421395     -0.718334973     -0.606999993       1165.98975       1.65406311    
  -1.84103203     -0.366203994     -0.606999993       770.226196       1.75585067    
  -2.54972792     -0.507171988     -0.517000020       770.226196       1.75585067    
  -2.59967995       0.00000000     -0.517000020       770.226196       1.75585067    
  -1.87709999       0.00000000     -0.606999993       770.226196       1.75585067    
  -1.87709999       0.00000000     -0.606999993       1217.04114       1.65400946    
  -1.36500001       0.00000000     -0.606999993       1217.04114       1.65400946    
  -1.33877206     -0.266297996     -0.606999993       1217.04114       1.65400946    
  -1.84103203     -0.366203994     -0.606999993       1217.04114       1.65400946    
  -1.87709999       0.00000000     -0.606999993       771.592529       1.75568461    
  -2.59967995       0.00000000     -0.517000020       771.592529       1.75568461    
  -2.54972792      0.507171988     -0.517000020       771.592529       1.75568461    
  -1.84103203      0.366203994     -0.606999993       771.592529       1.75568461    
  -1.84103203      0.366203994     -0.606999993       1218.71509       1.65399528    
  -1.33877206      0.266297996     -0.606999993       1218.71509       1.65399528    
  -1.36500001       0.00000000     -0.606999993       1218.71509       1.65399528    
  -1.87709999       0.00000000     -0.606999993       1218.71509       1.65399528    
  -1.84103203      0.366203994     -0.606999993       739.193481       1.75624061    
  -2.54972792      0.507171988     -0.517000020       739.193481       1.75624061    
  -2.40179110      0.994853973     -0.517000020       739.193481       1.75624061    
  -1.73421395      0.718334973     -0.606999993       739.193481       1.75624061    
  -1.73421395      0.718334973     -0.606999993       1170.66125       1.65402460    
  -1.26109600      0.522363007     -0.606999993       1170.66125       1.65402460    
  -1.33877206      0.266297996     -0.606999993       1170.66125       1.65402460    
  -1.84103203      0.366203994     -0.606999993       1170.66125       1.65402460    
  -1.73421395      0.718334973     -0.606999993       675.979187       1.75724518    
  -2.40179110      0.994853973     -0.517000020       675.979187       1.75724518    
  -2.16155505       1.44430494     -0.517000020       675.979187       1.75724518    
  -1.56075203       1.04286098     -0.606999993       675.979187       1.75724518    
  -1.56075203       1.04286098     -0.606999993       1076.63953       1.65406168    
  -1.13495600      0.758352995     -0.606999993       1076.63953       1.65406168    
  -1.26109600      0.522363007     -0.606999993       1076.63953       1.65406168    
  -1.73421395      0.718334973     -0.606999993       1076.63953       1.65406168    
  -1.56075203       1.04286098     -0.606999993       588.813782       1.75796151    
  -2.16155505       1.44430494     -0.517000020       588.813782       1.75796151    
  -1.83825099       1.83825099     -0.517000020       588.813782       1.75796151    
  -1.32730997       1.32730997     -0.606999993       588.813782       1.75796151    
  -1.32730997       1.32730997     -0.606999993       943.148315       1.65406215    
 -0.965201020      0.965201020     -0.606999993       943.148315       1.65406215    
  -1.13495600      0.758352995     -0.606999993       943.148315       1.65406215    
  -1.56075203       1.04286098     -0.606999993       943.148315       1.65406215    
  -1.32730997       1.32730997     -0.606999993       486.002747       1.75720680    
  -1.83825099       1.83825099     -0.517000020       486.002747       1.75720680    
  -1.44430494       2.16155505     -0.517000020       486.002747       1.75720680    
  -1.04286098       1.56075203     -0.606999993       486.002747       1.75720680    
  -1.04286098       1.56075203     -0.606999993       777.273315       1.65398586    
 -0.758352995       1.13495600     -0.606999993       777.273315       1.65398586    
 -0.965201020      0.965201020     -0.606999993       777.273315       1.65398586    
  -1.32730997       1.32730997     -0.606999993       777.273315       1.65398586    
  -1.04286098       1.56075203     -0.606999993       369.509186       1.75459766    
  -1.44430494       2.16155505     -0.517000020       369.509186       1.75459766    
 -0.994853973       2.40179110     -0.517000020       369.509186       1.75459766    
 -0.718334973       1.73421395     -0.606999993       369.509186       1.75459766    
 -0.718334973       1.73421395     -0.606999993       583.441833       1.65386438    
 -0.522363007       1.26109600     -0.606999993       583.441833       1.65386438    
 -0.758352995       1.13495600     -0.606999993       583.441833       1.65386438    
  -1.04286098       1.56075203     -0.606999993       583.441833       1.65386438    
 -0.718334973       1.73421395     -0.606999993       235.976471       1.75069022    
 -0.994853973       2.40179110     -0.517000020       235.976471       1.75069022    
 -0.507171988       2.54972792     -0.517000020       235.976471       1.75069022    
 -0.366203994       1.84103203     -0.606999993       235.976471       1.75069022    
 -0.366203994       1.84103203     -0.606999993       365.253357       1.65367675    
 -0.266297996       1.33877206     -0.606999993       365.253357       1.65367675    
 -0.522363007       1.26109600     -0.606999993       365.253357       1.65367675    
 -0.718334973       1.73421395     -0.606999993       365.253357       1.65367675    
 -0.366203994       1.84103203     -0.606999993       83.8071671       1.74569881    
 -0.507171988       2.54972792     -0.517000020       83.8071671       1.74569881    
   0.00000000       2.59967995     -0.517000020       83.8071671       1.74569881    
   0.00000000       1.87709999     -0.606999993       83.8071671       1.74569881    
   0.00000000       1.87709999     -0.606999993       128.382034       1.65327454    
   0.00000000       1.36500001     -0.606999993       128.382034       1.65327454    
 -0.266297996       1.33877206     -0.606999993       128.382034       1.65327454    
 -0.366203994       1.84103203     -0.606999993       128.382034       1.65327454    
   0.00000000       1.87709999     -0.606999993       76.3685455      -1.38657439    
   0.00000000       2.59967995     -0.517000020       76.3685455      -1.38657439    
  0.507171988       2.54972792     -0.517000020       76.3685455      -1.38657439    
  0.366203994       1.84103203     -0.606999993       76.3685455      -1.38657439    
  0.366203994       1.84103203     -0.606999993       115.656349      -1.48709691    
  0.266297996       1.33877206     -0.606999993       115.656349      -1.48709691    
   0.00000000       1.36500001     -0.606999993       115.656349      -1.48709691    
   0.00000000       1.87709999     -0.606999993       115.656349      -1.48709691    
  0.366203994       1.84103203     -0.606999993       228.889145      -1.38780665    
  0.507171988       2.54972792     -0.517000020       228.889145      -1.38780665    
  0.994853973       2.40179110     -0.517000020       228.889145      -1.38780665    
  0.718334973       1.73421395     -0.606999993       228.889145      -1.38780665    
  0.718334973       1.73421395     -0.606999993       353.075562      -1.48748255    
  0.522363007       1.26109600     -0.606999993       353.075562      -1.48748255    
  0.266297996       1.33877206     -0.606999993       353.075562      -1.48748255    
  0.366203994       1.84103203     -0.606999993       353.075562      -1.48748255    
  0.718334973       1.73421395     -0.606999993       363.028229      -1.38514674    
  0.994853973       2.40179110     -0.517000020       363.028229      -1.38514674    
   1.44430494       2.16155505     -0.517000020       363.028229      -1.38514674    
   1.04286098       1.56075203     -0.606999993       363.028229      -1.38514674    
   1.04286098       1.56075203     -0.606999993       572.361755      -1.48747528    
  0.758352995       1.13495600     -0.606999993       572.361755      -1.48747528    
  0.522363007       1.26109600     -0.606999993       572.361755      -1.48747528    
  0.718334973       1.73421395     -0.606999993       572.361755      -1.48747528    
   1.04286098       1.56075203     -0.606999993       480.359772      -1.38311768    
   1.44430494       2.16155505     -0.517000020       480.359772      -1.38311768    
   1.83825099       1.83825099     -0.517000020       480.359772      -1.38311768    
   1.32730997       1.32730997     -0.606999993       480.359772      -1.38311768    
   1.32730997       1.32730997     -0.606999993       767.712830      -1.48741257    
  0.965201020      0.965201020     -0.606999993       767.712830      -1.48741257    
  0.758352995       1.13495600     -0.606999993       767.712830      -1.48741257    
   1.04286098       1.56075203     -0.606999993       767.712830      -1.48741257    
   1.32730997       1.32730997     -0.606999993       584.191589      -1.38270473    
   1.83825099       1.83825099     -0.517000020       584.191589      -1.38270473    
   2.16155505       1.44430494     -0.517000020       584.191589      -1.38270473    
   1.56075203       1.04286098     -0.606999993       584.191589      -1.38270473    
   1.56075203       1.04286098     -0.606999993       935.445251      -1.48735297    
   1.13495600      0.758352995     -0.606999993       935.445251      -1.48735297    
  0.965201020      0.965201020     -0.606999993       935.445251      -1.48735297    
   1.32730997       1.32730997     -0.606999993       935.445251      -1.48735297    
   1.56075203       1.04286098     -0.606999993       672.477173      -1.38361657    
   2.16155505       1.44430494     -0.517000020       672.477173      -1.38361657    
   2.40179110      0.994853973     -0.517000020       672.477173      -1.38361657    
   1.73421395      0.718334973     -0.606999993       672.477173      -1.38361657    
   1.73421395      0.718334973     -0.606999993       1070.72620      -1.48731816    
   1.26109600      0.522363007     -0.606999993       1070.72620      -1.48731816    
   1.13495600      0.758352995     -0.606999993       1070.72620      -1.48731816    
   1.56075203       1.04286098     -0.606999993       1070.72620      -1.48731816    
   1.73421395      0.718334973     -0.606999993       736.891174      -1.38473547    
   2.40179110      0.994853973     -0.517000020       736.891174      -1.38473547    
   2.54972792      0.507171988     -0.517000020       736.891174      -1.38473547    
   1.84103203      0.366203994     -0.606999993       736.891174      -1.38473547    
   1.84103203      0.366203994     -0.606999993       1166.72522      -1.48732197    
   1.33877206      0.266297996     -0.606999993       1166.72522      -1.48732197    
   1.26109600      0.522363007     -0.606999993       1166.72522      -1.48732197    
   1.73421395      0.718334973     -0.606999993       1166.72522      -1.48732197    
   1.84103203      0.366203994     -0.606999993       770.563965      -1.38538861    
   2.54972792      0.507171988     -0.517000020       770.563965      -1.38538861    
   2.59967995       0.00000000     -0.517000020       770.563965      -1.38538861    
   1.87709999       0.00000000     -0.606999993       770.563965      -1.38538861    
   1.87709999       0.00000000     -0.606999993       1216.97229      -1.48733044    
   1.36500001       0.00000000     -0.606999993       1216.97229      -1.48733044    
   1.33877206      0.266297996     -0.606999993       1216.97229      -1.48733044    
   1.84103203      0.366203994     -0.606999993       1216.97229      -1.48733044    
   1.87709999       0.00000000     -0.606999993       770.518127      -1.38533211    
   2.59967995       0.00000000     -0.517000020       770.518127      -1.38533211    
   2.54972792     -0.507171988     -0.517000020       770.518127      -1.38533211    
   1.84103203     -0.366203994     -0.606999993       770.518127      -1.38533211    
   1.84103203     -0.366203994     -0.606999993       1217.56909      -1.48729956    
   1.33877206     -0.266297996     -0.606999993       1217.56909      -1.48729956    
   1.36500001       0.00000000     -0.606999993       1217.56909      -1.48729956    
   1.87709999       0.00000000     -0.606999993       1217.56909      -1.48729956    
   1.84103203     -0.366203994     -0.606999993       737.065552      -1.38463259    
   2.54972792     -0.507171988     -0.517000020       737.065552      -1.38463259    
   2.40179110     -0.994853973     -0.517000020       737.065552      -1.38463259    
   1.73421395     -0.718334973     -0.606999993       737.065552      -1.38463259    
   1.73421395     -0.718334973     -0.606999993       1168.83032      -1.48723781    
   1.26109600     -0.522363007     -0.606999993       1168.83032      -1.48723781    
   1.33877206     -0.266297996     -0.606999993       1168.83032      -1.48723781    
   1.84103203     -0.366203994     -0.606999993       1168.83032      -1.48723781    
   1.73421395     -0.718334973     -0.606999993       673.903503      -1.38367641    
   2.40179110     -0.994853973     -0.517000020       673.903503      -1.38367641    
   2.16155505      -1.44430494     -0.517000020       673.903503      -1.38367641    
   1.56075203      -1.04286098     -0.606999993       673.903503      -1.38367641    
   1.56075203      -1.04286098     -0.606999993       1074.99011      -1.48718619    
   1.13495600     -0.758352995     -0.606999993       1074.99011      -1.48718619    
   1.26109600     -0.522363007     -0.606999993       1074.99011      -1.48718619    