 VARIABLES="X" "Y" "Z" "abs(p) (Pa)" "angle(p) (rad)"
ZONE N=   2709,E =    2358, F=FEPOINT, ET=QUADRILATERAL
   0.00000000      -5.48999977     -0.157000005       2.45197964      -1.63373315    
   0.00000000      -4.76741982     -0.246999994       2.45197964      -1.63373315    
  0.930077016      -4.67581606     -0.246999994       2.45197964      -1.63373315    
   1.07104599      -5.38451099     -0.157000005       2.45197964      -1.63373315    
  -1.07104599      -5.38451099     -0.157000005       2.39137602       1.53128982    
 -0.930077016      -4.67581606     -0.246999994       2.39137602       1.53128982    
   0.00000000      -4.76741982     -0.246999994       2.39137602       1.53128982    
   0.00000000      -5.48999977     -0.157000005       2.39137602       1.53128982    
  -2.10093188      -5.07209921     -0.157000005       5.00572586       1.49314106    
  -1.82441294      -4.40452194     -0.246999994       5.00572586       1.49314106    
 -0.930077016      -4.67581606     -0.246999994       5.00572586       1.49314106    
  -1.07104599      -5.38451099     -0.157000005       5.00572586       1.49314106    
  -3.05008101      -4.56476784     -0.157000005       3.43800807       1.33266807    
  -2.64863706      -3.96396494     -0.246999994       3.43800807       1.33266807    
  -1.82441294      -4.40452194     -0.246999994       3.43800807       1.33266807    
  -2.10093188      -5.07209921     -0.157000005       3.43800807       1.33266807    
  -3.88201594      -3.88201594     -0.157000005       1.44911397     -0.349076241    
  -3.37107491      -3.37107491     -0.246999994       1.44911397     -0.349076241    
  -2.64863706      -3.96396494     -0.246999994       1.44911397     -0.349076241    
  -3.05008101      -4.56476784     -0.157000005       1.44911397     -0.349076241    
  -4.56476784      -3.05008101     -0.157000005       3.64871430      -1.00316393    
  -3.96396494      -2.64863706     -0.246999994       3.64871430      -1.00316393    
  -3.37107491      -3.37107491     -0.246999994       3.64871430      -1.00316393    
  -3.88201594      -3.88201594     -0.157000005       3.64871430      -1.00316393    
  -5.07209921      -2.10093188     -0.157000005       3.75117850     -0.824460506    
  -4.40452194      -1.82441294     -0.246999994       3.75117850     -0.824460506    
  -3.96396494      -2.64863706     -0.246999994       3.75117850     -0.824460506    
  -4.56476784      -3.05008101     -0.157000005       3.75117850     -0.824460506    
  -5.38451099      -1.07104599     -0.157000005       3.31588840     -0.490557939    
  -4.67581606     -0.930077016     -0.246999994       3.31588840     -0.490557939    
  -4.40452194      -1.82441294     -0.246999994       3.31588840     -0.490557939    
  -5.07209921      -2.10093188     -0.157000005       3.31588840     -0.490557939    
  -5.48999977       0.00000000     -0.157000005       3.51422858     -0.556070864    
  -4.76741982       0.00000000     -0.246999994       3.51422858     -0.556070864    
  -4.67581606     -0.930077016     -0.246999994       3.51422858     -0.556070864    
  -5.38451099      -1.07104599     -0.157000005       3.51422858     -0.556070864    
  -5.38451099       1.07104599     -0.157000005       4.09909916     -0.828568995    
  -4.67581606      0.930077016     -0.246999994       4.09909916     -0.828568995    
  -4.76741982       0.00000000     -0.246999994       4.09909916     -0.828568995    
  -5.48999977       0.00000000     -0.157000005       4.09909916     -0.828568995    
  -5.07209921       2.10093188     -0.157000005       3.61148572     -0.875052571    
  -4.40452194       1.82441294     -0.246999994       3.61148572     -0.875052571    
  -4.67581606      0.930077016     -0.246999994       3.61148572     -0.875052571    
  -5.38451099       1.07104599     -0.157000005       3.61148572     -0.875052571    
  -4.56476784       3.05008101     -0.157000005       1.72424793       3.84674147E-02
  -3.96396494       2.64863706     -0.246999994       1.72424793       3.84674147E-02
  -4.40452194       1.82441294     -0.246999994       1.72424793       3.84674147E-02
  -5.07209921       2.10093188     -0.157000005       1.72424793       3.84674147E-02
  -3.88201594       3.88201594     -0.157000005       3.26823831       1.21785712    
  -3.37107491       3.37107491     -0.246999994       3.26823831       1.21785712    
  -3.96396494       2.64863706     -0.246999994       3.26823831       1.21785712    
  -4.56476784       3.05008101     -0.157000005       3.26823831       1.21785712    
  -3.05008101       4.56476784     -0.157000005       3.32538366       1.38298523    
  -2.64863706       3.96396494     -0.246999994       3.32538366       1.38298523    
  -3.37107491       3.37107491     -0.246999994       3.32538366       1.38298523    
  -3.88201594       3.88201594     -0.157000005       3.32538366       1.38298523    
  -2.10093188       5.07209921     -0.157000005      0.379290372      0.726037800    
  -1.82441294       4.40452194     -0.246999994      0.379290372      0.726037800    
  -2.64863706       3.96396494     -0.246999994      0.379290372      0.726037800    
  -3.05008101       4.56476784     -0.157000005      0.379290372      0.726037800    
  -1.07104599       5.38451099     -0.157000005       2.26645041      -1.51889718    
 -0.930077016       4.67581606     -0.246999994       2.26645041      -1.51889718    
  -1.82441294       4.40452194     -0.246999994       2.26645041      -1.51889718    
  -2.10093188       5.07209921     -0.157000005       2.26645041      -1.51889718    
   0.00000000       5.48999977     -0.157000005       1.27087486      -1.50857663    
   0.00000000       4.76741982     -0.246999994       1.27087486      -1.50857663    
 -0.930077016       4.67581606     -0.246999994       1.27087486      -1.50857663    
  -1.07104599       5.38451099     -0.157000005       1.27087486      -1.50857663    
   1.07104599       5.38451099     -0.157000005       1.27765965       1.50309455    
  0.930077016       4.67581606     -0.246999994       1.27765965       1.50309455    
   0.00000000       4.76741982     -0.246999994       1.27765965       1.50309455    
   0.00000000       5.48999977     -0.157000005       1.27765965       1.50309455    
   2.10093188       5.07209921     -0.157000005       2.23292089       1.54792094    
   1.82441294       4.40452194     -0.246999994       2.23292089       1.54792094    
  0.930077016       4.67581606     -0.246999994       2.23292089       1.54792094    
   1.07104599       5.38451099     -0.157000005       2.23292089       1.54792094    
   3.05008101       4.56476784     -0.157000005      0.329598308      -1.92169869    
   2.64863706       3.96396494     -0.246999994      0.329598308      -1.92169869    
   1.82441294       4.40452194     -0.246999994      0.329598308      -1.92169869    
   2.10093188       5.07209921     -0.157000005      0.329598308      -1.92169869    
   3.88201594       3.88201594     -0.157000005       3.39194155      -1.70452702    
   3.37107491       3.37107491     -0.246999994       3.39194155      -1.70452702    
   2.64863706       3.96396494     -0.246999994       3.39194155      -1.70452702    
   3.05008101       4.56476784     -0.157000005       3.39194155      -1.70452702    
   4.56476784       3.05008101     -0.157000005       3.30398941      -1.86781788    
   3.96396494       2.64863706     -0.246999994       3.30398941      -1.86781788    
   3.37107491       3.37107491     -0.246999994       3.30398941      -1.86781788    
   3.88201594       3.88201594     -0.157000005       3.30398941      -1.86781788    
   5.07209921       2.10093188     -0.157000005       1.59729564      -3.05122399    
   4.40452194       1.82441294     -0.246999994       1.59729564      -3.05122399    
   3.96396494       2.64863706     -0.246999994       1.59729564      -3.05122399    
   4.56476784       3.05008101     -0.157000005       1.59729564      -3.05122399    
   5.38451099       1.07104599     -0.157000005       3.51694846       2.26286435    
   4.67581606      0.930077016     -0.246999994       3.51694846       2.26286435    
   4.40452194       1.82441294     -0.246999994       3.51694846       2.26286435    
   5.07209921       2.10093188     -0.157000005       3.51694846       2.26286435    
   5.48999977       0.00000000     -0.157000005       4.07066441       2.31315732    
   4.76741982       0.00000000     -0.246999994       4.07066441       2.31315732    
   4.67581606      0.930077016     -0.246999994       4.07066441       2.31315732    
   5.38451099       1.07104599     -0.157000005       4.07066441       2.31315732    
   5.38451099      -1.07104599     -0.157000005       3.53988528       2.58703446    
   4.67581606     -0.930077016     -0.246999994       3.53988528       2.58703446    
   4.76741982       0.00000000     -0.246999994       3.53988528       2.58703446    
   5.48999977       0.00000000     -0.157000005       3.53988528       2.58703446    
   5.07209921      -2.10093188     -0.157000005       3.36361122       2.64491701    
   4.40452194      -1.82441294     -0.246999994       3.36361122       2.64491701    
   4.67581606     -0.930077016     -0.246999994       3.36361122       2.64491701    
   5.38451099      -1.07104599     -0.157000005       3.36361122       2.64491701    
   4.56476784      -3.05008101     -0.157000005       3.84641099       2.31714368    
   3.96396494      -2.64863706     -0.246999994       3.84641099       2.31714368    
   4.40452194      -1.82441294     -0.246999994       3.84641099       2.31714368    
   5.07209921      -2.10093188     -0.157000005       3.84641099       2.31714368    
   3.88201594      -3.88201594     -0.157000005       3.75612259       2.15192699    
   3.37107491      -3.37107491     -0.246999994       3.75612259       2.15192699    
   3.96396494      -2.64863706     -0.246999994       3.75612259       2.15192699    
   4.56476784      -3.05008101     -0.157000005       3.75612259       2.15192699    
   3.05008101      -4.56476784     -0.157000005       1.53653467       2.77047443    
   2.64863706      -3.96396494     -0.246999994       1.53653467       2.77047443    
   3.37107491      -3.37107491     -0.246999994       1.53653467       2.77047443    
   3.88201594      -3.88201594     -0.157000005       1.53653467       2.77047443    
   2.10093188      -5.07209921     -0.157000005       3.44862151      -1.82993436    
   1.82441294      -4.40452194     -0.246999994       3.44862151      -1.82993436    
   2.64863706      -3.96396494     -0.246999994       3.44862151      -1.82993436    
   3.05008101      -4.56476784     -0.157000005       3.44862151      -1.82993436    
   1.07104599      -5.38451099     -0.157000005       5.05881119      -1.66111398    
  0.930077016      -4.67581606     -0.246999994       5.05881119      -1.66111398    
   1.82441294      -4.40452194     -0.246999994       5.05881119      -1.66111398    
   2.10093188      -5.07209921     -0.157000005       5.05881119      -1.66111398    
   0.00000000      -1.87709999     -0.606999993       4.30668926      -1.58477938    
   0.00000000      -1.36500001     -0.606999993       4.30668926      -1.58477938    
  0.266297996      -1.33877206     -0.606999993       4.30668926      -1.58477938    
  0.366203994      -1.84103203     -0.606999993       4.30668926      -1.58477938    
   0.00000000      -1.87709999     -0.606999993       9.42546368       1.56420243    
   0.00000000      -2.59967995     -0.517000020       9.42546368       1.56420243    
 -0.507171988      -2.54972792     -0.517000020       9.42546368       1.56420243    
 -0.366203994      -1.84103203     -0.606999993       9.42546368       1.56420243    
 -0.366203994      -1.84103203     -0.606999993       2.37253904       1.54457998    
 -0.266297996      -1.33877206     -0.606999993       2.37253904       1.54457998    
   0.00000000      -1.36500001     -0.606999993       2.37253904       1.54457998    
   0.00000000      -1.87709999     -0.606999993       2.37253904       1.54457998    
 -0.366203994      -1.84103203     -0.606999993       18.1779881       1.56007445    
 -0.507171988      -2.54972792     -0.517000020       18.1779881       1.56007445    
 -0.994853973      -2.40179110     -0.517000020       18.1779881       1.56007445    
 -0.718334973      -1.73421395     -0.606999993       18.1779881       1.56007445    
 -0.718334973      -1.73421395     -0.606999993       4.51785898       1.53076136    
 -0.522363007      -1.26109600     -0.606999993       4.51785898       1.53076136    
 -0.266297996      -1.33877206     -0.606999993       4.51785898       1.53076136    
 -0.366203994      -1.84103203     -0.606999993       4.51785898       1.53076136    
 -0.718334973      -1.73421395     -0.606999993       5.91601181       1.51658642    
 -0.994853973      -2.40179110     -0.517000020       5.91601181       1.51658642    
  -1.44430494      -2.16155505     -0.517000020       5.91601181       1.51658642    
  -1.04286098      -1.56075203     -0.606999993       5.91601181       1.51658642    
  -1.04286098      -1.56075203     -0.606999993       2.00758505      -1.42610621    
 -0.758352995      -1.13495600     -0.606999993       2.00758505      -1.42610621    
 -0.522363007      -1.26109600     -0.606999993       2.00758505      -1.42610621    
 -0.718334973      -1.73421395     -0.606999993       2.00758505      -1.42610621    
  -1.04286098      -1.56075203     -0.606999993       14.3655701      -1.54037404    
  -1.44430494      -2.16155505     -0.517000020       14.3655701      -1.54037404    
  -1.83825099      -1.83825099     -0.517000020       14.3655701      -1.54037404    
  -1.32730997      -1.32730997     -0.606999993       14.3655701      -1.54037404    
  -1.32730997      -1.32730997     -0.606999993       11.7170582      -1.53808630    
 -0.965201020     -0.965201020     -0.606999993       11.7170582      -1.53808630    
 -0.758352995      -1.13495600     -0.606999993       11.7170582      -1.53808630    
  -1.04286098      -1.56075203     -0.606999993       11.7170582      -1.53808630    
  -1.32730997      -1.32730997     -0.606999993       22.2447357      -1.54655087    
  -1.83825099      -1.83825099     -0.517000020       22.2447357      -1.54655087    
  -2.16155505      -1.44430494     -0.517000020       22.2447357      -1.54655087    
  -1.56075203      -1.04286098     -0.606999993       22.2447357      -1.54655087    
  -1.56075203      -1.04286098     -0.606999993       15.9466219      -1.54212463    
  -1.13495600     -0.758352995     -0.606999993       15.9466219      -1.54212463    
 -0.965201020     -0.965201020     -0.606999993       15.9466219      -1.54212463    
  -1.32730997      -1.32730997     -0.606999993       15.9466219      -1.54212463    
  -1.56075203      -1.04286098     -0.606999993       12.4027100      -1.52090597    
  -2.16155505      -1.44430494     -0.517000020       12.4027100      -1.52090597    
  -2.40179110     -0.994853973     -0.517000020       12.4027100      -1.52090597    
  -1.73421395     -0.718334973     -0.606999993       12.4027100      -1.52090597    
  -1.73421395     -0.718334973     -0.606999993       11.9714565      -1.52842236    
  -1.26109600     -0.522363007     -0.606999993       11.9714565      -1.52842236    
  -1.13495600     -0.758352995     -0.606999993       11.9714565      -1.52842236    
  -1.56075203      -1.04286098     -0.606999993       11.9714565      -1.52842236    
  -1.73421395     -0.718334973     -0.606999993      0.967351794      0.814030349    
  -2.40179110     -0.994853973     -0.517000020      0.967351794      0.814030349    
  -2.54972792     -0.507171988     -0.517000020      0.967351794      0.814030349    
  -1.84103203     -0.366203994     -0.606999993      0.967351794      0.814030349    
  -1.84103203     -0.366203994     -0.606999993       5.35548639      -1.47220445    
  -1.33877206     -0.266297996     -0.606999993       5.35548639      -1.47220445    
  -1.26109600     -0.522363007     -0.606999993       5.35548639      -1.47220445    
  -1.73421395     -0.718334973     -0.606999993       5.35548639      -1.47220445    
  -1.84103203     -0.366203994     -0.606999993       1.29564703       1.02719879    
  -2.54972792     -0.507171988     -0.517000020       1.29564703       1.02719879    
  -2.59967995       0.00000000     -0.517000020       1.29564703       1.02719879    
  -1.87709999       0.00000000     -0.606999993       1.29564703       1.02719879    
  -1.87709999       0.00000000     -0.606999993       2.51226163      -1.36328423    
  -1.36500001       0.00000000     -0.606999993       2.51226163      -1.36328423    
  -1.33877206     -0.266297996     -0.606999993       2.51226163      -1.36328423    
  -1.84103203     -0.366203994     -0.606999993       2.51226163      -1.36328423    
  -1.87709999       0.00000000     -0.606999993       8.71822071      -1.49775410    
  -2.59967995       0.00000000     -0.517000020       8.71822071      -1.49775410    
  -2.54972792      0.507171988     -0.517000020       8.71822071      -1.49775410    
  -1.84103203      0.366203994     -0.606999993       8.71822071      -1.49775410    
  -1.84103203      0.366203994     -0.606999993       3.10586047      -1.41624820    
  -1.33877206      0.266297996     -0.606999993       3.10586047      -1.41624820    
  -1.36500001       0.00000000     -0.606999993       3.10586047      -1.41624820    
  -1.87709999       0.00000000     -0.606999993       3.10586047      -1.41624820    
  -1.84103203      0.366203994     -0.606999993       11.5495338      -1.52150428    
  -2.54972792      0.507171988     -0.517000020       11.5495338      -1.52150428    
  -2.40179110      0.994853973     -0.517000020       11.5495338      -1.52150428    
  -1.73421395      0.718334973     -0.606999993       11.5495338      -1.52150428    
  -1.73421395      0.718334973     -0.606999993       1.53059578      -1.29484665    
  -1.26109600      0.522363007     -0.606999993       1.53059578      -1.29484665    
  -1.33877206      0.266297996     -0.606999993       1.53059578      -1.29484665    
  -1.84103203      0.366203994     -0.606999993       1.53059578      -1.29484665    
  -1.73421395      0.718334973     -0.606999993      0.913279414       1.01873195    
  -2.40179110      0.994853973     -0.517000020      0.913279414       1.01873195    
  -2.16155505       1.44430494     -0.517000020      0.913279414       1.01873195    
  -1.56075203       1.04286098     -0.606999993      0.913279414       1.01873195    
  -1.56075203       1.04286098     -0.606999993       4.78974628       1.49902773    
  -1.13495600      0.758352995     -0.606999993       4.78974628       1.49902773    
  -1.26109600      0.522363007     -0.606999993       4.78974628       1.49902773    
  -1.73421395      0.718334973     -0.606999993       4.78974628       1.49902773    
  -1.56075203       1.04286098     -0.606999993       15.4263954       1.54621434    
  -2.16155505       1.44430494     -0.517000020       15.4263954       1.54621434    
  -1.83825099       1.83825099     -0.517000020       15.4263954       1.54621434    
  -1.32730997       1.32730997     -0.606999993       15.4263954       1.54621434    
  -1.32730997       1.32730997     -0.606999993       10.8110819       1.54610777    
 -0.965201020      0.965201020     -0.606999993       10.8110819       1.54610777    
  -1.13495600      0.758352995     -0.606999993       10.8110819       1.54610777    
  -1.56075203       1.04286098     -0.606999993       10.8110819       1.54610777    
  -1.32730997       1.32730997     -0.606999993       14.7504425       1.55159605    
  -1.83825099       1.83825099     -0.517000020       14.7504425       1.55159605    
  -1.44430494       2.16155505     -0.517000020       14.7504425       1.55159605    
  -1.04286098       1.56075203     -0.606999993       14.7504425       1.55159605    
  -1.04286098       1.56075203     -0.606999993       10.0616903       1.55125952    
 -0.758352995       1.13495600     -0.606999993       10.0616903       1.55125952    
 -0.965201020      0.965201020     -0.606999993       10.0616903       1.55125952    
  -1.32730997       1.32730997     -0.606999993       10.0616903       1.55125952    
  -1.04286098       1.56075203     -0.606999993       1.12119985      -1.39196920    
  -1.44430494       2.16155505     -0.517000020       1.12119985      -1.39196920    
 -0.994853973       2.40179110     -0.517000020       1.12119985      -1.39196920    
 -0.718334973       1.73421395     -0.606999993       1.12119985      -1.39196920    
 -0.718334973       1.73421395     -0.606999993       2.99300742       1.52462471    
 -0.522363007       1.26109600     -0.606999993       2.99300742       1.52462471    
 -0.758352995       1.13495600     -0.606999993       2.99300742       1.52462471    
  -1.04286098       1.56075203     -0.606999993       2.99300742       1.52462471    
 -0.718334973       1.73421395     -0.606999993       13.4733286      -1.56138492    
 -0.994853973       2.40179110     -0.517000020       13.4733286      -1.56138492    
 -0.507171988       2.54972792     -0.517000020       13.4733286      -1.56138492    
 -0.366203994       1.84103203     -0.606999993       13.4733286      -1.56138492    
 -0.366203994       1.84103203     -0.606999993       3.15795040      -1.54202187    
 -0.266297996       1.33877206     -0.606999993       3.15795040      -1.54202187    
 -0.522363007       1.26109600     -0.606999993       3.15795040      -1.54202187    
 -0.718334973       1.73421395     -0.606999993       3.15795040      -1.54202187    
 -0.366203994       1.84103203     -0.606999993       8.03106022      -1.56310534    
 -0.507171988       2.54972792     -0.517000020       8.03106022      -1.56310534    
   0.00000000       2.59967995     -0.517000020       8.03106022      -1.56310534    
   0.00000000       1.87709999     -0.606999993       8.03106022      -1.56310534    
   0.00000000       1.87709999     -0.606999993       2.73057008      -1.55240881    
   0.00000000       1.36500001     -0.606999993       2.73057008      -1.55240881    
 -0.266297996       1.33877206     -0.606999993       2.73057008      -1.55240881    
 -0.366203994       1.84103203     -0.606999993       2.73057008      -1.55240881    
   0.00000000       1.87709999     -0.606999993       7.40035725       1.57097089    
   0.00000000       2.59967995     -0.517000020       7.40035725       1.57097089    
  0.507171988       2.54972792     -0.517000020       7.40035725       1.57097089    
  0.366203994       1.84103203     -0.606999993       7.40035725       1.57097089    
  0.366203994       1.84103203     -0.606999993       1.45735800       1.56276405    
  0.266297996       1.33877206     -0.606999993       1.45735800       1.56276405    
   0.00000000       1.36500001     -0.606999993       1.45735800       1.56276405    
   0.00000000       1.87709999     -0.606999993       1.45735800       1.56276405    
  0.366203994       1.84103203     -0.606999993       12.8404055       1.57612169    
  0.507171988       2.54972792     -0.517000020       12.8404055       1.57612169    
  0.994853973       2.40179110     -0.517000020       12.8404055       1.57612169    
  0.718334973       1.73421395     -0.606999993       12.8404055       1.57612169    
  0.718334973       1.73421395     -0.606999993       1.89565575       1.58746374    
  0.522363007       1.26109600     -0.606999993       1.89565575       1.58746374    
  0.266297996       1.33877206     -0.606999993       1.89565575       1.58746374    
  0.366203994       1.84103203     -0.606999993       1.89565575       1.58746374    
  0.718334973       1.73421395     -0.606999993      0.470813304       1.88169897    
  0.994853973       2.40179110     -0.517000020      0.470813304       1.88169897    
   1.44430494       2.16155505     -0.517000020      0.470813304       1.88169897    
   1.04286098       1.56075203     -0.606999993      0.470813304       1.88169897    
   1.04286098       1.56075203     -0.606999993       4.20290709      -1.59080994    
  0.758352995       1.13495600     -0.606999993       4.20290709      -1.59080994    
  0.522363007       1.26109600     -0.606999993       4.20290709      -1.59080994    
  0.718334973       1.73421395     -0.606999993       4.20290709      -1.59080994    
   1.04286098       1.56075203     -0.606999993       15.4335842      -1.58590615    
   1.44430494       2.16155505     -0.517000020       15.4335842      -1.58590615    
   1.83825099       1.83825099     -0.517000020       15.4335842      -1.58590615    
   1.32730997       1.32730997     -0.606999993       15.4335842      -1.58590615    
   1.32730997       1.32730997     -0.606999993       11.1783867      -1.58416486    
  0.965201020      0.965201020     -0.606999993       11.1783867      -1.58416486    
  0.758352995       1.13495600     -0.606999993       11.1783867      -1.58416486    
   1.04286098       1.56075203     -0.606999993       11.1783867      -1.58416486    
   1.32730997       1.32730997     -0.606999993       16.0968800      -1.59169233    
   1.83825099       1.83825099     -0.517000020       16.0968800      -1.59169233    
   2.16155505       1.44430494     -0.517000020       16.0968800      -1.59169233    
   1.56075203       1.04286098     -0.606999993       16.0968800      -1.59169233    
   1.56075203       1.04286098     -0.606999993       11.7729321      -1.59014332    
   1.13495600      0.758352995     -0.606999993       11.7729321      -1.59014332    
  0.965201020      0.965201020     -0.606999993       11.7729321      -1.59014332    
   1.32730997       1.32730997     -0.606999993       11.7729321      -1.59014332    
   1.56075203       1.04286098     -0.606999993       1.42079175      -1.88893175    
   2.16155505       1.44430494     -0.517000020       1.42079175      -1.88893175    
   2.40179110      0.994853973     -0.517000020       1.42079175      -1.88893175    
   1.73421395      0.718334973     -0.606999993       1.42079175      -1.88893175    
   1.73421395      0.718334973     -0.606999993       5.57413006      -1.62702572    
   1.26109600      0.522363007     -0.606999993       5.57413006      -1.62702572    
   1.13495600      0.758352995     -0.606999993       5.57413006      -1.62702572    
   1.56075203       1.04286098     -0.606999993       5.57413006      -1.62702572    
   1.73421395      0.718334973     -0.606999993       11.1167669       1.61971593    
   2.40179110      0.994853973     -0.517000020       11.1167669       1.61971593    
   2.54972792      0.507171988     -0.517000020       11.1167669       1.61971593    
   1.84103203      0.366203994     -0.606999993       11.1167669       1.61971593    
   1.84103203      0.366203994     -0.606999993      0.937193096       2.00711942    
   1.33877206      0.266297996     -0.606999993      0.937193096       2.00711942    
   1.26109600      0.522363007     -0.606999993      0.937193096       2.00711942    
   1.73421395      0.718334973     -0.606999993      0.937193096       2.00711942    
   1.84103203      0.366203994     -0.606999993       8.41034603       1.64454710    
   2.54972792      0.507171988     -0.517000020       8.41034603       1.64454710    
   2.59967995       0.00000000     -0.517000020       8.41034603       1.64454710    
   1.87709999       0.00000000     -0.606999993       8.41034603       1.64454710    
   1.87709999       0.00000000     -0.606999993       2.60071707       1.75048268    
   1.36500001       0.00000000     -0.606999993       2.60071707       1.75048268    
   1.33877206      0.266297996     -0.606999993       2.60071707       1.75048268    
   1.84103203      0.366203994     -0.606999993       2.60071707       1.75048268    
   1.87709999       0.00000000     -0.606999993       1.49746597      -2.02843380    
   2.59967995       0.00000000     -0.517000020       1.49746597      -2.02843380    
   2.54972792     -0.507171988     -0.517000020       1.49746597      -2.02843380    
   1.84103203     -0.366203994     -0.606999993       1.49746597      -2.02843380    
   1.84103203     -0.366203994     -0.606999993       2.05580378       1.82162416    
   1.33877206     -0.266297996     -0.606999993       2.05580378       1.82162416    
   1.36500001       0.00000000     -0.606999993       2.05580378       1.82162416    
   1.87709999       0.00000000     -0.606999993       2.05580378       1.82162416    
   1.84103203     -0.366203994     -0.606999993       1.11665213      -2.20548964    
   2.54972792     -0.507171988     -0.517000020       1.11665213      -2.20548964    
   2.40179110     -0.994853973     -0.517000020       1.11665213      -2.20548964    
   1.73421395     -0.718334973     -0.606999993       1.11665213      -2.20548964    
   1.73421395     -0.718334973     -0.606999993       4.83191681       1.67958796    
   1.26109600     -0.522363007     -0.606999993       4.83191681       1.67958796    
   1.33877206     -0.266297996     -0.606999993       4.83191681       1.67958796    
   1.84103203     -0.366203994     -0.606999993       4.83191681       1.67958796    
   1.73421395     -0.718334973     -0.606999993       12.1892385       1.62183750    
   2.40179110     -0.994853973     -0.517000020       12.1892385       1.62183750    
   2.16155505      -1.44430494     -0.517000020       12.1892385       1.62183750    
   1.56075203      -1.04286098     -0.606999993       12.1892385       1.62183750    
   1.56075203      -1.04286098     -0.606999993       11.2588749       1.61585057    
   1.13495600     -0.758352995     -0.606999993       11.2588749       1.61585057    
   1.26109600     -0.522363007     -0.606999993       11.2588749       1.61585057    