 VARIABLES="X" "Y" "Z" "abs(p) (Pa)" "angle(p) (rad)"
ZONE N=   2709,E =    2358, F=FEPOINT, ET=QUADRILATERAL
   0.00000000      -5.48999977     -0.157000005       1.36174607      -1.57259476    
   0.00000000      -4.76741982     -0.246999994       1.36174607      -1.57259476    
  0.930077016      -4.67581606     -0.246999994       1.36174607      -1.57259476    
   1.07104599      -5.38451099     -0.157000005       1.36174607      -1.57259476    
  -1.07104599      -5.38451099     -0.157000005       1.42952228       1.56942940    
 -0.930077016      -4.67581606     -0.246999994       1.42952228       1.56942940    
   0.00000000      -4.76741982     -0.246999994       1.42952228       1.56942940    
   0.00000000      -5.48999977     -0.157000005       1.42952228       1.56942940    
  -2.10093188      -5.07209921     -0.157000005       2.88635588       1.56782269    
  -1.82441294      -4.40452194     -0.246999994       2.88635588       1.56782269    
 -0.930077016      -4.67581606     -0.246999994       2.88635588       1.56782269    
  -1.07104599      -5.38451099     -0.157000005       2.88635588       1.56782269    
  -3.05008101      -4.56476784     -0.157000005       1.48662853       1.58204222    
  -2.64863706      -3.96396494     -0.246999994       1.48662853       1.58204222    
  -1.82441294      -4.40452194     -0.246999994       1.48662853       1.58204222    
  -2.10093188      -5.07209921     -0.157000005       1.48662853       1.58204222    
  -3.88201594      -3.88201594     -0.157000005      0.977579892      -1.61677456    
  -3.37107491      -3.37107491     -0.246999994      0.977579892      -1.61677456    
  -2.64863706      -3.96396494     -0.246999994      0.977579892      -1.61677456    
  -3.05008101      -4.56476784     -0.157000005      0.977579892      -1.61677456    
  -4.56476784      -3.05008101     -0.157000005       2.26242900      -1.57589233    
  -3.96396494      -2.64863706     -0.246999994       2.26242900      -1.57589233    
  -3.37107491      -3.37107491     -0.246999994       2.26242900      -1.57589233    
  -3.88201594      -3.88201594     -0.157000005       2.26242900      -1.57589233    
  -5.07209921      -2.10093188     -0.157000005       1.40536988      -1.55445433    
  -4.40452194      -1.82441294     -0.246999994       1.40536988      -1.55445433    
  -3.96396494      -2.64863706     -0.246999994       1.40536988      -1.55445433    
  -4.56476784      -3.05008101     -0.157000005       1.40536988      -1.55445433    
  -5.38451099      -1.07104599     -0.157000005      0.260092407      -1.35026932    
  -4.67581606     -0.930077016     -0.246999994      0.260092407      -1.35026932    
  -4.40452194      -1.82441294     -0.246999994      0.260092407      -1.35026932    
  -5.07209921      -2.10093188     -0.157000005      0.260092407      -1.35026932    
  -5.48999977       0.00000000     -0.157000005      0.532913566      -1.49276209    
  -4.76741982       0.00000000     -0.246999994      0.532913566      -1.49276209    
  -4.67581606     -0.930077016     -0.246999994      0.532913566      -1.49276209    
  -5.38451099      -1.07104599     -0.157000005      0.532913566      -1.49276209    
  -5.38451099       1.07104599     -0.157000005       1.85688353      -1.59138620    
  -4.67581606      0.930077016     -0.246999994       1.85688353      -1.59138620    
  -4.76741982       0.00000000     -0.246999994       1.85688353      -1.59138620    
  -5.48999977       0.00000000     -0.157000005       1.85688353      -1.59138620    
  -5.07209921       2.10093188     -0.157000005       2.15198398      -1.59282625    
  -4.40452194       1.82441294     -0.246999994       2.15198398      -1.59282625    
  -4.67581606      0.930077016     -0.246999994       2.15198398      -1.59282625    
  -5.38451099       1.07104599     -0.157000005       2.15198398      -1.59282625    
  -4.56476784       3.05008101     -0.157000005      0.476901770      -1.60024202    
  -3.96396494       2.64863706     -0.246999994      0.476901770      -1.60024202    
  -4.40452194       1.82441294     -0.246999994      0.476901770      -1.60024202    
  -5.07209921       2.10093188     -0.157000005      0.476901770      -1.60024202    
  -3.88201594       3.88201594     -0.157000005       1.43358612       1.54773486    
  -3.37107491       3.37107491     -0.246999994       1.43358612       1.54773486    
  -3.96396494       2.64863706     -0.246999994       1.43358612       1.54773486    
  -4.56476784       3.05008101     -0.157000005       1.43358612       1.54773486    
  -3.05008101       4.56476784     -0.157000005       1.88833654       1.53955209    
  -2.64863706       3.96396494     -0.246999994       1.88833654       1.53955209    
  -3.37107491       3.37107491     -0.246999994       1.88833654       1.53955209    
  -3.88201594       3.88201594     -0.157000005       1.88833654       1.53955209    
  -2.10093188       5.07209921     -0.157000005      0.513570487      -1.54673529    
  -1.82441294       4.40452194     -0.246999994      0.513570487      -1.54673529    
  -2.64863706       3.96396494     -0.246999994      0.513570487      -1.54673529    
  -3.05008101       4.56476784     -0.157000005      0.513570487      -1.54673529    
  -1.07104599       5.38451099     -0.157000005       2.44353700      -1.57776177    
 -0.930077016       4.67581606     -0.246999994       2.44353700      -1.57776177    
  -1.82441294       4.40452194     -0.246999994       2.44353700      -1.57776177    
  -2.10093188       5.07209921     -0.157000005       2.44353700      -1.57776177    
   0.00000000       5.48999977     -0.157000005       1.04503691      -1.57975030    
   0.00000000       4.76741982     -0.246999994       1.04503691      -1.57975030    
 -0.930077016       4.67581606     -0.246999994       1.04503691      -1.57975030    
  -1.07104599       5.38451099     -0.157000005       1.04503691      -1.57975030    
   1.07104599       5.38451099     -0.157000005       1.09842503       1.56226707    
  0.930077016       4.67581606     -0.246999994       1.09842503       1.56226707    
   0.00000000       4.76741982     -0.246999994       1.09842503       1.56226707    
   0.00000000       5.48999977     -0.157000005       1.09842503       1.56226707    
   2.10093188       5.07209921     -0.157000005       2.35399652       1.56112480    
   1.82441294       4.40452194     -0.246999994       2.35399652       1.56112480    
  0.930077016       4.67581606     -0.246999994       2.35399652       1.56112480    
   1.07104599       5.38451099     -0.157000005       2.35399652       1.56112480    
   3.05008101       4.56476784     -0.157000005      0.420730025       1.61894798    
   2.64863706       3.96396494     -0.246999994      0.420730025       1.61894798    
   1.82441294       4.40452194     -0.246999994      0.420730025       1.61894798    
   2.10093188       5.07209921     -0.157000005      0.420730025       1.61894798    
   3.88201594       3.88201594     -0.157000005       1.99726737      -1.59870934    
   3.37107491       3.37107491     -0.246999994       1.99726737      -1.59870934    
   2.64863706       3.96396494     -0.246999994       1.99726737      -1.59870934    
   3.05008101       4.56476784     -0.157000005       1.99726737      -1.59870934    
   4.56476784       3.05008101     -0.157000005       1.48667085      -1.59083152    
   3.96396494       2.64863706     -0.246999994       1.48667085      -1.59083152    
   3.37107491       3.37107491     -0.246999994       1.48667085      -1.59083152    
   3.88201594       3.88201594     -0.157000005       1.48667085      -1.59083152    
   5.07209921       2.10093188     -0.157000005      0.515309989       1.54407275    
   4.40452194       1.82441294     -0.246999994      0.515309989       1.54407275    
   3.96396494       2.64863706     -0.246999994      0.515309989       1.54407275    
   4.56476784       3.05008101     -0.157000005      0.515309989       1.54407275    
   5.38451099       1.07104599     -0.157000005       2.08273315       1.54434574    
   4.67581606      0.930077016     -0.246999994       2.08273315       1.54434574    
   4.40452194       1.82441294     -0.246999994       2.08273315       1.54434574    
   5.07209921       2.10093188     -0.157000005       2.08273315       1.54434574    
   5.48999977       0.00000000     -0.157000005       1.77641690       1.55361331    
   4.76741982       0.00000000     -0.246999994       1.77641690       1.55361331    
   4.67581606      0.930077016     -0.246999994       1.77641690       1.55361331    
   5.38451099       1.07104599     -0.157000005       1.77641690       1.55361331    
   5.38451099      -1.07104599     -0.157000005      0.492131889       1.65751934    
   4.67581606     -0.930077016     -0.246999994      0.492131889       1.65751934    
   4.76741982       0.00000000     -0.246999994      0.492131889       1.65751934    
   5.48999977       0.00000000     -0.157000005      0.492131889       1.65751934    
   5.07209921      -2.10093188     -0.157000005      0.287651539       1.75216591    
   4.40452194      -1.82441294     -0.246999994      0.287651539       1.75216591    
   4.67581606     -0.930077016     -0.246999994      0.287651539       1.75216591    
   5.38451099      -1.07104599     -0.157000005      0.287651539       1.75216591    
   4.56476784      -3.05008101     -0.157000005       1.48028994       1.58426070    
   3.96396494      -2.64863706     -0.246999994       1.48028994       1.58426070    
   4.40452194      -1.82441294     -0.246999994       1.48028994       1.58426070    
   5.07209921      -2.10093188     -0.157000005       1.48028994       1.58426070    
   3.88201594      -3.88201594     -0.157000005       2.26442862       1.56250608    
   3.37107491      -3.37107491     -0.246999994       2.26442862       1.56250608    
   3.96396494      -2.64863706     -0.246999994       2.26442862       1.56250608    
   4.56476784      -3.05008101     -0.157000005       2.26442862       1.56250608    
   3.05008101      -4.56476784     -0.157000005      0.994447112       1.51938224    
   2.64863706      -3.96396494     -0.246999994      0.994447112       1.51938224    
   3.37107491      -3.37107491     -0.246999994      0.994447112       1.51938224    
   3.88201594      -3.88201594     -0.157000005      0.994447112       1.51938224    
   2.10093188      -5.07209921     -0.157000005       1.49204135      -1.56168699    
   1.82441294      -4.40452194     -0.246999994       1.49204135      -1.56168699    
   2.64863706      -3.96396494     -0.246999994       1.49204135      -1.56168699    
   3.05008101      -4.56476784     -0.157000005       1.49204135      -1.56168699    
   1.07104599      -5.38451099     -0.157000005       2.79781055      -1.57537282    
  0.930077016      -4.67581606     -0.246999994       2.79781055      -1.57537282    
   1.82441294      -4.40452194     -0.246999994       2.79781055      -1.57537282    
   2.10093188      -5.07209921     -0.157000005       2.79781055      -1.57537282    
   0.00000000      -1.87709999     -0.606999993       8.54504395      -1.56332719    
   0.00000000      -1.36500001     -0.606999993       8.54504395      -1.56332719    
  0.266297996      -1.33877206     -0.606999993       8.54504395      -1.56332719    
  0.366203994      -1.84103203     -0.606999993       8.54504395      -1.56332719    
   0.00000000      -1.87709999     -0.606999993       16.5547676       1.57535005    
   0.00000000      -2.59967995     -0.517000020       16.5547676       1.57535005    
 -0.507171988      -2.54972792     -0.517000020       16.5547676       1.57535005    
 -0.366203994      -1.84103203     -0.606999993       16.5547676       1.57535005    
 -0.366203994      -1.84103203     -0.606999993       8.05812550       1.57856715    
 -0.266297996      -1.33877206     -0.606999993       8.05812550       1.57856715    
   0.00000000      -1.36500001     -0.606999993       8.05812550       1.57856715    
   0.00000000      -1.87709999     -0.606999993       8.05812550       1.57856715    
 -0.366203994      -1.84103203     -0.606999993       31.9517479       1.57576501    
 -0.507171988      -2.54972792     -0.517000020       31.9517479       1.57576501    
 -0.994853973      -2.40179110     -0.517000020       31.9517479       1.57576501    
 -0.718334973      -1.73421395     -0.606999993       31.9517479       1.57576501    
 -0.718334973      -1.73421395     -0.606999993       15.8364782       1.57963812    
 -0.522363007      -1.26109600     -0.606999993       15.8364782       1.57963812    
 -0.266297996      -1.33877206     -0.606999993       15.8364782       1.57963812    
 -0.366203994      -1.84103203     -0.606999993       15.8364782       1.57963812    
 -0.718334973      -1.73421395     -0.606999993       13.9124908       1.57883692    
 -0.994853973      -2.40179110     -0.517000020       13.9124908       1.57883692    
  -1.44430494      -2.16155505     -0.517000020       13.9124908       1.57883692    
  -1.04286098      -1.56075203     -0.606999993       13.9124908       1.57883692    
  -1.04286098      -1.56075203     -0.606999993       6.73037863       1.58794928    
 -0.758352995      -1.13495600     -0.606999993       6.73037863       1.58794928    
 -0.522363007      -1.26109600     -0.606999993       6.73037863       1.58794928    
 -0.718334973      -1.73421395     -0.606999993       6.73037863       1.58794928    
  -1.04286098      -1.56075203     -0.606999993       16.0928955      -1.57054508    
  -1.44430494      -2.16155505     -0.517000020       16.0928955      -1.57054508    
  -1.83825099      -1.83825099     -0.517000020       16.0928955      -1.57054508    
  -1.32730997      -1.32730997     -0.606999993       16.0928955      -1.57054508    
  -1.32730997      -1.32730997     -0.606999993       9.46571445      -1.57293487    
 -0.965201020     -0.965201020     -0.606999993       9.46571445      -1.57293487    
 -0.758352995      -1.13495600     -0.606999993       9.46571445      -1.57293487    
  -1.04286098      -1.56075203     -0.606999993       9.46571445      -1.57293487    
  -1.32730997      -1.32730997     -0.606999993       25.5659981      -1.56780243    
  -1.83825099      -1.83825099     -0.517000020       25.5659981      -1.56780243    
  -2.16155505      -1.44430494     -0.517000020       25.5659981      -1.56780243    
  -1.56075203      -1.04286098     -0.606999993       25.5659981      -1.56780243    
  -1.56075203      -1.04286098     -0.606999993       16.8039360      -1.56677735    
  -1.13495600     -0.758352995     -0.606999993       16.8039360      -1.56677735    
 -0.965201020     -0.965201020     -0.606999993       16.8039360      -1.56677735    
  -1.32730997      -1.32730997     -0.606999993       16.8039360      -1.56677735    
  -1.56075203      -1.04286098     -0.606999993       7.12105274      -1.56252038    
  -2.16155505      -1.44430494     -0.517000020       7.12105274      -1.56252038    
  -2.40179110     -0.994853973     -0.517000020       7.12105274      -1.56252038    
  -1.73421395     -0.718334973     -0.606999993       7.12105274      -1.56252038    
  -1.73421395     -0.718334973     -0.606999993       10.4296465      -1.56169689    
  -1.26109600     -0.522363007     -0.606999993       10.4296465      -1.56169689    
  -1.13495600     -0.758352995     -0.606999993       10.4296465      -1.56169689    
  -1.56075203      -1.04286098     -0.606999993       10.4296465      -1.56169689    
  -1.73421395     -0.718334973     -0.606999993       14.1475725       1.57054901    
  -2.40179110     -0.994853973     -0.517000020       14.1475725       1.57054901    
  -2.54972792     -0.507171988     -0.517000020       14.1475725       1.57054901    
  -1.84103203     -0.366203994     -0.606999993       14.1475725       1.57054901    
  -1.84103203     -0.366203994     -0.606999993      0.747203529      -1.47962964    
  -1.33877206     -0.266297996     -0.606999993      0.747203529      -1.47962964    
  -1.26109600     -0.522363007     -0.606999993      0.747203529      -1.47962964    
  -1.73421395     -0.718334973     -0.606999993      0.747203529      -1.47962964    
  -1.84103203     -0.366203994     -0.606999993       11.5100708       1.57214677    
  -2.54972792     -0.507171988     -0.517000020       11.5100708       1.57214677    
  -2.59967995       0.00000000     -0.517000020       11.5100708       1.57214677    
  -1.87709999       0.00000000     -0.606999993       11.5100708       1.57214677    
  -1.87709999       0.00000000     -0.606999993      0.665894508       1.53430450    
  -1.36500001       0.00000000     -0.606999993      0.665894508       1.53430450    
  -1.33877206     -0.266297996     -0.606999993      0.665894508       1.53430450    
  -1.84103203     -0.366203994     -0.606999993      0.665894508       1.53430450    
  -1.87709999       0.00000000     -0.606999993       9.83974648      -1.57004023    
  -2.59967995       0.00000000     -0.517000020       9.83974648      -1.57004023    
  -2.54972792      0.507171988     -0.517000020       9.83974648      -1.57004023    
  -1.84103203      0.366203994     -0.606999993       9.83974648      -1.57004023    
  -1.84103203      0.366203994     -0.606999993       4.85734415      -1.57361615    
  -1.33877206      0.266297996     -0.606999993       4.85734415      -1.57361615    
  -1.36500001       0.00000000     -0.606999993       4.85734415      -1.57361615    
  -1.87709999       0.00000000     -0.606999993       4.85734415      -1.57361615    
  -1.84103203      0.366203994     -0.606999993       19.3273869      -1.56998396    
  -2.54972792      0.507171988     -0.517000020       19.3273869      -1.56998396    
  -2.40179110      0.994853973     -0.517000020       19.3273869      -1.56998396    
  -1.73421395      0.718334973     -0.606999993       19.3273869      -1.56998396    
  -1.73421395      0.718334973     -0.606999993       5.66321611      -1.57892370    
  -1.26109600      0.522363007     -0.606999993       5.66321611      -1.57892370    
  -1.33877206      0.266297996     -0.606999993       5.66321611      -1.57892370    
  -1.84103203      0.366203994     -0.606999993       5.66321611      -1.57892370    
  -1.73421395      0.718334973     -0.606999993       1.70765090      -1.57968688    
  -2.40179110      0.994853973     -0.517000020       1.70765090      -1.57968688    
  -2.16155505       1.44430494     -0.517000020       1.70765090      -1.57968688    
  -1.56075203       1.04286098     -0.606999993       1.70765090      -1.57968688    
  -1.56075203       1.04286098     -0.606999993       3.56853199       1.58966327    
  -1.13495600      0.758352995     -0.606999993       3.56853199       1.58966327    
  -1.26109600      0.522363007     -0.606999993       3.56853199       1.58966327    
  -1.73421395      0.718334973     -0.606999993       3.56853199       1.58966327    
  -1.56075203       1.04286098     -0.606999993       21.8087444       1.57257855    
  -2.16155505       1.44430494     -0.517000020       21.8087444       1.57257855    
  -1.83825099       1.83825099     -0.517000020       21.8087444       1.57257855    
  -1.32730997       1.32730997     -0.606999993       21.8087444       1.57257855    
  -1.32730997       1.32730997     -0.606999993       13.9321289       1.57476342    
 -0.965201020      0.965201020     -0.606999993       13.9321289       1.57476342    
  -1.13495600      0.758352995     -0.606999993       13.9321289       1.57476342    
  -1.56075203       1.04286098     -0.606999993       13.9321289       1.57476342    
  -1.32730997       1.32730997     -0.606999993       21.0974751       1.57080317    
  -1.83825099       1.83825099     -0.517000020       21.0974751       1.57080317    
  -1.44430494       2.16155505     -0.517000020       21.0974751       1.57080317    
  -1.04286098       1.56075203     -0.606999993       21.0974751       1.57080317    
  -1.04286098       1.56075203     -0.606999993       12.9743500       1.57082200    
 -0.758352995       1.13495600     -0.606999993       12.9743500       1.57082200    
 -0.965201020      0.965201020     -0.606999993       12.9743500       1.57082200    
  -1.32730997       1.32730997     -0.606999993       12.9743500       1.57082200    
  -1.04286098       1.56075203     -0.606999993       4.34046459      -1.55232167    
  -1.44430494       2.16155505     -0.517000020       4.34046459      -1.55232167    
 -0.994853973       2.40179110     -0.517000020       4.34046459      -1.55232167    
 -0.718334973       1.73421395     -0.606999993       4.34046459      -1.55232167    
 -0.718334973       1.73421395     -0.606999993       1.22318673       1.51720989    
 -0.522363007       1.26109600     -0.606999993       1.22318673       1.51720989    
 -0.758352995       1.13495600     -0.606999993       1.22318673       1.51720989    
  -1.04286098       1.56075203     -0.606999993       1.22318673       1.51720989    
 -0.718334973       1.73421395     -0.606999993       23.7558250      -1.56587327    
 -0.994853973       2.40179110     -0.517000020       23.7558250      -1.56587327    
 -0.507171988       2.54972792     -0.517000020       23.7558250      -1.56587327    
 -0.366203994       1.84103203     -0.606999993       23.7558250      -1.56587327    
 -0.366203994       1.84103203     -0.606999993       8.10486794      -1.56023574    
 -0.266297996       1.33877206     -0.606999993       8.10486794      -1.56023574    
 -0.522363007       1.26109600     -0.606999993       8.10486794      -1.56023574    
 -0.718334973       1.73421395     -0.606999993       8.10486794      -1.56023574    
 -0.366203994       1.84103203     -0.606999993       13.3129997      -1.56666982    
 -0.507171988       2.54972792     -0.517000020       13.3129997      -1.56666982    
   0.00000000       2.59967995     -0.517000020       13.3129997      -1.56666982    
   0.00000000       1.87709999     -0.606999993       13.3129997      -1.56666982    
   0.00000000       1.87709999     -0.606999993       4.72653532      -1.56337714    
   0.00000000       1.36500001     -0.606999993       4.72653532      -1.56337714    
 -0.266297996       1.33877206     -0.606999993       4.72653532      -1.56337714    
 -0.366203994       1.84103203     -0.606999993       4.72653532      -1.56337714    
   0.00000000       1.87709999     -0.606999993       13.8051853       1.57501841    
   0.00000000       2.59967995     -0.517000020       13.8051853       1.57501841    
  0.507171988       2.54972792     -0.517000020       13.8051853       1.57501841    
  0.366203994       1.84103203     -0.606999993       13.8051853       1.57501841    
  0.366203994       1.84103203     -0.606999993       5.72026730       1.57915008    
  0.266297996       1.33877206     -0.606999993       5.72026730       1.57915008    
   0.00000000       1.36500001     -0.606999993       5.72026730       1.57915008    
   0.00000000       1.87709999     -0.606999993       5.72026730       1.57915008    
  0.366203994       1.84103203     -0.606999993       24.1632500       1.57571232    
  0.507171988       2.54972792     -0.517000020       24.1632500       1.57571232    
  0.994853973       2.40179110     -0.517000020       24.1632500       1.57571232    
  0.718334973       1.73421395     -0.606999993       24.1632500       1.57571232    
  0.718334973       1.73421395     -0.606999993       8.83320713       1.58133888    
  0.522363007       1.26109600     -0.606999993       8.83320713       1.58133888    
  0.266297996       1.33877206     -0.606999993       8.83320713       1.58133888    
  0.366203994       1.84103203     -0.606999993       8.83320713       1.58133888    
  0.718334973       1.73421395     -0.606999993       4.56187630       1.58813226    
  0.994853973       2.40179110     -0.517000020       4.56187630       1.58813226    
   1.44430494       2.16155505     -0.517000020       4.56187630       1.58813226    
   1.04286098       1.56075203     -0.606999993       4.56187630       1.58813226    
   1.04286098       1.56075203     -0.606999993      0.895723641      -1.64407814    
  0.758352995       1.13495600     -0.606999993      0.895723641      -1.64407814    
  0.522363007       1.26109600     -0.606999993      0.895723641      -1.64407814    
  0.718334973       1.73421395     -0.606999993      0.895723641      -1.64407814    
   1.04286098       1.56075203     -0.606999993       21.1141281      -1.57064247    
   1.44430494       2.16155505     -0.517000020       21.1141281      -1.57064247    
   1.83825099       1.83825099     -0.517000020       21.1141281      -1.57064247    
   1.32730997       1.32730997     -0.606999993       21.1141281      -1.57064247    
   1.32730997       1.32730997     -0.606999993       13.0563507      -1.57034576    
  0.965201020      0.965201020     -0.606999993       13.0563507      -1.57034576    
  0.758352995       1.13495600     -0.606999993       13.0563507      -1.57034576    
   1.04286098       1.56075203     -0.606999993       13.0563507      -1.57034576    
   1.32730997       1.32730997     -0.606999993       22.0112133      -1.56885469    
   1.83825099       1.83825099     -0.517000020       22.0112133      -1.56885469    
   2.16155505       1.44430494     -0.517000020       22.0112133      -1.56885469    
   1.56075203       1.04286098     -0.606999993       22.0112133      -1.56885469    
   1.56075203       1.04286098     -0.606999993       14.3121510      -1.56639767    
   1.13495600      0.758352995     -0.606999993       14.3121510      -1.56639767    
  0.965201020      0.965201020     -0.606999993       14.3121510      -1.56639767    
   1.32730997       1.32730997     -0.606999993       14.3121510      -1.56639767    
   1.56075203       1.04286098     -0.606999993       1.46579194       1.55892384    
   2.16155505       1.44430494     -0.517000020       1.46579194       1.55892384    
   2.40179110      0.994853973     -0.517000020       1.46579194       1.55892384    
   1.73421395      0.718334973     -0.606999993       1.46579194       1.55892384    
   1.73421395      0.718334973     -0.606999993       4.13966227      -1.55310893    
   1.26109600      0.522363007     -0.606999993       4.13966227      -1.55310893    
   1.13495600      0.758352995     -0.606999993       4.13966227      -1.55310893    
   1.56075203       1.04286098     -0.606999993       4.13966227      -1.55310893    
   1.73421395      0.718334973     -0.606999993       19.1219540       1.57164896    
   2.40179110      0.994853973     -0.517000020       19.1219540       1.57164896    
   2.54972792      0.507171988     -0.517000020       19.1219540       1.57164896    
   1.84103203      0.366203994     -0.606999993       19.1219540       1.57164896    
   1.84103203      0.366203994     -0.606999993       5.00529099       1.56113756    
   1.33877206      0.266297996     -0.606999993       5.00529099       1.56113756    
   1.26109600      0.522363007     -0.606999993       5.00529099       1.56113756    
   1.73421395      0.718334973     -0.606999993       5.00529099       1.56113756    
   1.84103203      0.366203994     -0.606999993       9.71525192       1.57172215    
   2.54972792      0.507171988     -0.517000020       9.71525192       1.57172215    
   2.59967995       0.00000000     -0.517000020       9.71525192       1.57172215    
   1.87709999       0.00000000     -0.606999993       9.71525192       1.57172215    
   1.87709999       0.00000000     -0.606999993       4.21725941       1.56785190    
   1.36500001       0.00000000     -0.606999993       4.21725941       1.56785190    
   1.33877206      0.266297996     -0.606999993       4.21725941       1.56785190    
   1.84103203      0.366203994     -0.606999993       4.21725941       1.56785190    
   1.87709999       0.00000000     -0.606999993       11.5742912      -1.56960750    
   2.59967995       0.00000000     -0.517000020       11.5742912      -1.56960750    
   2.54972792     -0.507171988     -0.517000020       11.5742912      -1.56960750    
   1.84103203     -0.366203994     -0.606999993       11.5742912      -1.56960750    
   1.84103203     -0.366203994     -0.606999993       1.19917011      -1.59449244    
   1.33877206     -0.266297996     -0.606999993       1.19917011      -1.59449244    
   1.36500001       0.00000000     -0.606999993       1.19917011      -1.59449244    
   1.87709999       0.00000000     -0.606999993       1.19917011      -1.59449244    
   1.84103203     -0.366203994     -0.606999993       14.1184196      -1.57114065    
   2.54972792     -0.507171988     -0.517000020       14.1184196      -1.57114065    
   2.40179110     -0.994853973     -0.517000020       14.1184196      -1.57114065    
   1.73421395     -0.718334973     -0.606999993       14.1184196      -1.57114065    
   1.73421395     -0.718334973     -0.606999993      0.320774376       1.79742610    
   1.26109600     -0.522363007     -0.606999993      0.320774376       1.79742610    
   1.33877206     -0.266297996     -0.606999993      0.320774376       1.79742610    
   1.84103203     -0.366203994     -0.606999993      0.320774376       1.79742610    
   1.73421395     -0.718334973     -0.606999993       7.21871567       1.57896340    
   2.40179110     -0.994853973     -0.517000020       7.21871567       1.57896340    
   2.16155505      -1.44430494     -0.517000020       7.21871567       1.57896340    
   1.56075203      -1.04286098     -0.606999993       7.21871567       1.57896340    
   1.56075203      -1.04286098     -0.606999993       9.99533272       1.58042371    
   1.13495600     -0.758352995     -0.606999993       9.99533272       1.58042371    
   1.26109600     -0.522363007     -0.606999993       9.99533272       1.58042371    