 VARIABLES="X" "Y" "Z" "abs(p) (Pa)" "angle(p) (rad)"
ZONE N=   2709,E =    2358, F=FEPOINT, ET=QUADRILATERAL
   0.00000000      -5.48999977     -0.157000005       4807.39307      -1.62568176    
   0.00000000      -4.76741982     -0.246999994       4807.39307      -1.62568176    
  0.930077016      -4.67581606     -0.246999994       4807.39307      -1.62568176    
   1.07104599      -5.38451099     -0.157000005       4807.39307      -1.62568176    
  -1.07104599      -5.38451099     -0.157000005       4813.47168      -1.62634826    
 -0.930077016      -4.67581606     -0.246999994       4813.47168      -1.62634826    
   0.00000000      -4.76741982     -0.246999994       4813.47168      -1.62634826    
   0.00000000      -5.48999977     -0.157000005       4813.47168      -1.62634826    
  -2.10093188      -5.07209921     -0.157000005       4694.21924      -1.62392998    
  -1.82441294      -4.40452194     -0.246999994       4694.21924      -1.62392998    
 -0.930077016      -4.67581606     -0.246999994       4694.21924      -1.62392998    
  -1.07104599      -5.38451099     -0.157000005       4694.21924      -1.62392998    
  -3.05008101      -4.56476784     -0.157000005       4273.35498      -1.62776279    
  -2.64863706      -3.96396494     -0.246999994       4273.35498      -1.62776279    
  -1.82441294      -4.40452194     -0.246999994       4273.35498      -1.62776279    
  -2.10093188      -5.07209921     -0.157000005       4273.35498      -1.62776279    
  -3.88201594      -3.88201594     -0.157000005       3734.99512      -1.62630498    
  -3.37107491      -3.37107491     -0.246999994       3734.99512      -1.62630498    
  -2.64863706      -3.96396494     -0.246999994       3734.99512      -1.62630498    
  -3.05008101      -4.56476784     -0.157000005       3734.99512      -1.62630498    
  -4.56476784      -3.05008101     -0.157000005       3103.88037      -1.62044466    
  -3.96396494      -2.64863706     -0.246999994       3103.88037      -1.62044466    
  -3.37107491      -3.37107491     -0.246999994       3103.88037      -1.62044466    
  -3.88201594      -3.88201594     -0.157000005       3103.88037      -1.62044466    
  -5.07209921      -2.10093188     -0.157000005       2276.15601      -1.62408960    
  -4.40452194      -1.82441294     -0.246999994       2276.15601      -1.62408960    
  -3.96396494      -2.64863706     -0.246999994       2276.15601      -1.62408960    
  -4.56476784      -3.05008101     -0.157000005       2276.15601      -1.62408960    
  -5.38451099      -1.07104599     -0.157000005       1399.10962      -1.62867856    
  -4.67581606     -0.930077016     -0.246999994       1399.10962      -1.62867856    
  -4.40452194      -1.82441294     -0.246999994       1399.10962      -1.62867856    
  -5.07209921      -2.10093188     -0.157000005       1399.10962      -1.62867856    
  -5.48999977       0.00000000     -0.157000005       476.733978      -1.63230813    
  -4.76741982       0.00000000     -0.246999994       476.733978      -1.63230813    
  -4.67581606     -0.930077016     -0.246999994       476.733978      -1.63230813    
  -5.38451099      -1.07104599     -0.157000005       476.733978      -1.63230813    
  -5.38451099       1.07104599     -0.157000005       485.714874       1.52008128    
  -4.67581606      0.930077016     -0.246999994       485.714874       1.52008128    
  -4.76741982       0.00000000     -0.246999994       485.714874       1.52008128    
  -5.48999977       0.00000000     -0.157000005       485.714874       1.52008128    
  -5.07209921       2.10093188     -0.157000005       1433.73413       1.51762712    
  -4.40452194       1.82441294     -0.246999994       1433.73413       1.51762712    
  -4.67581606      0.930077016     -0.246999994       1433.73413       1.51762712    
  -5.38451099       1.07104599     -0.157000005       1433.73413       1.51762712    
  -4.56476784       3.05008101     -0.157000005       2322.14258       1.51864779    
  -3.96396494       2.64863706     -0.246999994       2322.14258       1.51864779    
  -4.40452194       1.82441294     -0.246999994       2322.14258       1.51864779    
  -5.07209921       2.10093188     -0.157000005       2322.14258       1.51864779    
  -3.88201594       3.88201594     -0.157000005       3078.51587       1.51572335    
  -3.37107491       3.37107491     -0.246999994       3078.51587       1.51572335    
  -3.96396494       2.64863706     -0.246999994       3078.51587       1.51572335    
  -4.56476784       3.05008101     -0.157000005       3078.51587       1.51572335    
  -3.05008101       4.56476784     -0.157000005       3795.55469       1.51905084    
  -2.64863706       3.96396494     -0.246999994       3795.55469       1.51905084    
  -3.37107491       3.37107491     -0.246999994       3795.55469       1.51905084    
  -3.88201594       3.88201594     -0.157000005       3795.55469       1.51905084    
  -2.10093188       5.07209921     -0.157000005       4278.98096       1.51485825    
  -1.82441294       4.40452194     -0.246999994       4278.98096       1.51485825    
  -2.64863706       3.96396494     -0.246999994       4278.98096       1.51485825    
  -3.05008101       4.56476784     -0.157000005       4278.98096       1.51485825    
  -1.07104599       5.38451099     -0.157000005       4698.57715       1.51813614    
 -0.930077016       4.67581606     -0.246999994       4698.57715       1.51813614    
  -1.82441294       4.40452194     -0.246999994       4698.57715       1.51813614    
  -2.10093188       5.07209921     -0.157000005       4698.57715       1.51813614    
   0.00000000       5.48999977     -0.157000005       4825.94238       1.51504540    
   0.00000000       4.76741982     -0.246999994       4825.94238       1.51504540    
 -0.930077016       4.67581606     -0.246999994       4825.94238       1.51504540    
  -1.07104599       5.38451099     -0.157000005       4825.94238       1.51504540    
   1.07104599       5.38451099     -0.157000005       4882.79102       1.51886570    
  0.930077016       4.67581606     -0.246999994       4882.79102       1.51886570    
   0.00000000       4.76741982     -0.246999994       4882.79102       1.51886570    
   0.00000000       5.48999977     -0.157000005       4882.79102       1.51886570    
   2.10093188       5.07209921     -0.157000005       4639.17871       1.51490176    
   1.82441294       4.40452194     -0.246999994       4639.17871       1.51490176    
  0.930077016       4.67581606     -0.246999994       4639.17871       1.51490176    
   1.07104599       5.38451099     -0.157000005       4639.17871       1.51490176    
   3.05008101       4.56476784     -0.157000005       4267.52295       1.51393199    
   2.64863706       3.96396494     -0.246999994       4267.52295       1.51393199    
   1.82441294       4.40452194     -0.246999994       4267.52295       1.51393199    
   2.10093188       5.07209921     -0.157000005       4267.52295       1.51393199    
   3.88201594       3.88201594     -0.157000005       3785.07080       1.51866400    
   3.37107491       3.37107491     -0.246999994       3785.07080       1.51866400    
   2.64863706       3.96396494     -0.246999994       3785.07080       1.51866400    
   3.05008101       4.56476784     -0.157000005       3785.07080       1.51866400    
   4.56476784       3.05008101     -0.157000005       3089.74194       1.51938546    
   3.96396494       2.64863706     -0.246999994       3089.74194       1.51938546    
   3.37107491       3.37107491     -0.246999994       3089.74194       1.51938546    
   3.88201594       3.88201594     -0.157000005       3089.74194       1.51938546    
   5.07209921       2.10093188     -0.157000005       2306.94043       1.52112925    
   4.40452194       1.82441294     -0.246999994       2306.94043       1.52112925    
   3.96396494       2.64863706     -0.246999994       2306.94043       1.52112925    
   4.56476784       3.05008101     -0.157000005       2306.94043       1.52112925    
   5.38451099       1.07104599     -0.157000005       1400.20215       1.51332200    
   4.67581606      0.930077016     -0.246999994       1400.20215       1.51332200    
   4.40452194       1.82441294     -0.246999994       1400.20215       1.51332200    
   5.07209921       2.10093188     -0.157000005       1400.20215       1.51332200    
   5.48999977       0.00000000     -0.157000005       472.333984       1.50671113    
   4.76741982       0.00000000     -0.246999994       472.333984       1.50671113    
   4.67581606      0.930077016     -0.246999994       472.333984       1.50671113    
   5.38451099       1.07104599     -0.157000005       472.333984       1.50671113    
   5.38451099      -1.07104599     -0.157000005       471.620209      -1.62874103    
   4.67581606     -0.930077016     -0.246999994       471.620209      -1.62874103    
   4.76741982       0.00000000     -0.246999994       471.620209      -1.62874103    
   5.48999977       0.00000000     -0.157000005       471.620209      -1.62874103    
   5.07209921      -2.10093188     -0.157000005       1402.46484      -1.62761664    
   4.40452194      -1.82441294     -0.246999994       1402.46484      -1.62761664    
   4.67581606     -0.930077016     -0.246999994       1402.46484      -1.62761664    
   5.38451099      -1.07104599     -0.157000005       1402.46484      -1.62761664    
   4.56476784      -3.05008101     -0.157000005       2281.37329      -1.62546909    
   3.96396494      -2.64863706     -0.246999994       2281.37329      -1.62546909    
   4.40452194      -1.82441294     -0.246999994       2281.37329      -1.62546909    
   5.07209921      -2.10093188     -0.157000005       2281.37329      -1.62546909    
   3.88201594      -3.88201594     -0.157000005       3072.97266      -1.62573612    
   3.37107491      -3.37107491     -0.246999994       3072.97266      -1.62573612    
   3.96396494      -2.64863706     -0.246999994       3072.97266      -1.62573612    
   4.56476784      -3.05008101     -0.157000005       3072.97266      -1.62573612    
   3.05008101      -4.56476784     -0.157000005       3793.17212      -1.62341428    
   2.64863706      -3.96396494     -0.246999994       3793.17212      -1.62341428    
   3.37107491      -3.37107491     -0.246999994       3793.17212      -1.62341428    
   3.88201594      -3.88201594     -0.157000005       3793.17212      -1.62341428    
   2.10093188      -5.07209921     -0.157000005       4270.57764      -1.62737381    
   1.82441294      -4.40452194     -0.246999994       4270.57764      -1.62737381    
   2.64863706      -3.96396494     -0.246999994       4270.57764      -1.62737381    
   3.05008101      -4.56476784     -0.157000005       4270.57764      -1.62737381    
   1.07104599      -5.38451099     -0.157000005       4625.06543      -1.62645745    
  0.930077016      -4.67581606     -0.246999994       4625.06543      -1.62645745    
   1.82441294      -4.40452194     -0.246999994       4625.06543      -1.62645745    
   2.10093188      -5.07209921     -0.157000005       4625.06543      -1.62645745    
   0.00000000      -1.87709999     -0.606999993       3650.79004      -1.57612646    
   0.00000000      -1.36500001     -0.606999993       3650.79004      -1.57612646    
  0.266297996      -1.33877206     -0.606999993       3650.79004      -1.57612646    
  0.366203994      -1.84103203     -0.606999993       3650.79004      -1.57612646    
   0.00000000      -1.87709999     -0.606999993       2918.47363      -1.57686675    
   0.00000000      -2.59967995     -0.517000020       2918.47363      -1.57686675    
 -0.507171988      -2.54972792     -0.517000020       2918.47363      -1.57686675    
 -0.366203994      -1.84103203     -0.606999993       2918.47363      -1.57686675    
 -0.366203994      -1.84103203     -0.606999993       3650.82812      -1.57611454    
 -0.266297996      -1.33877206     -0.606999993       3650.82812      -1.57611454    
   0.00000000      -1.36500001     -0.606999993       3650.82812      -1.57611454    
   0.00000000      -1.87709999     -0.606999993       3650.82812      -1.57611454    
 -0.366203994      -1.84103203     -0.606999993       2799.55786      -1.57687914    
 -0.507171988      -2.54972792     -0.517000020       2799.55786      -1.57687914    
 -0.994853973      -2.40179110     -0.517000020       2799.55786      -1.57687914    
 -0.718334973      -1.73421395     -0.606999993       2799.55786      -1.57687914    
 -0.718334973      -1.73421395     -0.606999993       3507.64697      -1.57613170    
 -0.522363007      -1.26109600     -0.606999993       3507.64697      -1.57613170    
 -0.266297996      -1.33877206     -0.606999993       3507.64697      -1.57613170    
 -0.366203994      -1.84103203     -0.606999993       3507.64697      -1.57613170    
 -0.718334973      -1.73421395     -0.606999993       2575.21045      -1.57692432    
 -0.994853973      -2.40179110     -0.517000020       2575.21045      -1.57692432    
  -1.44430494      -2.16155505     -0.517000020       2575.21045      -1.57692432    
  -1.04286098      -1.56075203     -0.606999993       2575.21045      -1.57692432    
  -1.04286098      -1.56075203     -0.606999993       3230.45239      -1.57615674    
 -0.758352995      -1.13495600     -0.606999993       3230.45239      -1.57615674    
 -0.522363007      -1.26109600     -0.606999993       3230.45239      -1.57615674    
 -0.718334973      -1.73421395     -0.606999993       3230.45239      -1.57615674    
  -1.04286098      -1.56075203     -0.606999993       2258.92261      -1.57692909    
  -1.44430494      -2.16155505     -0.517000020       2258.92261      -1.57692909    
  -1.83825099      -1.83825099     -0.517000020       2258.92261      -1.57692909    
  -1.32730997      -1.32730997     -0.606999993       2258.92261      -1.57692909    
  -1.32730997      -1.32730997     -0.606999993       2831.84277      -1.57615840    
 -0.965201020     -0.965201020     -0.606999993       2831.84277      -1.57615840    
 -0.758352995      -1.13495600     -0.606999993       2831.84277      -1.57615840    
  -1.04286098      -1.56075203     -0.606999993       2831.84277      -1.57615840    
  -1.32730997      -1.32730997     -0.606999993       1858.77466      -1.57689786    
  -1.83825099      -1.83825099     -0.517000020       1858.77466      -1.57689786    
  -2.16155505      -1.44430494     -0.517000020       1858.77466      -1.57689786    
  -1.56075203      -1.04286098     -0.606999993       1858.77466      -1.57689786    
  -1.56075203      -1.04286098     -0.606999993       2325.69653      -1.57614505    
  -1.13495600     -0.758352995     -0.606999993       2325.69653      -1.57614505    
 -0.965201020     -0.965201020     -0.606999993       2325.69653      -1.57614505    
  -1.32730997      -1.32730997     -0.606999993       2325.69653      -1.57614505    
  -1.56075203      -1.04286098     -0.606999993       1383.69373      -1.57682037    
  -2.16155505      -1.44430494     -0.517000020       1383.69373      -1.57682037    
  -2.40179110     -0.994853973     -0.517000020       1383.69373      -1.57682037    
  -1.73421395     -0.718334973     -0.606999993       1383.69373      -1.57682037    
  -1.73421395     -0.718334973     -0.606999993       1728.90234      -1.57611954    
  -1.26109600     -0.522363007     -0.606999993       1728.90234      -1.57611954    
  -1.13495600     -0.758352995     -0.606999993       1728.90234      -1.57611954    
  -1.56075203      -1.04286098     -0.606999993       1728.90234      -1.57611954    
  -1.73421395     -0.718334973     -0.606999993       851.025635      -1.57672131    
  -2.40179110     -0.994853973     -0.517000020       851.025635      -1.57672131    
  -2.54972792     -0.507171988     -0.517000020       851.025635      -1.57672131    
  -1.84103203     -0.366203994     -0.606999993       851.025635      -1.57672131    
  -1.84103203     -0.366203994     -0.606999993       1063.34729      -1.57607007    
  -1.33877206     -0.266297996     -0.606999993       1063.34729      -1.57607007    
  -1.26109600     -0.522363007     -0.606999993       1063.34729      -1.57607007    
  -1.73421395     -0.718334973     -0.606999993       1063.34729      -1.57607007    
  -1.84103203     -0.366203994     -0.606999993       285.758301      -1.57659030    
  -2.54972792     -0.507171988     -0.517000020       285.758301      -1.57659030    
  -2.59967995       0.00000000     -0.517000020       285.758301      -1.57659030    
  -1.87709999       0.00000000     -0.606999993       285.758301      -1.57659030    
  -1.87709999       0.00000000     -0.606999993       355.867279      -1.57609141    
  -1.36500001       0.00000000     -0.606999993       355.867279      -1.57609141    
  -1.33877206     -0.266297996     -0.606999993       355.867279      -1.57609141    
  -1.84103203     -0.366203994     -0.606999993       355.867279      -1.57609141    
  -1.87709999       0.00000000     -0.606999993       288.766083       1.56486475    
  -2.59967995       0.00000000     -0.517000020       288.766083       1.56486475    
  -2.54972792      0.507171988     -0.517000020       288.766083       1.56486475    
  -1.84103203      0.366203994     -0.606999993       288.766083       1.56486475    
  -1.84103203      0.366203994     -0.606999993       365.243927       1.56569672    
  -1.33877206      0.266297996     -0.606999993       365.243927       1.56569672    
  -1.36500001       0.00000000     -0.606999993       365.243927       1.56569672    
  -1.87709999       0.00000000     -0.606999993       365.243927       1.56569672    
  -1.84103203      0.366203994     -0.606999993       853.625732       1.56485581    
  -2.54972792      0.507171988     -0.517000020       853.625732       1.56485581    
  -2.40179110      0.994853973     -0.517000020       853.625732       1.56485581    
  -1.73421395      0.718334973     -0.606999993       853.625732       1.56485581    
  -1.73421395      0.718334973     -0.606999993       1072.42639       1.56561816    
  -1.26109600      0.522363007     -0.606999993       1072.42639       1.56561816    
  -1.33877206      0.266297996     -0.606999993       1072.42639       1.56561816    
  -1.84103203      0.366203994     -0.606999993       1072.42639       1.56561816    
  -1.73421395      0.718334973     -0.606999993       1386.90857       1.56477535    
  -2.40179110      0.994853973     -0.517000020       1386.90857       1.56477535    
  -2.16155505       1.44430494     -0.517000020       1386.90857       1.56477535    
  -1.56075203       1.04286098     -0.606999993       1386.90857       1.56477535    
  -1.56075203       1.04286098     -0.606999993       1737.95703       1.56557298    
  -1.13495600      0.758352995     -0.606999993       1737.95703       1.56557298    
  -1.26109600      0.522363007     -0.606999993       1737.95703       1.56557298    
  -1.73421395      0.718334973     -0.606999993       1737.95703       1.56557298    
  -1.56075203       1.04286098     -0.606999993       1863.34631       1.56472695    
  -2.16155505       1.44430494     -0.517000020       1863.34631       1.56472695    
  -1.83825099       1.83825099     -0.517000020       1863.34631       1.56472695    
  -1.32730997       1.32730997     -0.606999993       1863.34631       1.56472695    
  -1.32730997       1.32730997     -0.606999993       2334.95850       1.56553829    
 -0.965201020      0.965201020     -0.606999993       2334.95850       1.56553829    
  -1.13495600      0.758352995     -0.606999993       2334.95850       1.56553829    
  -1.56075203       1.04286098     -0.606999993       2334.95850       1.56553829    
  -1.32730997       1.32730997     -0.606999993       2264.22778       1.56470346    
  -1.83825099       1.83825099     -0.517000020       2264.22778       1.56470346    
  -1.44430494       2.16155505     -0.517000020       2264.22778       1.56470346    
  -1.04286098       1.56075203     -0.606999993       2264.22778       1.56470346    
  -1.04286098       1.56075203     -0.606999993       2840.90503       1.56552470    
 -0.758352995       1.13495600     -0.606999993       2840.90503       1.56552470    
 -0.965201020      0.965201020     -0.606999993       2840.90503       1.56552470    
  -1.32730997       1.32730997     -0.606999993       2840.90503       1.56552470    
  -1.04286098       1.56075203     -0.606999993       2580.33398       1.56472790    
  -1.44430494       2.16155505     -0.517000020       2580.33398       1.56472790    
 -0.994853973       2.40179110     -0.517000020       2580.33398       1.56472790    
 -0.718334973       1.73421395     -0.606999993       2580.33398       1.56472790    
 -0.718334973       1.73421395     -0.606999993       3239.05396       1.56552541    
 -0.522363007       1.26109600     -0.606999993       3239.05396       1.56552541    
 -0.758352995       1.13495600     -0.606999993       3239.05396       1.56552541    
  -1.04286098       1.56075203     -0.606999993       3239.05396       1.56552541    
 -0.718334973       1.73421395     -0.606999993       2804.19531       1.56476450    
 -0.994853973       2.40179110     -0.517000020       2804.19531       1.56476450    
 -0.507171988       2.54972792     -0.517000020       2804.19531       1.56476450    
 -0.366203994       1.84103203     -0.606999993       2804.19531       1.56476450    
 -0.366203994       1.84103203     -0.606999993       3515.67822       1.56555593    
 -0.266297996       1.33877206     -0.606999993       3515.67822       1.56555593    
 -0.522363007       1.26109600     -0.606999993       3515.67822       1.56555593    
 -0.718334973       1.73421395     -0.606999993       3515.67822       1.56555593    
 -0.366203994       1.84103203     -0.606999993       2922.83154       1.56478202    
 -0.507171988       2.54972792     -0.517000020       2922.83154       1.56478202    
   0.00000000       2.59967995     -0.517000020       2922.83154       1.56478202    
   0.00000000       1.87709999     -0.606999993       2922.83154       1.56478202    
   0.00000000       1.87709999     -0.606999993       3658.18652       1.56557441    
   0.00000000       1.36500001     -0.606999993       3658.18652       1.56557441    
 -0.266297996       1.33877206     -0.606999993       3658.18652       1.56557441    
 -0.366203994       1.84103203     -0.606999993       3658.18652       1.56557441    
   0.00000000       1.87709999     -0.606999993       2922.70801       1.56479061    
   0.00000000       2.59967995     -0.517000020       2922.70801       1.56479061    
  0.507171988       2.54972792     -0.517000020       2922.70801       1.56479061    
  0.366203994       1.84103203     -0.606999993       2922.70801       1.56479061    
  0.366203994       1.84103203     -0.606999993       3657.52319       1.56557465    
  0.266297996       1.33877206     -0.606999993       3657.52319       1.56557465    
   0.00000000       1.36500001     -0.606999993       3657.52319       1.56557465    
   0.00000000       1.87709999     -0.606999993       3657.52319       1.56557465    
  0.366203994       1.84103203     -0.606999993       2803.84058       1.56477237    
  0.507171988       2.54972792     -0.517000020       2803.84058       1.56477237    
  0.994853973       2.40179110     -0.517000020       2803.84058       1.56477237    
  0.718334973       1.73421395     -0.606999993       2803.84058       1.56477237    
  0.718334973       1.73421395     -0.606999993       3513.81226       1.56555784    
  0.522363007       1.26109600     -0.606999993       3513.81226       1.56555784    
  0.266297996       1.33877206     -0.606999993       3513.81226       1.56555784    
  0.366203994       1.84103203     -0.606999993       3513.81226       1.56555784    
  0.718334973       1.73421395     -0.606999993       2579.89697       1.56476009    
  0.994853973       2.40179110     -0.517000020       2579.89697       1.56476009    
   1.44430494       2.16155505     -0.517000020       2579.89697       1.56476009    
   1.04286098       1.56075203     -0.606999993       2579.89697       1.56476009    
   1.04286098       1.56075203     -0.606999993       3236.33423       1.56555426    
  0.758352995       1.13495600     -0.606999993       3236.33423       1.56555426    
  0.522363007       1.26109600     -0.606999993       3236.33423       1.56555426    
  0.718334973       1.73421395     -0.606999993       3236.33423       1.56555426    
   1.04286098       1.56075203     -0.606999993       2263.88428       1.56475568    
   1.44430494       2.16155505     -0.517000020       2263.88428       1.56475568    
   1.83825099       1.83825099     -0.517000020       2263.88428       1.56475568    
   1.32730997       1.32730997     -0.606999993       2263.88428       1.56475568    
   1.32730997       1.32730997     -0.606999993       2837.55908       1.56555712    
  0.965201020      0.965201020     -0.606999993       2837.55908       1.56555712    
  0.758352995       1.13495600     -0.606999993       2837.55908       1.56555712    
   1.04286098       1.56075203     -0.606999993       2837.55908       1.56555712    
   1.32730997       1.32730997     -0.606999993       1863.06567       1.56480920    
   1.83825099       1.83825099     -0.517000020       1863.06567       1.56480920    
   2.16155505       1.44430494     -0.517000020       1863.06567       1.56480920    
   1.56075203       1.04286098     -0.606999993       1863.06567       1.56480920    
   1.56075203       1.04286098     -0.606999993       2331.14404       1.56558454    
   1.13495600      0.758352995     -0.606999993       2331.14404       1.56558454    
  0.965201020      0.965201020     -0.606999993       2331.14404       1.56558454    
   1.32730997       1.32730997     -0.606999993       2331.14404       1.56558454    
   1.56075203       1.04286098     -0.606999993       1386.57898       1.56491446    
   2.16155505       1.44430494     -0.517000020       1386.57898       1.56491446    
   2.40179110      0.994853973     -0.517000020       1386.57898       1.56491446    
   1.73421395      0.718334973     -0.606999993       1386.57898       1.56491446    
   1.73421395      0.718334973     -0.606999993       1733.30261       1.56564033    
   1.26109600      0.522363007     -0.606999993       1733.30261       1.56564033    
   1.13495600      0.758352995     -0.606999993       1733.30261       1.56564033    
   1.56075203       1.04286098     -0.606999993       1733.30261       1.56564033    
   1.73421395      0.718334973     -0.606999993       853.119263       1.56504047    
   2.40179110      0.994853973     -0.517000020       853.119263       1.56504047    
   2.54972792      0.507171988     -0.517000020       853.119263       1.56504047    
   1.84103203      0.366203994     -0.606999993       853.119263       1.56504047    
   1.84103203      0.366203994     -0.606999993       1066.85010       1.56574559    
   1.33877206      0.266297996     -0.606999993       1066.85010       1.56574559    
   1.26109600      0.522363007     -0.606999993       1066.85010       1.56574559    
   1.73421395      0.718334973     -0.606999993       1066.85010       1.56574559    
   1.84103203      0.366203994     -0.606999993       288.203308       1.56538618    
   2.54972792      0.507171988     -0.517000020       288.203308       1.56538618    
   2.59967995       0.00000000     -0.517000020       288.203308       1.56538618    
   1.87709999       0.00000000     -0.606999993       288.203308       1.56538618    
   1.87709999       0.00000000     -0.606999993       359.294434       1.56610954    
   1.36500001       0.00000000     -0.606999993       359.294434       1.56610954    
   1.33877206      0.266297996     -0.606999993       359.294434       1.56610954    
   1.84103203      0.366203994     -0.606999993       359.294434       1.56610954    
   1.87709999       0.00000000     -0.606999993       286.219116      -1.57712686    
   2.59967995       0.00000000     -0.517000020       286.219116      -1.57712686    
   2.54972792     -0.507171988     -0.517000020       286.219116      -1.57712686    
   1.84103203     -0.366203994     -0.606999993       286.219116      -1.57712686    
   1.84103203     -0.366203994     -0.606999993       361.648834      -1.57652938    
   1.33877206     -0.266297996     -0.606999993       361.648834      -1.57652938    
   1.36500001       0.00000000     -0.606999993       361.648834      -1.57652938    
   1.87709999       0.00000000     -0.606999993       361.648834      -1.57652938    
   1.84103203     -0.366203994     -0.606999993       851.214478      -1.57692027    
   2.54972792     -0.507171988     -0.517000020       851.214478      -1.57692027    
   2.40179110     -0.994853973     -0.517000020       851.214478      -1.57692027    
   1.73421395     -0.718334973     -0.606999993       851.214478      -1.57692027    
   1.73421395     -0.718334973     -0.606999993       1068.48364      -1.57622194    
   1.26109600     -0.522363007     -0.606999993       1068.48364      -1.57622194    
   1.33877206     -0.266297996     -0.606999993       1068.48364      -1.57622194    
   1.84103203     -0.366203994     -0.606999993       1068.48364      -1.57622194    
   1.73421395     -0.718334973     -0.606999993       1383.47644      -1.57695985    
   2.40179110     -0.994853973     -0.517000020       1383.47644      -1.57695985    
   2.16155505      -1.44430494     -0.517000020       1383.47644      -1.57695985    
   1.56075203      -1.04286098     -0.606999993       1383.47644      -1.57695985    
   1.56075203      -1.04286098     -0.606999993       1733.06458      -1.57621717    
   1.13495600     -0.758352995     -0.606999993       1733.06458      -1.57621717    
   1.26109600     -0.522363007     -0.606999993       1733.06458      -1.57621717    