 VARIABLES="X" "Y" "Z" "abs(p) (Pa)" "angle(p) (rad)"
ZONE N=   2709,E =    2358, F=FEPOINT, ET=QUADRILATERAL
   0.00000000      -5.48999977     -0.157000005       1351.71350       2.09031653    
   0.00000000      -4.76741982     -0.246999994       1351.71350       2.09031653    
  0.930077016      -4.67581606     -0.246999994       1351.71350       2.09031653    
   1.07104599      -5.38451099     -0.157000005       1351.71350       2.09031653    
  -1.07104599      -5.38451099     -0.157000005       1352.29688       2.08989882    
 -0.930077016      -4.67581606     -0.246999994       1352.29688       2.08989882    
   0.00000000      -4.76741982     -0.246999994       1352.29688       2.08989882    
   0.00000000      -5.48999977     -0.157000005       1352.29688       2.08989882    
  -2.10093188      -5.07209921     -0.157000005       1356.13379       2.08709407    
  -1.82441294      -4.40452194     -0.246999994       1356.13379       2.08709407    
 -0.930077016      -4.67581606     -0.246999994       1356.13379       2.08709407    
  -1.07104599      -5.38451099     -0.157000005       1356.13379       2.08709407    
  -3.05008101      -4.56476784     -0.157000005       1353.15332       2.08931422    
  -2.64863706      -3.96396494     -0.246999994       1353.15332       2.08931422    
  -1.82441294      -4.40452194     -0.246999994       1353.15332       2.08931422    
  -2.10093188      -5.07209921     -0.157000005       1353.15332       2.08931422    
  -3.88201594      -3.88201594     -0.157000005       1353.45667       2.08905625    
  -3.37107491      -3.37107491     -0.246999994       1353.45667       2.08905625    
  -2.64863706      -3.96396494     -0.246999994       1353.45667       2.08905625    
  -3.05008101      -4.56476784     -0.157000005       1353.45667       2.08905625    
  -4.56476784      -3.05008101     -0.157000005       1357.91785       2.08571935    
  -3.96396494      -2.64863706     -0.246999994       1357.91785       2.08571935    
  -3.37107491      -3.37107491     -0.246999994       1357.91785       2.08571935    
  -3.88201594      -3.88201594     -0.157000005       1357.91785       2.08571935    
  -5.07209921      -2.10093188     -0.157000005       1353.83997       2.08867979    
  -4.40452194      -1.82441294     -0.246999994       1353.83997       2.08867979    
  -3.96396494      -2.64863706     -0.246999994       1353.83997       2.08867979    
  -4.56476784      -3.05008101     -0.157000005       1353.83997       2.08867979    
  -5.38451099      -1.07104599     -0.157000005       1353.27197       2.08910966    
  -4.67581606     -0.930077016     -0.246999994       1353.27197       2.08910966    
  -4.40452194      -1.82441294     -0.246999994       1353.27197       2.08910966    
  -5.07209921      -2.10093188     -0.157000005       1353.27197       2.08910966    
  -5.48999977       0.00000000     -0.157000005       1357.16711       2.08624744    
  -4.76741982       0.00000000     -0.246999994       1357.16711       2.08624744    
  -4.67581606     -0.930077016     -0.246999994       1357.16711       2.08624744    
  -5.38451099      -1.07104599     -0.157000005       1357.16711       2.08624744    
  -5.38451099       1.07104599     -0.157000005       1357.77612       2.08579969    
  -4.67581606      0.930077016     -0.246999994       1357.77612       2.08579969    
  -4.76741982       0.00000000     -0.246999994       1357.77612       2.08579969    
  -5.48999977       0.00000000     -0.157000005       1357.77612       2.08579969    
  -5.07209921       2.10093188     -0.157000005       1357.64429       2.08586264    
  -4.40452194       1.82441294     -0.246999994       1357.64429       2.08586264    
  -4.67581606      0.930077016     -0.246999994       1357.64429       2.08586264    
  -5.38451099       1.07104599     -0.157000005       1357.64429       2.08586264    
  -4.56476784       3.05008101     -0.157000005       1357.07947       2.08626437    
  -3.96396494       2.64863706     -0.246999994       1357.07947       2.08626437    
  -4.40452194       1.82441294     -0.246999994       1357.07947       2.08626437    
  -5.07209921       2.10093188     -0.157000005       1357.07947       2.08626437    
  -3.88201594       3.88201594     -0.157000005       1353.54053       2.08889437    
  -3.37107491       3.37107491     -0.246999994       1353.54053       2.08889437    
  -3.96396494       2.64863706     -0.246999994       1353.54053       2.08889437    
  -4.56476784       3.05008101     -0.157000005       1353.54053       2.08889437    
  -3.05008101       4.56476784     -0.157000005       1356.54639       2.08670187    
  -2.64863706       3.96396494     -0.246999994       1356.54639       2.08670187    
  -3.37107491       3.37107491     -0.246999994       1356.54639       2.08670187    
  -3.88201594       3.88201594     -0.157000005       1356.54639       2.08670187    
  -2.10093188       5.07209921     -0.157000005       1353.56677       2.08888268    
  -1.82441294       4.40452194     -0.246999994       1353.56677       2.08888268    
  -2.64863706       3.96396494     -0.246999994       1353.56677       2.08888268    
  -3.05008101       4.56476784     -0.157000005       1353.56677       2.08888268    
  -1.07104599       5.38451099     -0.157000005       1356.49048       2.08671331    
 -0.930077016       4.67581606     -0.246999994       1356.49048       2.08671331    
  -1.82441294       4.40452194     -0.246999994       1356.49048       2.08671331    
  -2.10093188       5.07209921     -0.157000005       1356.49048       2.08671331    
   0.00000000       5.48999977     -0.157000005       1353.43250       2.08892822    
   0.00000000       4.76741982     -0.246999994       1353.43250       2.08892822    
 -0.930077016       4.67581606     -0.246999994       1353.43250       2.08892822    
  -1.07104599       5.38451099     -0.157000005       1353.43250       2.08892822    
   1.07104599       5.38451099     -0.157000005       1356.38281       2.08673286    
  0.930077016       4.67581606     -0.246999994       1356.38281       2.08673286    
   0.00000000       4.76741982     -0.246999994       1356.38281       2.08673286    
   0.00000000       5.48999977     -0.157000005       1356.38281       2.08673286    
   2.10093188       5.07209921     -0.157000005       1353.22656       2.08907986    
   1.82441294       4.40452194     -0.246999994       1353.22656       2.08907986    
  0.930077016       4.67581606     -0.246999994       1353.22656       2.08907986    
   1.07104599       5.38451099     -0.157000005       1353.22656       2.08907986    
   3.05008101       4.56476784     -0.157000005       1353.31775       2.08898425    
   2.64863706       3.96396494     -0.246999994       1353.31775       2.08898425    
   1.82441294       4.40452194     -0.246999994       1353.31775       2.08898425    
   2.10093188       5.07209921     -0.157000005       1353.31775       2.08898425    
   3.88201594       3.88201594     -0.157000005       1357.53345       2.08584070    
   3.37107491       3.37107491     -0.246999994       1357.53345       2.08584070    
   2.64863706       3.96396494     -0.246999994       1357.53345       2.08584070    
   3.05008101       4.56476784     -0.157000005       1357.53345       2.08584070    
   4.56476784       3.05008101     -0.157000005       1357.08228       2.08610106    
   3.96396494       2.64863706     -0.246999994       1357.08228       2.08610106    
   3.37107491       3.37107491     -0.246999994       1357.08228       2.08610106    
   3.88201594       3.88201594     -0.157000005       1357.08228       2.08610106    
   5.07209921       2.10093188     -0.157000005       1357.71289       2.08560848    
   4.40452194       1.82441294     -0.246999994       1357.71289       2.08560848    
   3.96396494       2.64863706     -0.246999994       1357.71289       2.08560848    
   4.56476784       3.05008101     -0.157000005       1357.71289       2.08560848    
   5.38451099       1.07104599     -0.157000005       1353.04993       2.08907676    
   4.67581606      0.930077016     -0.246999994       1353.04993       2.08907676    
   4.40452194       1.82441294     -0.246999994       1353.04993       2.08907676    
   5.07209921       2.10093188     -0.157000005       1353.04993       2.08907676    
   5.48999977       0.00000000     -0.157000005       1351.98267       2.08989954    
   4.76741982       0.00000000     -0.246999994       1351.98267       2.08989954    
   4.67581606      0.930077016     -0.246999994       1351.98267       2.08989954    
   5.38451099       1.07104599     -0.157000005       1351.98267       2.08989954    
   5.38451099      -1.07104599     -0.157000005       1351.63550       2.09016299    
   4.67581606     -0.930077016     -0.246999994       1351.63550       2.09016299    
   4.76741982       0.00000000     -0.246999994       1351.63550       2.09016299    
   5.48999977       0.00000000     -0.157000005       1351.63550       2.09016299    
   5.07209921      -2.10093188     -0.157000005       1351.40479       2.09032869    
   4.40452194      -1.82441294     -0.246999994       1351.40479       2.09032869    
   4.67581606     -0.930077016     -0.246999994       1351.40479       2.09032869    
   5.38451099      -1.07104599     -0.157000005       1351.40479       2.09032869    
   4.56476784      -3.05008101     -0.157000005       1351.37463       2.09036970    
   3.96396494      -2.64863706     -0.246999994       1351.37463       2.09036970    
   4.40452194      -1.82441294     -0.246999994       1351.37463       2.09036970    
   5.07209921      -2.10093188     -0.157000005       1351.37463       2.09036970    
   3.88201594      -3.88201594     -0.157000005       1351.94031       2.09001637    
   3.37107491      -3.37107491     -0.246999994       1351.94031       2.09001637    
   3.96396494      -2.64863706     -0.246999994       1351.94031       2.09001637    
   4.56476784      -3.05008101     -0.157000005       1351.94031       2.09001637    
   3.05008101      -4.56476784     -0.157000005       1355.60144       2.08737659    
   2.64863706      -3.96396494     -0.246999994       1355.60144       2.08737659    
   3.37107491      -3.37107491     -0.246999994       1355.60144       2.08737659    
   3.88201594      -3.88201594     -0.157000005       1355.60144       2.08737659    
   2.10093188      -5.07209921     -0.157000005       1352.29456       2.08986473    
   1.82441294      -4.40452194     -0.246999994       1352.29456       2.08986473    
   2.64863706      -3.96396494     -0.246999994       1352.29456       2.08986473    
   3.05008101      -4.56476784     -0.157000005       1352.29456       2.08986473    
   1.07104599      -5.38451099     -0.157000005       1351.72021       2.09031320    
  0.930077016      -4.67581606     -0.246999994       1351.72021       2.09031320    
   1.82441294      -4.40452194     -0.246999994       1351.72021       2.09031320    
   2.10093188      -5.07209921     -0.157000005       1351.72021       2.09031320    
   0.00000000      -1.87709999     -0.606999993       2031.59985       1.85180819    
   0.00000000      -1.36500001     -0.606999993       2031.59985       1.85180819    
  0.266297996      -1.33877206     -0.606999993       2031.59985       1.85180819    
  0.366203994      -1.84103203     -0.606999993       2031.59985       1.85180819    
   0.00000000      -1.87709999     -0.606999993       1959.72375       1.85414422    
   0.00000000      -2.59967995     -0.517000020       1959.72375       1.85414422    
 -0.507171988      -2.54972792     -0.517000020       1959.72375       1.85414422    
 -0.366203994      -1.84103203     -0.606999993       1959.72375       1.85414422    
 -0.366203994      -1.84103203     -0.606999993       2031.70947       1.85179162    
 -0.266297996      -1.33877206     -0.606999993       2031.70947       1.85179162    
   0.00000000      -1.36500001     -0.606999993       2031.70947       1.85179162    
   0.00000000      -1.87709999     -0.606999993       2031.70947       1.85179162    
 -0.366203994      -1.84103203     -0.606999993       1956.11743       1.85463476    
 -0.507171988      -2.54972792     -0.517000020       1956.11743       1.85463476    
 -0.994853973      -2.40179110     -0.517000020       1956.11743       1.85463476    
 -0.718334973      -1.73421395     -0.606999993       1956.11743       1.85463476    
 -0.718334973      -1.73421395     -0.606999993       2030.19397       1.85198522    
 -0.522363007      -1.26109600     -0.606999993       2030.19397       1.85198522    
 -0.266297996      -1.33877206     -0.606999993       2030.19397       1.85198522    
 -0.366203994      -1.84103203     -0.606999993       2030.19397       1.85198522    
 -0.718334973      -1.73421395     -0.606999993       1953.14502       1.85502505    
 -0.994853973      -2.40179110     -0.517000020       1953.14502       1.85502505    
  -1.44430494      -2.16155505     -0.517000020       1953.14502       1.85502505    
  -1.04286098      -1.56075203     -0.606999993       1953.14502       1.85502505    
  -1.04286098      -1.56075203     -0.606999993       2029.27734       1.85208845    
 -0.758352995      -1.13495600     -0.606999993       2029.27734       1.85208845    
 -0.522363007      -1.26109600     -0.606999993       2029.27734       1.85208845    
 -0.718334973      -1.73421395     -0.606999993       2029.27734       1.85208845    
  -1.04286098      -1.56075203     -0.606999993       1954.22632       1.85484624    
  -1.44430494      -2.16155505     -0.517000020       1954.22632       1.85484624    
  -1.83825099      -1.83825099     -0.517000020       1954.22632       1.85484624    
  -1.32730997      -1.32730997     -0.606999993       1954.22632       1.85484624    
  -1.32730997      -1.32730997     -0.606999993       2030.70325       1.85186255    
 -0.965201020     -0.965201020     -0.606999993       2030.70325       1.85186255    
 -0.758352995      -1.13495600     -0.606999993       2030.70325       1.85186255    
  -1.04286098      -1.56075203     -0.606999993       2030.70325       1.85186255    
  -1.32730997      -1.32730997     -0.606999993       1958.63928       1.85419261    
  -1.83825099      -1.83825099     -0.517000020       1958.63928       1.85419261    
  -2.16155505      -1.44430494     -0.517000020       1958.63928       1.85419261    
  -1.56075203      -1.04286098     -0.606999993       1958.63928       1.85419261    
  -1.56075203      -1.04286098     -0.606999993       2034.05896       1.85137355    
  -1.13495600     -0.758352995     -0.606999993       2034.05896       1.85137355    
 -0.965201020     -0.965201020     -0.606999993       2034.05896       1.85137355    
  -1.32730997      -1.32730997     -0.606999993       2034.05896       1.85137355    
  -1.56075203      -1.04286098     -0.606999993       1962.36487       1.85364079    
  -2.16155505      -1.44430494     -0.517000020       1962.36487       1.85364079    
  -2.40179110     -0.994853973     -0.517000020       1962.36487       1.85364079    
  -1.73421395     -0.718334973     -0.606999993       1962.36487       1.85364079    
  -1.73421395     -0.718334973     -0.606999993       2037.08044       1.85094512    
  -1.26109600     -0.522363007     -0.606999993       2037.08044       1.85094512    
  -1.13495600     -0.758352995     -0.606999993       2037.08044       1.85094512    
  -1.56075203      -1.04286098     -0.606999993       2037.08044       1.85094512    
  -1.73421395     -0.718334973     -0.606999993       1962.36694       1.85361803    
  -2.40179110     -0.994853973     -0.517000020       1962.36694       1.85361803    
  -2.54972792     -0.507171988     -0.517000020       1962.36694       1.85361803    
  -1.84103203     -0.366203994     -0.606999993       1962.36694       1.85361803    
  -1.84103203     -0.366203994     -0.606999993       2038.08948       1.85079098    
  -1.33877206     -0.266297996     -0.606999993       2038.08948       1.85079098    
  -1.26109600     -0.522363007     -0.606999993       2038.08948       1.85079098    
  -1.73421395     -0.718334973     -0.606999993       2038.08948       1.85079098    
  -1.84103203     -0.366203994     -0.606999993       1960.56213       1.85385025    
  -2.54972792     -0.507171988     -0.517000020       1960.56213       1.85385025    
  -2.59967995       0.00000000     -0.517000020       1960.56213       1.85385025    
  -1.87709999       0.00000000     -0.606999993       1960.56213       1.85385025    
  -1.87709999       0.00000000     -0.606999993       2037.84912       1.85080504    
  -1.36500001       0.00000000     -0.606999993       2037.84912       1.85080504    
  -1.33877206     -0.266297996     -0.606999993       2037.84912       1.85080504    
  -1.84103203     -0.366203994     -0.606999993       2037.84912       1.85080504    
  -1.87709999       0.00000000     -0.606999993       1960.87439       1.85379589    
  -2.59967995       0.00000000     -0.517000020       1960.87439       1.85379589    
  -2.54972792      0.507171988     -0.517000020       1960.87439       1.85379589    
  -1.84103203      0.366203994     -0.606999993       1960.87439       1.85379589    
  -1.84103203      0.366203994     -0.606999993       2038.09863       1.85075986    
  -1.33877206      0.266297996     -0.606999993       2038.09863       1.85075986    
  -1.36500001       0.00000000     -0.606999993       2038.09863       1.85075986    
  -1.87709999       0.00000000     -0.606999993       2038.09863       1.85075986    
  -1.84103203      0.366203994     -0.606999993       1963.82898       1.85337591    
  -2.54972792      0.507171988     -0.517000020       1963.82898       1.85337591    
  -2.40179110      0.994853973     -0.517000020       1963.82898       1.85337591    
  -1.73421395      0.718334973     -0.606999993       1963.82898       1.85337591    
  -1.73421395      0.718334973     -0.606999993       2039.19519       1.85060036    
  -1.26109600      0.522363007     -0.606999993       2039.19519       1.85060036    
  -1.33877206      0.266297996     -0.606999993       2039.19519       1.85060036    
  -1.84103203      0.366203994     -0.606999993       2039.19519       1.85060036    
  -1.73421395      0.718334973     -0.606999993       1965.95081       1.85307384    
  -2.40179110      0.994853973     -0.517000020       1965.95081       1.85307384    
  -2.16155505       1.44430494     -0.517000020       1965.95081       1.85307384    
  -1.56075203       1.04286098     -0.606999993       1965.95081       1.85307384    
  -1.56075203       1.04286098     -0.606999993       2039.54871       1.85054386    
  -1.13495600      0.758352995     -0.606999993       2039.54871       1.85054386    
  -1.26109600      0.522363007     -0.606999993       2039.54871       1.85054386    
  -1.73421395      0.718334973     -0.606999993       2039.54871       1.85054386    
  -1.56075203       1.04286098     -0.606999993       1963.98120       1.85334396    
  -2.16155505       1.44430494     -0.517000020       1963.98120       1.85334396    
  -1.83825099       1.83825099     -0.517000020       1963.98120       1.85334396    
  -1.32730997       1.32730997     -0.606999993       1963.98120       1.85334396    
  -1.32730997       1.32730997     -0.606999993       2037.94604       1.85075688    
 -0.965201020      0.965201020     -0.606999993       2037.94604       1.85075688    
  -1.13495600      0.758352995     -0.606999993       2037.94604       1.85075688    
  -1.56075203       1.04286098     -0.606999993       2037.94604       1.85075688    
  -1.32730997       1.32730997     -0.606999993       1959.89355       1.85391438    
  -1.83825099       1.83825099     -0.517000020       1959.89355       1.85391438    
  -1.44430494       2.16155505     -0.517000020       1959.89355       1.85391438    
  -1.04286098       1.56075203     -0.606999993       1959.89355       1.85391438    
  -1.04286098       1.56075203     -0.606999993       2035.33850       1.85109758    
 -0.758352995       1.13495600     -0.606999993       2035.33850       1.85109758    
 -0.965201020      0.965201020     -0.606999993       2035.33850       1.85109758    
  -1.32730997       1.32730997     -0.606999993       2035.33850       1.85109758    
  -1.04286098       1.56075203     -0.606999993       1958.15649       1.85415137    
  -1.44430494       2.16155505     -0.517000020       1958.15649       1.85415137    
 -0.994853973       2.40179110     -0.517000020       1958.15649       1.85415137    
 -0.718334973       1.73421395     -0.606999993       1958.15649       1.85415137    
 -0.718334973       1.73421395     -0.606999993       2033.95361       1.85126972    
 -0.522363007       1.26109600     -0.606999993       2033.95361       1.85126972    
 -0.758352995       1.13495600     -0.606999993       2033.95361       1.85126972    
  -1.04286098       1.56075203     -0.606999993       2033.95361       1.85126972    
 -0.718334973       1.73421395     -0.606999993       1960.39783       1.85383344    
 -0.994853973       2.40179110     -0.517000020       1960.39783       1.85383344    
 -0.507171988       2.54972792     -0.517000020       1960.39783       1.85383344    
 -0.366203994       1.84103203     -0.606999993       1960.39783       1.85383344    
 -0.366203994       1.84103203     -0.606999993       2034.64453       1.85116756    
 -0.266297996       1.33877206     -0.606999993       2034.64453       1.85116756    
 -0.522363007       1.26109600     -0.606999993       2034.64453       1.85116756    
 -0.718334973       1.73421395     -0.606999993       2034.64453       1.85116756    
 -0.366203994       1.84103203     -0.606999993       1963.68994       1.85336721    
 -0.507171988       2.54972792     -0.517000020       1963.68994       1.85336721    
   0.00000000       2.59967995     -0.517000020       1963.68994       1.85336721    
   0.00000000       1.87709999     -0.606999993       1963.68994       1.85336721    
   0.00000000       1.87709999     -0.606999993       2035.98621       1.85097623    
   0.00000000       1.36500001     -0.606999993       2035.98621       1.85097623    
 -0.266297996       1.33877206     -0.606999993       2035.98621       1.85097623    
 -0.366203994       1.84103203     -0.606999993       2035.98621       1.85097623    
   0.00000000       1.87709999     -0.606999993       1963.69543       1.85336041    
   0.00000000       2.59967995     -0.517000020       1963.69543       1.85336041    
  0.507171988       2.54972792     -0.517000020       1963.69543       1.85336041    
  0.366203994       1.84103203     -0.606999993       1963.69543       1.85336041    
  0.366203994       1.84103203     -0.606999993       2036.00305       1.85096371    
  0.266297996       1.33877206     -0.606999993       2036.00305       1.85096371    
   0.00000000       1.36500001     -0.606999993       2036.00305       1.85096371    
   0.00000000       1.87709999     -0.606999993       2036.00305       1.85096371    
  0.366203994       1.84103203     -0.606999993       1960.41919       1.85381162    
  0.507171988       2.54972792     -0.517000020       1960.41919       1.85381162    
  0.994853973       2.40179110     -0.517000020       1960.41919       1.85381162    
  0.718334973       1.73421395     -0.606999993       1960.41919       1.85381162    
  0.718334973       1.73421395     -0.606999993       2034.69421       1.85113776    
  0.522363007       1.26109600     -0.606999993       2034.69421       1.85113776    
  0.266297996       1.33877206     -0.606999993       2034.69421       1.85113776    
  0.366203994       1.84103203     -0.606999993       2034.69421       1.85113776    
  0.718334973       1.73421395     -0.606999993       1958.19019       1.85411119    
  0.994853973       2.40179110     -0.517000020       1958.19019       1.85411119    
   1.44430494       2.16155505     -0.517000020       1958.19019       1.85411119    
   1.04286098       1.56075203     -0.606999993       1958.19019       1.85411119    
   1.04286098       1.56075203     -0.606999993       2034.02417       1.85122001    
  0.758352995       1.13495600     -0.606999993       2034.02417       1.85122001    
  0.522363007       1.26109600     -0.606999993       2034.02417       1.85122001    
  0.718334973       1.73421395     -0.606999993       2034.02417       1.85122001    
   1.04286098       1.56075203     -0.606999993       1959.89697       1.85387528    
   1.44430494       2.16155505     -0.517000020       1959.89697       1.85387528    
   1.83825099       1.83825099     -0.517000020       1959.89697       1.85387528    
   1.32730997       1.32730997     -0.606999993       1959.89697       1.85387528    
   1.32730997       1.32730997     -0.606999993       2035.39807       1.85104227    
  0.965201020      0.965201020     -0.606999993       2035.39807       1.85104227    
  0.758352995       1.13495600     -0.606999993       2035.39807       1.85104227    
   1.04286098       1.56075203     -0.606999993       2035.39807       1.85104227    
   1.32730997       1.32730997     -0.606999993       1963.94177       1.85331929    
   1.83825099       1.83825099     -0.517000020       1963.94177       1.85331929    
   2.16155505       1.44430494     -0.517000020       1963.94177       1.85331929    
   1.56075203       1.04286098     -0.606999993       1963.94177       1.85331929    
   1.56075203       1.04286098     -0.606999993       2037.91638       1.85071039    
   1.13495600      0.758352995     -0.606999993       2037.91638       1.85071039    
  0.965201020      0.965201020     -0.606999993       2037.91638       1.85071039    
   1.32730997       1.32730997     -0.606999993       2037.91638       1.85071039    
   1.56075203       1.04286098     -0.606999993       1965.80359       1.85308135    
   2.16155505       1.44430494     -0.517000020       1965.80359       1.85308135    
   2.40179110      0.994853973     -0.517000020       1965.80359       1.85308135    
   1.73421395      0.718334973     -0.606999993       1965.80359       1.85308135    
   1.73421395      0.718334973     -0.606999993       2039.43494       1.85051215    
   1.26109600      0.522363007     -0.606999993       2039.43494       1.85051215    
   1.13495600      0.758352995     -0.606999993       2039.43494       1.85051215    
   1.56075203       1.04286098     -0.606999993       2039.43494       1.85051215    
   1.73421395      0.718334973     -0.606999993       1963.52307       1.85342383    
   2.40179110      0.994853973     -0.517000020       1963.52307       1.85342383    
   2.54972792      0.507171988     -0.517000020       1963.52307       1.85342383    
   1.84103203      0.366203994     -0.606999993       1963.52307       1.85342383    
   1.84103203      0.366203994     -0.606999993       2038.93628       1.85059059    
   1.33877206      0.266297996     -0.606999993       2038.93628       1.85059059    
   1.26109600      0.522363007     -0.606999993       2038.93628       1.85059059    
   1.73421395      0.718334973     -0.606999993       2038.93628       1.85059059    
   1.84103203      0.366203994     -0.606999993       1960.38989       1.85388112    
   2.54972792      0.507171988     -0.517000020       1960.38989       1.85388112    
   2.59967995       0.00000000     -0.517000020       1960.38989       1.85388112    
   1.87709999       0.00000000     -0.606999993       1960.38989       1.85388112    
   1.87709999       0.00000000     -0.606999993       2037.71558       1.85077608    
   1.36500001       0.00000000     -0.606999993       2037.71558       1.85077608    
   1.33877206      0.266297996     -0.606999993       2037.71558       1.85077608    
   1.84103203      0.366203994     -0.606999993       2037.71558       1.85077608    
   1.87709999       0.00000000     -0.606999993       1959.96655       1.85396731    
   2.59967995       0.00000000     -0.517000020       1959.96655       1.85396731    
   2.54972792     -0.507171988     -0.517000020       1959.96655       1.85396731    
   1.84103203     -0.366203994     -0.606999993       1959.96655       1.85396731    
   1.84103203     -0.366203994     -0.606999993       2037.34546       1.85085034    
   1.33877206     -0.266297996     -0.606999993       2037.34546       1.85085034    
   1.36500001       0.00000000     -0.606999993       2037.34546       1.85085034    
   1.87709999       0.00000000     -0.606999993       2037.34546       1.85085034    
   1.84103203     -0.366203994     -0.606999993       1961.69775       1.85375202    
   2.54972792     -0.507171988     -0.517000020       1961.69775       1.85375202    
   2.40179110     -0.994853973     -0.517000020       1961.69775       1.85375202    
   1.73421395     -0.718334973     -0.606999993       1961.69775       1.85375202    
   1.73421395     -0.718334973     -0.606999993       2037.48291       1.85085833    
   1.26109600     -0.522363007     -0.606999993       2037.48291       1.85085833    
   1.33877206     -0.266297996     -0.606999993       2037.48291       1.85085833    
   1.84103203     -0.366203994     -0.606999993       2037.48291       1.85085833    
   1.73421395     -0.718334973     -0.606999993       1961.65430       1.85379601    
   2.40179110     -0.994853973     -0.517000020       1961.65430       1.85379601    
   2.16155505      -1.44430494     -0.517000020       1961.65430       1.85379601    
   1.56075203      -1.04286098     -0.606999993       1961.65430       1.85379601    
   1.56075203      -1.04286098     -0.606999993       2036.38586       1.85104549    
   1.13495600     -0.758352995     -0.606999993       2036.38586       1.85104549    
   1.26109600     -0.522363007     -0.606999993       2036.38586       1.85104549    