 VARIABLES="X" "Y" "Z" "abs(p) (Pa)" "angle(p) (rad)"
ZONE N=   2709,E =    2358, F=FEPOINT, ET=QUADRILATERAL
   0.00000000      -5.48999977     -0.157000005       7.08331013      -1.54462075    
   0.00000000      -4.76741982     -0.246999994       7.08331013      -1.54462075    
  0.930077016      -4.67581606     -0.246999994       7.08331013      -1.54462075    
   1.07104599      -5.38451099     -0.157000005       7.08331013      -1.54462075    
  -1.07104599      -5.38451099     -0.157000005       7.26902580       1.60462141    
 -0.930077016      -4.67581606     -0.246999994       7.26902580       1.60462141    
   0.00000000      -4.76741982     -0.246999994       7.26902580       1.60462141    
   0.00000000      -5.48999977     -0.157000005       7.26902580       1.60462141    
  -2.10093188      -5.07209921     -0.157000005       21.0633373       1.61036158    
  -1.82441294      -4.40452194     -0.246999994       21.0633373       1.61036158    
 -0.930077016      -4.67581606     -0.246999994       21.0633373       1.61036158    
  -1.07104599      -5.38451099     -0.157000005       21.0633373       1.61036158    
  -3.05008101      -4.56476784     -0.157000005       32.1957970       1.60718226    
  -2.64863706      -3.96396494     -0.246999994       32.1957970       1.60718226    
  -1.82441294      -4.40452194     -0.246999994       32.1957970       1.60718226    
  -2.10093188      -5.07209921     -0.157000005       32.1957970       1.60718226    
  -3.88201594      -3.88201594     -0.157000005       42.9164238       1.60919905    
  -3.37107491      -3.37107491     -0.246999994       42.9164238       1.60919905    
  -2.64863706      -3.96396494     -0.246999994       42.9164238       1.60919905    
  -3.05008101      -4.56476784     -0.157000005       42.9164238       1.60919905    
  -4.56476784      -3.05008101     -0.157000005       53.3834114       1.61283684    
  -3.96396494      -2.64863706     -0.246999994       53.3834114       1.61283684    
  -3.37107491      -3.37107491     -0.246999994       53.3834114       1.61283684    
  -3.88201594      -3.88201594     -0.157000005       53.3834114       1.61283684    
  -5.07209921      -2.10093188     -0.157000005       60.4246063       1.60890496    
  -4.40452194      -1.82441294     -0.246999994       60.4246063       1.60890496    
  -3.96396494      -2.64863706     -0.246999994       60.4246063       1.60890496    
  -4.56476784      -3.05008101     -0.157000005       60.4246063       1.60890496    
  -5.38451099      -1.07104599     -0.157000005       66.0235443       1.60763609    
  -4.67581606     -0.930077016     -0.246999994       66.0235443       1.60763609    
  -4.40452194      -1.82441294     -0.246999994       66.0235443       1.60763609    
  -5.07209921      -2.10093188     -0.157000005       66.0235443       1.60763609    
  -5.48999977       0.00000000     -0.157000005       68.8545074       1.61132133    
  -4.76741982       0.00000000     -0.246999994       68.8545074       1.61132133    
  -4.67581606     -0.930077016     -0.246999994       68.8545074       1.61132133    
  -5.38451099      -1.07104599     -0.157000005       68.8545074       1.61132133    
  -5.38451099       1.07104599     -0.157000005       68.9461746       1.61142433    
  -4.67581606      0.930077016     -0.246999994       68.9461746       1.61142433    
  -4.76741982       0.00000000     -0.246999994       68.9461746       1.61142433    
  -5.48999977       0.00000000     -0.157000005       68.9461746       1.61142433    
  -5.07209921       2.10093188     -0.157000005       67.4897766       1.61187983    
  -4.40452194       1.82441294     -0.246999994       67.4897766       1.61187983    
  -4.67581606      0.930077016     -0.246999994       67.4897766       1.61187983    
  -5.38451099       1.07104599     -0.157000005       67.4897766       1.61187983    
  -4.56476784       3.05008101     -0.157000005       61.8359222       1.61453187    
  -3.96396494       2.64863706     -0.246999994       61.8359222       1.61453187    
  -4.40452194       1.82441294     -0.246999994       61.8359222       1.61453187    
  -5.07209921       2.10093188     -0.157000005       61.8359222       1.61453187    
  -3.88201594       3.88201594     -0.157000005       53.2069435       1.60783064    
  -3.37107491       3.37107491     -0.246999994       53.2069435       1.60783064    
  -3.96396494       2.64863706     -0.246999994       53.2069435       1.60783064    
  -4.56476784       3.05008101     -0.157000005       53.2069435       1.60783064    
  -3.05008101       4.56476784     -0.157000005       43.7839622       1.61377871    
  -2.64863706       3.96396494     -0.246999994       43.7839622       1.61377871    
  -3.37107491       3.37107491     -0.246999994       43.7839622       1.61377871    
  -3.88201594       3.88201594     -0.157000005       43.7839622       1.61377871    
  -2.10093188       5.07209921     -0.157000005       32.0787659       1.60481620    
  -1.82441294       4.40452194     -0.246999994       32.0787659       1.60481620    
  -2.64863706       3.96396494     -0.246999994       32.0787659       1.60481620    
  -3.05008101       4.56476784     -0.157000005       32.0787659       1.60481620    
  -1.07104599       5.38451099     -0.157000005       20.7228966       1.60939324    
 -0.930077016       4.67581606     -0.246999994       20.7228966       1.60939324    
  -1.82441294       4.40452194     -0.246999994       20.7228966       1.60939324    
  -2.10093188       5.07209921     -0.157000005       20.7228966       1.60939324    
   0.00000000       5.48999977     -0.157000005       7.06884956       1.59860861    
   0.00000000       4.76741982     -0.246999994       7.06884956       1.59860861    
 -0.930077016       4.67581606     -0.246999994       7.06884956       1.59860861    
  -1.07104599       5.38451099     -0.157000005       7.06884956       1.59860861    
   1.07104599       5.38451099     -0.157000005       7.38749981      -1.52763891    
  0.930077016       4.67581606     -0.246999994       7.38749981      -1.52763891    
   0.00000000       4.76741982     -0.246999994       7.38749981      -1.52763891    
   0.00000000       5.48999977     -0.157000005       7.38749981      -1.52763891    
   2.10093188       5.07209921     -0.157000005       20.6853657      -1.53523540    
   1.82441294       4.40452194     -0.246999994       20.6853657      -1.53523540    
  0.930077016       4.67581606     -0.246999994       20.6853657      -1.53523540    
   1.07104599       5.38451099     -0.157000005       20.6853657      -1.53523540    
   3.05008101       4.56476784     -0.157000005       32.2089233      -1.53493309    
   2.64863706       3.96396494     -0.246999994       32.2089233      -1.53493309    
   1.82441294       4.40452194     -0.246999994       32.2089233      -1.53493309    
   2.10093188       5.07209921     -0.157000005       32.2089233      -1.53493309    
   3.88201594       3.88201594     -0.157000005       44.0004845      -1.52751446    
   3.37107491       3.37107491     -0.246999994       44.0004845      -1.52751446    
   2.64863706       3.96396494     -0.246999994       44.0004845      -1.52751446    
   3.05008101       4.56476784     -0.157000005       44.0004845      -1.52751446    
   4.56476784       3.05008101     -0.157000005       53.9211922      -1.52994347    
   3.96396494       2.64863706     -0.246999994       53.9211922      -1.52994347    
   3.37107491       3.37107491     -0.246999994       53.9211922      -1.52994347    
   3.88201594       3.88201594     -0.157000005       53.9211922      -1.52994347    
   5.07209921       2.10093188     -0.157000005       61.9244461      -1.52750623    
   4.40452194       1.82441294     -0.246999994       61.9244461      -1.52750623    
   3.96396494       2.64863706     -0.246999994       61.9244461      -1.52750623    
   4.56476784       3.05008101     -0.157000005       61.9244461      -1.52750623    
   5.38451099       1.07104599     -0.157000005       66.6943665      -1.53389823    
   4.67581606      0.930077016     -0.246999994       66.6943665      -1.53389823    
   4.40452194       1.82441294     -0.246999994       66.6943665      -1.53389823    
   5.07209921       2.10093188     -0.157000005       66.6943665      -1.53389823    
   5.48999977       0.00000000     -0.157000005       68.0402908      -1.53447700    
   4.76741982       0.00000000     -0.246999994       68.0402908      -1.53447700    
   4.67581606      0.930077016     -0.246999994       68.0402908      -1.53447700    
   5.38451099       1.07104599     -0.157000005       68.0402908      -1.53447700    
   5.38451099      -1.07104599     -0.157000005       67.9079819      -1.53436005    
   4.67581606     -0.930077016     -0.246999994       67.9079819      -1.53436005    
   4.76741982       0.00000000     -0.246999994       67.9079819      -1.53436005    
   5.48999977       0.00000000     -0.157000005       67.9079819      -1.53436005    
   5.07209921      -2.10093188     -0.157000005       66.0272217      -1.53389323    
   4.40452194      -1.82441294     -0.246999994       66.0272217      -1.53389323    
   4.67581606     -0.930077016     -0.246999994       66.0272217      -1.53389323    
   5.38451099      -1.07104599     -0.157000005       66.0272217      -1.53389323    
   4.56476784      -3.05008101     -0.157000005       60.3319817      -1.53207934    
   3.96396494      -2.64863706     -0.246999994       60.3319817      -1.53207934    
   4.40452194      -1.82441294     -0.246999994       60.3319817      -1.53207934    
   5.07209921      -2.10093188     -0.157000005       60.3319817      -1.53207934    
   3.88201594      -3.88201594     -0.157000005       52.5183182      -1.53348494    
   3.37107491      -3.37107491     -0.246999994       52.5183182      -1.53348494    
   3.96396494      -2.64863706     -0.246999994       52.5183182      -1.53348494    
   4.56476784      -3.05008101     -0.157000005       52.5183182      -1.53348494    
   3.05008101      -4.56476784     -0.157000005       43.4418602      -1.52820253    
   2.64863706      -3.96396494     -0.246999994       43.4418602      -1.52820253    
   3.37107491      -3.37107491     -0.246999994       43.4418602      -1.52820253    
   3.88201594      -3.88201594     -0.157000005       43.4418602      -1.52820253    
   2.10093188      -5.07209921     -0.157000005       31.9894142      -1.53614211    
   1.82441294      -4.40452194     -0.246999994       31.9894142      -1.53614211    
   2.64863706      -3.96396494     -0.246999994       31.9894142      -1.53614211    
   3.05008101      -4.56476784     -0.157000005       31.9894142      -1.53614211    
   1.07104599      -5.38451099     -0.157000005       20.6055450      -1.53767467    
  0.930077016      -4.67581606     -0.246999994       20.6055450      -1.53767467    
   1.82441294      -4.40452194     -0.246999994       20.6055450      -1.53767467    
   2.10093188      -5.07209921     -0.157000005       20.6055450      -1.53767467    
   0.00000000      -1.87709999     -0.606999993       123.724632      -1.57120562    
   0.00000000      -1.36500001     -0.606999993       123.724632      -1.57120562    
  0.266297996      -1.33877206     -0.606999993       123.724632      -1.57120562    
  0.366203994      -1.84103203     -0.606999993       123.724632      -1.57120562    
   0.00000000      -1.87709999     -0.606999993      0.324550182     -0.414982975    
   0.00000000      -2.59967995     -0.517000020      0.324550182     -0.414982975    
 -0.507171988      -2.54972792     -0.517000020      0.324550182     -0.414982975    
 -0.366203994      -1.84103203     -0.606999993      0.324550182     -0.414982975    
 -0.366203994      -1.84103203     -0.606999993       144.708054       1.57065082    
 -0.266297996      -1.33877206     -0.606999993       144.708054       1.57065082    
   0.00000000      -1.36500001     -0.606999993       144.708054       1.57065082    
   0.00000000      -1.87709999     -0.606999993       144.708054       1.57065082    
 -0.366203994      -1.84103203     -0.606999993       13.5373554      -1.51330709    
 -0.507171988      -2.54972792     -0.517000020       13.5373554      -1.51330709    
 -0.994853973      -2.40179110     -0.517000020       13.5373554      -1.51330709    
 -0.718334973      -1.73421395     -0.606999993       13.5373554      -1.51330709    
 -0.718334973      -1.73421395     -0.606999993       401.579651       1.57082140    
 -0.522363007      -1.26109600     -0.606999993       401.579651       1.57082140    
 -0.266297996      -1.33877206     -0.606999993       401.579651       1.57082140    
 -0.366203994      -1.84103203     -0.606999993       401.579651       1.57082140    
 -0.718334973      -1.73421395     -0.606999993       39.3194695      -1.54484677    
 -0.994853973      -2.40179110     -0.517000020       39.3194695      -1.54484677    
  -1.44430494      -2.16155505     -0.517000020       39.3194695      -1.54484677    
  -1.04286098      -1.56075203     -0.606999993       39.3194695      -1.54484677    
  -1.04286098      -1.56075203     -0.606999993       631.715759       1.57118785    
 -0.758352995      -1.13495600     -0.606999993       631.715759       1.57118785    
 -0.522363007      -1.26109600     -0.606999993       631.715759       1.57118785    
 -0.718334973      -1.73421395     -0.606999993       631.715759       1.57118785    
  -1.04286098      -1.56075203     -0.606999993       66.3864899      -1.55399358    
  -1.44430494      -2.16155505     -0.517000020       66.3864899      -1.55399358    
  -1.83825099      -1.83825099     -0.517000020       66.3864899      -1.55399358    
  -1.32730997      -1.32730997     -0.606999993       66.3864899      -1.55399358    
  -1.32730997      -1.32730997     -0.606999993       832.459229       1.57149291    
 -0.965201020     -0.965201020     -0.606999993       832.459229       1.57149291    
 -0.758352995      -1.13495600     -0.606999993       832.459229       1.57149291    
  -1.04286098      -1.56075203     -0.606999993       832.459229       1.57149291    
  -1.32730997      -1.32730997     -0.606999993       84.9278259      -1.55596006    
  -1.83825099      -1.83825099     -0.517000020       84.9278259      -1.55596006    
  -2.16155505      -1.44430494     -0.517000020       84.9278259      -1.55596006    
  -1.56075203      -1.04286098     -0.606999993       84.9278259      -1.55596006    
  -1.56075203      -1.04286098     -0.606999993       1005.90540       1.57160187    
  -1.13495600     -0.758352995     -0.606999993       1005.90540       1.57160187    
 -0.965201020     -0.965201020     -0.606999993       1005.90540       1.57160187    
  -1.32730997      -1.32730997     -0.606999993       1005.90540       1.57160187    
  -1.56075203      -1.04286098     -0.606999993       89.7126465      -1.55344772    
  -2.16155505      -1.44430494     -0.517000020       89.7126465      -1.55344772    
  -2.40179110     -0.994853973     -0.517000020       89.7126465      -1.55344772    
  -1.73421395     -0.718334973     -0.606999993       89.7126465      -1.55344772    
  -1.73421395     -0.718334973     -0.606999993       1152.44287       1.57152534    
  -1.26109600     -0.522363007     -0.606999993       1152.44287       1.57152534    
  -1.13495600     -0.758352995     -0.606999993       1152.44287       1.57152534    
  -1.56075203      -1.04286098     -0.606999993       1152.44287       1.57152534    
  -1.73421395     -0.718334973     -0.606999993       86.1748505      -1.54844105    
  -2.40179110     -0.994853973     -0.517000020       86.1748505      -1.54844105    
  -2.54972792     -0.507171988     -0.517000020       86.1748505      -1.54844105    
  -1.84103203     -0.366203994     -0.606999993       86.1748505      -1.54844105    
  -1.84103203     -0.366203994     -0.606999993       1263.21887       1.57137609    
  -1.33877206     -0.266297996     -0.606999993       1263.21887       1.57137609    
  -1.26109600     -0.522363007     -0.606999993       1263.21887       1.57137609    
  -1.73421395     -0.718334973     -0.606999993       1263.21887       1.57137609    
  -1.84103203     -0.366203994     -0.606999993       81.0541306      -1.54384780    
  -2.54972792     -0.507171988     -0.517000020       81.0541306      -1.54384780    
  -2.59967995       0.00000000     -0.517000020       81.0541306      -1.54384780    
  -1.87709999       0.00000000     -0.606999993       81.0541306      -1.54384780    
  -1.87709999       0.00000000     -0.606999993       1325.30164       1.57126749    
  -1.36500001       0.00000000     -0.606999993       1325.30164       1.57126749    
  -1.33877206     -0.266297996     -0.606999993       1325.30164       1.57126749    
  -1.84103203     -0.366203994     -0.606999993       1325.30164       1.57126749    
  -1.87709999       0.00000000     -0.606999993       79.1521912      -1.54337394    
  -2.59967995       0.00000000     -0.517000020       79.1521912      -1.54337394    
  -2.54972792      0.507171988     -0.517000020       79.1521912      -1.54337394    
  -1.84103203      0.366203994     -0.606999993       79.1521912      -1.54337394    
  -1.84103203      0.366203994     -0.606999993       1328.16101       1.57126319    
  -1.33877206      0.266297996     -0.606999993       1328.16101       1.57126319    
  -1.36500001       0.00000000     -0.606999993       1328.16101       1.57126319    
  -1.87709999       0.00000000     -0.606999993       1328.16101       1.57126319    
  -1.84103203      0.366203994     -0.606999993       81.4138184      -1.54769516    
  -2.54972792      0.507171988     -0.517000020       81.4138184      -1.54769516    
  -2.40179110      0.994853973     -0.517000020       81.4138184      -1.54769516    
  -1.73421395      0.718334973     -0.606999993       81.4138184      -1.54769516    
  -1.73421395      0.718334973     -0.606999993       1270.04724       1.57136989    
  -1.26109600      0.522363007     -0.606999993       1270.04724       1.57136989    
  -1.33877206      0.266297996     -0.606999993       1270.04724       1.57136989    
  -1.84103203      0.366203994     -0.606999993       1270.04724       1.57136989    
  -1.73421395      0.718334973     -0.606999993       84.7111664      -1.55337381    
  -2.40179110      0.994853973     -0.517000020       84.7111664      -1.55337381    
  -2.16155505       1.44430494     -0.517000020       84.7111664      -1.55337381    
  -1.56075203       1.04286098     -0.606999993       84.7111664      -1.55337381    
  -1.56075203       1.04286098     -0.606999993       1159.11243       1.57153559    
  -1.13495600      0.758352995     -0.606999993       1159.11243       1.57153559    
  -1.26109600      0.522363007     -0.606999993       1159.11243       1.57153559    
  -1.73421395      0.718334973     -0.606999993       1159.11243       1.57153559    
  -1.56075203       1.04286098     -0.606999993       81.9305954      -1.55655968    
  -2.16155505       1.44430494     -0.517000020       81.9305954      -1.55655968    
  -1.83825099       1.83825099     -0.517000020       81.9305954      -1.55655968    
  -1.32730997       1.32730997     -0.606999993       81.9305954      -1.55655968    
  -1.32730997       1.32730997     -0.606999993       1008.01312       1.57164872    
 -0.965201020      0.965201020     -0.606999993       1008.01312       1.57164872    
  -1.13495600      0.758352995     -0.606999993       1008.01312       1.57164872    
  -1.56075203       1.04286098     -0.606999993       1008.01312       1.57164872    
  -1.32730997       1.32730997     -0.606999993       65.8890076      -1.55508256    
  -1.83825099       1.83825099     -0.517000020       65.8890076      -1.55508256    
  -1.44430494       2.16155505     -0.517000020       65.8890076      -1.55508256    
  -1.04286098       1.56075203     -0.606999993       65.8890076      -1.55508256    
  -1.04286098       1.56075203     -0.606999993       827.366943       1.57158303    
 -0.758352995       1.13495600     -0.606999993       827.366943       1.57158303    
 -0.965201020      0.965201020     -0.606999993       827.366943       1.57158303    
  -1.32730997       1.32730997     -0.606999993       827.366943       1.57158303    
  -1.04286098       1.56075203     -0.606999993       40.9744301      -1.54724658    
  -1.44430494       2.16155505     -0.517000020       40.9744301      -1.54724658    
 -0.994853973       2.40179110     -0.517000020       40.9744301      -1.54724658    
 -0.718334973       1.73421395     -0.606999993       40.9744301      -1.54724658    
 -0.718334973       1.73421395     -0.606999993       619.365906       1.57130289    
 -0.522363007       1.26109600     -0.606999993       619.365906       1.57130289    
 -0.758352995       1.13495600     -0.606999993       619.365906       1.57130289    
  -1.04286098       1.56075203     -0.606999993       619.365906       1.57130289    
 -0.718334973       1.73421395     -0.606999993       17.2256470      -1.52754414    
 -0.994853973       2.40179110     -0.517000020       17.2256470      -1.52754414    
 -0.507171988       2.54972792     -0.517000020       17.2256470      -1.52754414    
 -0.366203994       1.84103203     -0.606999993       17.2256470      -1.52754414    
 -0.366203994       1.84103203     -0.606999993       383.944702       1.57091498    
 -0.266297996       1.33877206     -0.606999993       383.944702       1.57091498    
 -0.522363007       1.26109600     -0.606999993       383.944702       1.57091498    
 -0.718334973       1.73421395     -0.606999993       383.944702       1.57091498    
 -0.366203994       1.84103203     -0.606999993       5.63994980      -1.52031457    
 -0.507171988       2.54972792     -0.517000020       5.63994980      -1.52031457    
   0.00000000       2.59967995     -0.517000020       5.63994980      -1.52031457    
   0.00000000       1.87709999     -0.606999993       5.63994980      -1.52031457    
   0.00000000       1.87709999     -0.606999993       124.720772       1.57054448    
   0.00000000       1.36500001     -0.606999993       124.720772       1.57054448    
 -0.266297996       1.33877206     -0.606999993       124.720772       1.57054448    
 -0.366203994       1.84103203     -0.606999993       124.720772       1.57054448    
   0.00000000       1.87709999     -0.606999993      0.812067270       1.93350124    
   0.00000000       2.59967995     -0.517000020      0.812067270       1.93350124    
  0.507171988       2.54972792     -0.517000020      0.812067270       1.93350124    
  0.366203994       1.84103203     -0.606999993      0.812067270       1.93350124    
  0.366203994       1.84103203     -0.606999993       142.938202      -1.57076645    
  0.266297996       1.33877206     -0.606999993       142.938202      -1.57076645    
   0.00000000       1.36500001     -0.606999993       142.938202      -1.57076645    
   0.00000000       1.87709999     -0.606999993       142.938202      -1.57076645    
  0.366203994       1.84103203     -0.606999993       13.2575922       1.62690043    
  0.507171988       2.54972792     -0.517000020       13.2575922       1.62690043    
  0.994853973       2.40179110     -0.517000020       13.2575922       1.62690043    
  0.718334973       1.73421395     -0.606999993       13.2575922       1.62690043    
  0.718334973       1.73421395     -0.606999993       399.995941      -1.57061040    
  0.522363007       1.26109600     -0.606999993       399.995941      -1.57061040    
  0.266297996       1.33877206     -0.606999993       399.995941      -1.57061040    
  0.366203994       1.84103203     -0.606999993       399.995941      -1.57061040    
  0.718334973       1.73421395     -0.606999993       38.5111046       1.59566402    
  0.994853973       2.40179110     -0.517000020       38.5111046       1.59566402    
   1.44430494       2.16155505     -0.517000020       38.5111046       1.59566402    
   1.04286098       1.56075203     -0.606999993       38.5111046       1.59566402    
   1.04286098       1.56075203     -0.606999993       631.806702      -1.57027054    
  0.758352995       1.13495600     -0.606999993       631.806702      -1.57027054    
  0.522363007       1.26109600     -0.606999993       631.806702      -1.57027054    
  0.718334973       1.73421395     -0.606999993       631.806702      -1.57027054    
   1.04286098       1.56075203     -0.606999993       64.9996719       1.58653498    
   1.44430494       2.16155505     -0.517000020       64.9996719       1.58653498    
   1.83825099       1.83825099     -0.517000020       64.9996719       1.58653498    
   1.32730997       1.32730997     -0.606999993       64.9996719       1.58653498    
   1.32730997       1.32730997     -0.606999993       835.745667      -1.57000887    
  0.965201020      0.965201020     -0.606999993       835.745667      -1.57000887    
  0.758352995       1.13495600     -0.606999993       835.745667      -1.57000887    
   1.04286098       1.56075203     -0.606999993       835.745667      -1.57000887    
   1.32730997       1.32730997     -0.606999993       82.2649918       1.58477068    
   1.83825099       1.83825099     -0.517000020       82.2649918       1.58477068    
   2.16155505       1.44430494     -0.517000020       82.2649918       1.58477068    
   1.56075203       1.04286098     -0.606999993       82.2649918       1.58477068    
   1.56075203       1.04286098     -0.606999993       1012.87451      -1.56994975    
   1.13495600      0.758352995     -0.606999993       1012.87451      -1.56994975    
  0.965201020      0.965201020     -0.606999993       1012.87451      -1.56994975    
   1.32730997       1.32730997     -0.606999993       1012.87451      -1.56994975    
   1.56075203       1.04286098     -0.606999993       85.6098557       1.58780527    
   2.16155505       1.44430494     -0.517000020       85.6098557       1.58780527    
   2.40179110      0.994853973     -0.517000020       85.6098557       1.58780527    
   1.73421395      0.718334973     -0.606999993       85.6098557       1.58780527    
   1.73421395      0.718334973     -0.606999993       1161.36877      -1.57006431    
   1.26109600      0.522363007     -0.606999993       1161.36877      -1.57006431    
   1.13495600      0.758352995     -0.606999993       1161.36877      -1.57006431    
   1.56075203       1.04286098     -0.606999993       1161.36877      -1.57006431    
   1.73421395      0.718334973     -0.606999993       82.1264954       1.59344327    
   2.40179110      0.994853973     -0.517000020       82.1264954       1.59344327    
   2.54972792      0.507171988     -0.517000020       82.1264954       1.59344327    
   1.84103203      0.366203994     -0.606999993       82.1264954       1.59344327    
   1.84103203      0.366203994     -0.606999993       1271.18542      -1.57022834    
   1.33877206      0.266297996     -0.606999993       1271.18542      -1.57022834    
   1.26109600      0.522363007     -0.606999993       1271.18542      -1.57022834    
   1.73421395      0.718334973     -0.606999993       1271.18542      -1.57022834    
   1.84103203      0.366203994     -0.606999993       78.9790573       1.59805846    
   2.54972792      0.507171988     -0.517000020       78.9790573       1.59805846    
   2.59967995       0.00000000     -0.517000020       78.9790573       1.59805846    
   1.87709999       0.00000000     -0.606999993       78.9790573       1.59805846    
   1.87709999       0.00000000     -0.606999993       1329.51086      -1.57032943    
   1.36500001       0.00000000     -0.606999993       1329.51086      -1.57032943    
   1.33877206      0.266297996     -0.606999993       1329.51086      -1.57032943    
   1.84103203      0.366203994     -0.606999993       1329.51086      -1.57032943    
   1.87709999       0.00000000     -0.606999993       79.6721420       1.59805858    
   2.59967995       0.00000000     -0.517000020       79.6721420       1.59805858    
   2.54972792     -0.507171988     -0.517000020       79.6721420       1.59805858    
   1.84103203     -0.366203994     -0.606999993       79.6721420       1.59805858    
   1.84103203     -0.366203994     -0.606999993       1327.41272      -1.57031751    
   1.33877206     -0.266297996     -0.606999993       1327.41272      -1.57031751    
   1.36500001       0.00000000     -0.606999993       1327.41272      -1.57031751    
   1.87709999       0.00000000     -0.606999993       1327.41272      -1.57031751    
   1.84103203     -0.366203994     -0.606999993       83.7691422       1.59373736    
   2.54972792     -0.507171988     -0.517000020       83.7691422       1.59373736    
   2.40179110     -0.994853973     -0.517000020       83.7691422       1.59373736    
   1.73421395     -0.718334973     -0.606999993       83.7691422       1.59373736    
   1.73421395     -0.718334973     -0.606999993       1265.78821      -1.57020283    
   1.26109600     -0.522363007     -0.606999993       1265.78821      -1.57020283    
   1.33877206     -0.266297996     -0.606999993       1265.78821      -1.57020283    
   1.84103203     -0.366203994     -0.606999993       1265.78821      -1.57020283    
   1.73421395     -0.718334973     -0.606999993       87.0299301       1.58869076    
   2.40179110     -0.994853973     -0.517000020       87.0299301       1.58869076    
   2.16155505      -1.44430494     -0.517000020       87.0299301       1.58869076    
   1.56075203      -1.04286098     -0.606999993       87.0299301       1.58869076    
   1.56075203      -1.04286098     -0.606999993       1154.32410      -1.57005119    
   1.13495600     -0.758352995     -0.606999993       1154.32410      -1.57005119    
   1.26109600     -0.522363007     -0.606999993       1154.32410      -1.57005119    