 VARIABLES="X" "Y" "Z" "abs(p) (Pa)" "angle(p) (rad)"
ZONE N=   2709,E =    2358, F=FEPOINT, ET=QUADRILATERAL
   0.00000000      -5.48999977     -0.157000005       444.750610     -0.186511189    
   0.00000000      -4.76741982     -0.246999994       444.750610     -0.186511189    
  0.930077016      -4.67581606     -0.246999994       444.750610     -0.186511189    
   1.07104599      -5.38451099     -0.157000005       444.750610     -0.186511189    
  -1.07104599      -5.38451099     -0.157000005       444.778076     -0.186636016    
 -0.930077016      -4.67581606     -0.246999994       444.778076     -0.186636016    
   0.00000000      -4.76741982     -0.246999994       444.778076     -0.186636016    
   0.00000000      -5.48999977     -0.157000005       444.778076     -0.186636016    
  -2.10093188      -5.07209921     -0.157000005       424.241547     -0.211240992    
  -1.82441294      -4.40452194     -0.246999994       424.241547     -0.211240992    
 -0.930077016      -4.67581606     -0.246999994       424.241547     -0.211240992    
  -1.07104599      -5.38451099     -0.157000005       424.241547     -0.211240992    
  -3.05008101      -4.56476784     -0.157000005       399.018585     -0.185618117    
  -2.64863706      -3.96396494     -0.246999994       399.018585     -0.185618117    
  -1.82441294      -4.40452194     -0.246999994       399.018585     -0.185618117    
  -2.10093188      -5.07209921     -0.157000005       399.018585     -0.185618117    
  -3.88201594      -3.88201594     -0.157000005       354.121185     -0.205966070    
  -3.37107491      -3.37107491     -0.246999994       354.121185     -0.205966070    
  -2.64863706      -3.96396494     -0.246999994       354.121185     -0.205966070    
  -3.05008101      -4.56476784     -0.157000005       354.121185     -0.205966070    
  -4.56476784      -3.05008101     -0.157000005       289.470978     -0.255843580    
  -3.96396494      -2.64863706     -0.246999994       289.470978     -0.255843580    
  -3.37107491      -3.37107491     -0.246999994       289.470978     -0.255843580    
  -3.88201594      -3.88201594     -0.157000005       289.470978     -0.255843580    
  -5.07209921      -2.10093188     -0.157000005       219.338608     -0.213097692    
  -4.40452194      -1.82441294     -0.246999994       219.338608     -0.213097692    
  -3.96396494      -2.64863706     -0.246999994       219.338608     -0.213097692    
  -4.56476784      -3.05008101     -0.157000005       219.338608     -0.213097692    
  -5.38451099      -1.07104599     -0.157000005       137.470474     -0.158100605    
  -4.67581606     -0.930077016     -0.246999994       137.470474     -0.158100605    
  -4.40452194      -1.82441294     -0.246999994       137.470474     -0.158100605    
  -5.07209921      -2.10093188     -0.157000005       137.470474     -0.158100605    
  -5.48999977       0.00000000     -0.157000005       49.6316147     -0.122793391    
  -4.76741982       0.00000000     -0.246999994       49.6316147     -0.122793391    
  -4.67581606     -0.930077016     -0.246999994       49.6316147     -0.122793391    
  -5.38451099      -1.07104599     -0.157000005       49.6316147     -0.122793391    
  -5.38451099       1.07104599     -0.157000005       38.3347397       2.98551464    
  -4.67581606      0.930077016     -0.246999994       38.3347397       2.98551464    
  -4.76741982       0.00000000     -0.246999994       38.3347397       2.98551464    
  -5.48999977       0.00000000     -0.157000005       38.3347397       2.98551464    
  -5.07209921       2.10093188     -0.157000005       126.064278       2.96802092    
  -4.40452194       1.82441294     -0.246999994       126.064278       2.96802092    
  -4.67581606      0.930077016     -0.246999994       126.064278       2.96802092    
  -5.38451099       1.07104599     -0.157000005       126.064278       2.96802092    
  -4.56476784       3.05008101     -0.157000005       211.320694       2.92501211    
  -3.96396494       2.64863706     -0.246999994       211.320694       2.92501211    
  -4.40452194       1.82441294     -0.246999994       211.320694       2.92501211    
  -5.07209921       2.10093188     -0.157000005       211.320694       2.92501211    
  -3.88201594       3.88201594     -0.157000005       291.818848       2.92445683    
  -3.37107491       3.37107491     -0.246999994       291.818848       2.92445683    
  -3.96396494       2.64863706     -0.246999994       291.818848       2.92445683    
  -4.56476784       3.05008101     -0.157000005       291.818848       2.92445683    
  -3.05008101       4.56476784     -0.157000005       350.750458       2.90430331    
  -2.64863706       3.96396494     -0.246999994       350.750458       2.90430331    
  -3.37107491       3.37107491     -0.246999994       350.750458       2.90430331    
  -3.88201594       3.88201594     -0.157000005       350.750458       2.90430331    
  -2.10093188       5.07209921     -0.157000005       400.916595       2.95003605    
  -1.82441294       4.40452194     -0.246999994       400.916595       2.95003605    
  -2.64863706       3.96396494     -0.246999994       400.916595       2.95003605    
  -3.05008101       4.56476784     -0.157000005       400.916595       2.95003605    
  -1.07104599       5.38451099     -0.157000005       426.923370       2.93149495    
 -0.930077016       4.67581606     -0.246999994       426.923370       2.93149495    
  -1.82441294       4.40452194     -0.246999994       426.923370       2.93149495    
  -2.10093188       5.07209921     -0.157000005       426.923370       2.93149495    
   0.00000000       5.48999977     -0.157000005       447.981903       2.95618105    
   0.00000000       4.76741982     -0.246999994       447.981903       2.95618105    
 -0.930077016       4.67581606     -0.246999994       447.981903       2.95618105    
  -1.07104599       5.38451099     -0.157000005       447.981903       2.95618105    
   1.07104599       5.38451099     -0.157000005       443.396667       2.93480420    
  0.930077016       4.67581606     -0.246999994       443.396667       2.93480420    
   0.00000000       4.76741982     -0.246999994       443.396667       2.93480420    
   0.00000000       5.48999977     -0.157000005       443.396667       2.93480420    
   2.10093188       5.07209921     -0.157000005       434.684937       2.96006131    
   1.82441294       4.40452194     -0.246999994       434.684937       2.96006131    
  0.930077016       4.67581606     -0.246999994       434.684937       2.96006131    
   1.07104599       5.38451099     -0.157000005       434.684937       2.96006131    
   3.05008101       4.56476784     -0.157000005       404.581451       2.95585990    
   2.64863706       3.96396494     -0.246999994       404.581451       2.95585990    
   1.82441294       4.40452194     -0.246999994       404.581451       2.95585990    
   2.10093188       5.07209921     -0.157000005       404.581451       2.95585990    
   3.88201594       3.88201594     -0.157000005       353.420380       2.90229869    
   3.37107491       3.37107491     -0.246999994       353.420380       2.90229869    
   2.64863706       3.96396494     -0.246999994       353.420380       2.90229869    
   3.05008101       4.56476784     -0.157000005       353.420380       2.90229869    
   4.56476784       3.05008101     -0.157000005       291.397430       2.89979076    
   3.96396494       2.64863706     -0.246999994       291.397430       2.89979076    
   3.37107491       3.37107491     -0.246999994       291.397430       2.89979076    
   3.88201594       3.88201594     -0.157000005       291.397430       2.89979076    
   5.07209921       2.10093188     -0.157000005       213.078125       2.91882873    
   4.40452194       1.82441294     -0.246999994       213.078125       2.91882873    
   3.96396494       2.64863706     -0.246999994       213.078125       2.91882873    
   4.56476784       3.05008101     -0.157000005       213.078125       2.91882873    
   5.38451099       1.07104599     -0.157000005       130.737427       3.00711536    
   4.67581606      0.930077016     -0.246999994       130.737427       3.00711536    
   4.40452194       1.82441294     -0.246999994       130.737427       3.00711536    
   5.07209921       2.10093188     -0.157000005       130.737427       3.00711536    
   5.48999977       0.00000000     -0.157000005       42.1328926       3.10555434    
   4.76741982       0.00000000     -0.246999994       42.1328926       3.10555434    
   4.67581606      0.930077016     -0.246999994       42.1328926       3.10555434    
   5.38451099       1.07104599     -0.157000005       42.1328926       3.10555434    
   5.38451099      -1.07104599     -0.157000005       47.9658508     -0.178458482    
   4.67581606     -0.930077016     -0.246999994       47.9658508     -0.178458482    
   4.76741982       0.00000000     -0.246999994       47.9658508     -0.178458482    
   5.48999977       0.00000000     -0.157000005       47.9658508     -0.178458482    
   5.07209921      -2.10093188     -0.157000005       136.038116     -0.170121133    
   4.40452194      -1.82441294     -0.246999994       136.038116     -0.170121133    
   4.67581606     -0.930077016     -0.246999994       136.038116     -0.170121133    
   5.38451099      -1.07104599     -0.157000005       136.038116     -0.170121133    
   4.56476784      -3.05008101     -0.157000005       219.523132     -0.202861488    
   3.96396494      -2.64863706     -0.246999994       219.523132     -0.202861488    
   4.40452194      -1.82441294     -0.246999994       219.523132     -0.202861488    
   5.07209921      -2.10093188     -0.157000005       219.523132     -0.202861488    
   3.88201594      -3.88201594     -0.157000005       293.255219     -0.219085693    
   3.37107491      -3.37107491     -0.246999994       293.255219     -0.219085693    
   3.96396494      -2.64863706     -0.246999994       293.255219     -0.219085693    
   4.56476784      -3.05008101     -0.157000005       293.255219     -0.219085693    
   3.05008101      -4.56476784     -0.157000005       348.380524     -0.230474204    
   2.64863706      -3.96396494     -0.246999994       348.380524     -0.230474204    
   3.37107491      -3.37107491     -0.246999994       348.380524     -0.230474204    
   3.88201594      -3.88201594     -0.157000005       348.380524     -0.230474204    
   2.10093188      -5.07209921     -0.157000005       397.659241     -0.187382415    
   1.82441294      -4.40452194     -0.246999994       397.659241     -0.187382415    
   2.64863706      -3.96396494     -0.246999994       397.659241     -0.187382415    
   3.05008101      -4.56476784     -0.157000005       397.659241     -0.187382415    
   1.07104599      -5.38451099     -0.157000005       429.249207     -0.187353000    
  0.930077016      -4.67581606     -0.246999994       429.249207     -0.187353000    
   1.82441294      -4.40452194     -0.246999994       429.249207     -0.187353000    
   2.10093188      -5.07209921     -0.157000005       429.249207     -0.187353000    
   0.00000000      -1.87709999     -0.606999993       11141.0078      -1.56428683    
   0.00000000      -1.36500001     -0.606999993       11141.0078      -1.56428683    
  0.266297996      -1.33877206     -0.606999993       11141.0078      -1.56428683    
  0.366203994      -1.84103203     -0.606999993       11141.0078      -1.56428683    
   0.00000000      -1.87709999     -0.606999993       5461.29785      -1.55645406    
   0.00000000      -2.59967995     -0.517000020       5461.29785      -1.55645406    
 -0.507171988      -2.54972792     -0.517000020       5461.29785      -1.55645406    
 -0.366203994      -1.84103203     -0.606999993       5461.29785      -1.55645406    
 -0.366203994      -1.84103203     -0.606999993       11145.7861      -1.56428647    
 -0.266297996      -1.33877206     -0.606999993       11145.7861      -1.56428647    
   0.00000000      -1.36500001     -0.606999993       11145.7861      -1.56428647    
   0.00000000      -1.87709999     -0.606999993       11145.7861      -1.56428647    
 -0.366203994      -1.84103203     -0.606999993       5321.27930      -1.55661094    
 -0.507171988      -2.54972792     -0.517000020       5321.27930      -1.55661094    
 -0.994853973      -2.40179110     -0.517000020       5321.27930      -1.55661094    
 -0.718334973      -1.73421395     -0.606999993       5321.27930      -1.55661094    
 -0.718334973      -1.73421395     -0.606999993       10774.1465      -1.56429195    
 -0.522363007      -1.26109600     -0.606999993       10774.1465      -1.56429195    
 -0.266297996      -1.33877206     -0.606999993       10774.1465      -1.56429195    
 -0.366203994      -1.84103203     -0.606999993       10774.1465      -1.56429195    
 -0.718334973      -1.73421395     -0.606999993       5005.12695      -1.55680609    
 -0.994853973      -2.40179110     -0.517000020       5005.12695      -1.55680609    
  -1.44430494      -2.16155505     -0.517000020       5005.12695      -1.55680609    
  -1.04286098      -1.56075203     -0.606999993       5005.12695      -1.55680609    
  -1.04286098      -1.56075203     -0.606999993       10008.1943      -1.56429410    
 -0.758352995      -1.13495600     -0.606999993       10008.1943      -1.56429410    
 -0.522363007      -1.26109600     -0.606999993       10008.1943      -1.56429410    
 -0.718334973      -1.73421395     -0.606999993       10008.1943      -1.56429410    
  -1.04286098      -1.56075203     -0.606999993       4466.30615      -1.55691719    
  -1.44430494      -2.16155505     -0.517000020       4466.30615      -1.55691719    
  -1.83825099      -1.83825099     -0.517000020       4466.30615      -1.55691719    
  -1.32730997      -1.32730997     -0.606999993       4466.30615      -1.55691719    
  -1.32730997      -1.32730997     -0.606999993       8832.82715      -1.56426752    
 -0.965201020     -0.965201020     -0.606999993       8832.82715      -1.56426752    
 -0.758352995      -1.13495600     -0.606999993       8832.82715      -1.56426752    
  -1.04286098      -1.56075203     -0.606999993       8832.82715      -1.56426752    
  -1.32730997      -1.32730997     -0.606999993       3680.85718      -1.55683374    
  -1.83825099      -1.83825099     -0.517000020       3680.85718      -1.55683374    
  -2.16155505      -1.44430494     -0.517000020       3680.85718      -1.55683374    
  -1.56075203      -1.04286098     -0.606999993       3680.85718      -1.55683374    
  -1.56075203      -1.04286098     -0.606999993       7269.84717      -1.56420851    
  -1.13495600     -0.758352995     -0.606999993       7269.84717      -1.56420851    
 -0.965201020     -0.965201020     -0.606999993       7269.84717      -1.56420851    
  -1.32730997      -1.32730997     -0.606999993       7269.84717      -1.56420851    
  -1.56075203      -1.04286098     -0.606999993       2689.55811      -1.55649388    
  -2.16155505      -1.44430494     -0.517000020       2689.55811      -1.55649388    
  -2.40179110     -0.994853973     -0.517000020       2689.55811      -1.55649388    
  -1.73421395     -0.718334973     -0.606999993       2689.55811      -1.55649388    
  -1.73421395     -0.718334973     -0.606999993       5395.19824      -1.56411183    
  -1.26109600     -0.522363007     -0.606999993       5395.19824      -1.56411183    
  -1.13495600     -0.758352995     -0.606999993       5395.19824      -1.56411183    
  -1.56075203      -1.04286098     -0.606999993       5395.19824      -1.56411183    
  -1.73421395     -0.718334973     -0.606999993       1612.36206      -1.55595529    
  -2.40179110     -0.994853973     -0.517000020       1612.36206      -1.55595529    
  -2.54972792     -0.507171988     -0.517000020       1612.36206      -1.55595529    
  -1.84103203     -0.366203994     -0.606999993       1612.36206      -1.55595529    
  -1.84103203     -0.366203994     -0.606999993       3323.70239      -1.56394053    
  -1.33877206     -0.266297996     -0.606999993       3323.70239      -1.56394053    
  -1.26109600     -0.522363007     -0.606999993       3323.70239      -1.56394053    
  -1.73421395     -0.718334973     -0.606999993       3323.70239      -1.56394053    
  -1.84103203     -0.366203994     -0.606999993       554.143250      -1.55512774    
  -2.54972792     -0.507171988     -0.517000020       554.143250      -1.55512774    
  -2.59967995       0.00000000     -0.517000020       554.143250      -1.55512774    
  -1.87709999       0.00000000     -0.606999993       554.143250      -1.55512774    
  -1.87709999       0.00000000     -0.606999993       1164.99976      -1.56335557    
  -1.36500001       0.00000000     -0.606999993       1164.99976      -1.56335557    
  -1.33877206     -0.266297996     -0.606999993       1164.99976      -1.56335557    
  -1.84103203     -0.366203994     -0.606999993       1164.99976      -1.56335557    
  -1.87709999       0.00000000     -0.606999993       463.286926       1.58523881    
  -2.59967995       0.00000000     -0.517000020       463.286926       1.58523881    
  -2.54972792      0.507171988     -0.517000020       463.286926       1.58523881    
  -1.84103203      0.366203994     -0.606999993       463.286926       1.58523881    
  -1.84103203      0.366203994     -0.606999993       1007.11664       1.57652628    
  -1.33877206      0.266297996     -0.606999993       1007.11664       1.57652628    
  -1.36500001       0.00000000     -0.606999993       1007.11664       1.57652628    
  -1.87709999       0.00000000     -0.606999993       1007.11664       1.57652628    
  -1.84103203      0.366203994     -0.606999993       1492.35999       1.58555579    
  -2.54972792      0.507171988     -0.517000020       1492.35999       1.58555579    
  -2.40179110      0.994853973     -0.517000020       1492.35999       1.58555579    
  -1.73421395      0.718334973     -0.606999993       1492.35999       1.58555579    
  -1.73421395      0.718334973     -0.606999993       3151.35571       1.57717454    
  -1.26109600      0.522363007     -0.606999993       3151.35571       1.57717454    
  -1.33877206      0.266297996     -0.606999993       3151.35571       1.57717454    
  -1.84103203      0.366203994     -0.606999993       3151.35571       1.57717454    
  -1.73421395      0.718334973     -0.606999993       2544.25293       1.58528876    
  -2.40179110      0.994853973     -0.517000020       2544.25293       1.58528876    
  -2.16155505       1.44430494     -0.517000020       2544.25293       1.58528876    
  -1.56075203       1.04286098     -0.606999993       2544.25293       1.58528876    
  -1.56075203       1.04286098     -0.606999993       5210.44189       1.57729197    
  -1.13495600      0.758352995     -0.606999993       5210.44189       1.57729197    
  -1.26109600      0.522363007     -0.606999993       5210.44189       1.57729197    
  -1.73421395      0.718334973     -0.606999993       5210.44189       1.57729197    
  -1.56075203       1.04286098     -0.606999993       3541.81323       1.58501065    
  -2.16155505       1.44430494     -0.517000020       3541.81323       1.58501065    
  -1.83825099       1.83825099     -0.517000020       3541.81323       1.58501065    
  -1.32730997       1.32730997     -0.606999993       3541.81323       1.58501065    
  -1.32730997       1.32730997     -0.606999993       7090.39209       1.57733524    
 -0.965201020      0.965201020     -0.606999993       7090.39209       1.57733524    
  -1.13495600      0.758352995     -0.606999993       7090.39209       1.57733524    
  -1.56075203       1.04286098     -0.606999993       7090.39209       1.57733524    
  -1.32730997       1.32730997     -0.606999993       4360.75146       1.58491576    
  -1.83825099       1.83825099     -0.517000020       4360.75146       1.58491576    
  -1.44430494       2.16155505     -0.517000020       4360.75146       1.58491576    
  -1.04286098       1.56075203     -0.606999993       4360.75146       1.58491576    
  -1.04286098       1.56075203     -0.606999993       8676.40430       1.57736123    
 -0.758352995       1.13495600     -0.606999993       8676.40430       1.57736123    
 -0.965201020      0.965201020     -0.606999993       8676.40430       1.57736123    
  -1.32730997       1.32730997     -0.606999993       8676.40430       1.57736123    
  -1.04286098       1.56075203     -0.606999993       4936.45703       1.58500898    
  -1.44430494       2.16155505     -0.517000020       4936.45703       1.58500898    
 -0.994853973       2.40179110     -0.517000020       4936.45703       1.58500898    
 -0.718334973       1.73421395     -0.606999993       4936.45703       1.58500898    
 -0.718334973       1.73421395     -0.606999993       9885.44727       1.57739091    
 -0.522363007       1.26109600     -0.606999993       9885.44727       1.57739091    
 -0.758352995       1.13495600     -0.606999993       9885.44727       1.57739091    
  -1.04286098       1.56075203     -0.606999993       9885.44727       1.57739091    
 -0.718334973       1.73421395     -0.606999993       5279.43262       1.58520448    
 -0.994853973       2.40179110     -0.517000020       5279.43262       1.58520448    
 -0.507171988       2.54972792     -0.517000020       5279.43262       1.58520448    
 -0.366203994       1.84103203     -0.606999993       5279.43262       1.58520448    
 -0.366203994       1.84103203     -0.606999993       10683.9971       1.57742608    
 -0.266297996       1.33877206     -0.606999993       10683.9971       1.57742608    
 -0.522363007       1.26109600     -0.606999993       10683.9971       1.57742608    
 -0.718334973       1.73421395     -0.606999993       10683.9971       1.57742608    
 -0.366203994       1.84103203     -0.606999993       5435.80225       1.58536100    
 -0.507171988       2.54972792     -0.517000020       5435.80225       1.58536100    
   0.00000000       2.59967995     -0.517000020       5435.80225       1.58536100    
   0.00000000       1.87709999     -0.606999993       5435.80225       1.58536100    
   0.00000000       1.87709999     -0.606999993       11079.7773       1.57745206    
   0.00000000       1.36500001     -0.606999993       11079.7773       1.57745206    
 -0.266297996       1.33877206     -0.606999993       11079.7773       1.57745206    
 -0.366203994       1.84103203     -0.606999993       11079.7773       1.57745206    
   0.00000000       1.87709999     -0.606999993       5440.50635       1.58536601    
   0.00000000       2.59967995     -0.517000020       5440.50635       1.58536601    
  0.507171988       2.54972792     -0.517000020       5440.50635       1.58536601    
  0.366203994       1.84103203     -0.606999993       5440.50635       1.58536601    
  0.366203994       1.84103203     -0.606999993       11087.2266       1.57745576    
  0.266297996       1.33877206     -0.606999993       11087.2266       1.57745576    
   0.00000000       1.36500001     -0.606999993       11087.2266       1.57745576    
   0.00000000       1.87709999     -0.606999993       11087.2266       1.57745576    
  0.366203994       1.84103203     -0.606999993       5293.38330       1.58521092    
  0.507171988       2.54972792     -0.517000020       5293.38330       1.58521092    
  0.994853973       2.40179110     -0.517000020       5293.38330       1.58521092    
  0.718334973       1.73421395     -0.606999993       5293.38330       1.58521092    
  0.718334973       1.73421395     -0.606999993       10705.8398       1.57743335    
  0.522363007       1.26109600     -0.606999993       10705.8398       1.57743335    
  0.266297996       1.33877206     -0.606999993       10705.8398       1.57743335    
  0.366203994       1.84103203     -0.606999993       10705.8398       1.57743335    
  0.718334973       1.73421395     -0.606999993       4959.21973       1.58501422    
  0.994853973       2.40179110     -0.517000020       4959.21973       1.58501422    
   1.44430494       2.16155505     -0.517000020       4959.21973       1.58501422    
   1.04286098       1.56075203     -0.606999993       4959.21973       1.58501422    
   1.04286098       1.56075203     -0.606999993       9920.24414       1.57740188    
  0.758352995       1.13495600     -0.606999993       9920.24414       1.57740188    
  0.522363007       1.26109600     -0.606999993       9920.24414       1.57740188    
  0.718334973       1.73421395     -0.606999993       9920.24414       1.57740188    
   1.04286098       1.56075203     -0.606999993       4391.56006       1.58490682    
   1.44430494       2.16155505     -0.517000020       4391.56006       1.58490682    
   1.83825099       1.83825099     -0.517000020       4391.56006       1.58490682    
   1.32730997       1.32730997     -0.606999993       4391.56006       1.58490682    
   1.32730997       1.32730997     -0.606999993       8722.40820       1.57737374    
  0.965201020      0.965201020     -0.606999993       8722.40820       1.57737374    
  0.758352995       1.13495600     -0.606999993       8722.40820       1.57737374    
   1.04286098       1.56075203     -0.606999993       8722.40820       1.57737374    
   1.32730997       1.32730997     -0.606999993       3578.85889       1.58498132    
   1.83825099       1.83825099     -0.517000020       3578.85889       1.58498132    
   2.16155505       1.44430494     -0.517000020       3578.85889       1.58498132    
   1.56075203       1.04286098     -0.606999993       3578.85889       1.58498132    
   1.56075203       1.04286098     -0.606999993       7144.27344       1.57735229    
   1.13495600      0.758352995     -0.606999993       7144.27344       1.57735229    
  0.965201020      0.965201020     -0.606999993       7144.27344       1.57735229    
   1.32730997       1.32730997     -0.606999993       7144.27344       1.57735229    
   1.56075203       1.04286098     -0.606999993       2584.72119       1.58522928    
   2.16155505       1.44430494     -0.517000020       2584.72119       1.58522928    
   2.40179110      0.994853973     -0.517000020       2584.72119       1.58522928    
   1.73421395      0.718334973     -0.606999993       2584.72119       1.58522928    
   1.73421395      0.718334973     -0.606999993       5267.20410       1.57731473    
   1.26109600      0.522363007     -0.606999993       5267.20410       1.57731473    
   1.13495600      0.758352995     -0.606999993       5267.20410       1.57731473    
   1.56075203       1.04286098     -0.606999993       5267.20410       1.57731473    
   1.73421395      0.718334973     -0.606999993       1533.57434       1.58542919    
   2.40179110      0.994853973     -0.517000020       1533.57434       1.58542919    
   2.54972792      0.507171988     -0.517000020       1533.57434       1.58542919    
   1.84103203      0.366203994     -0.606999993       1533.57434       1.58542919    
   1.84103203      0.366203994     -0.606999993       3207.62695       1.57721150    
   1.33877206      0.266297996     -0.606999993       3207.62695       1.57721150    
   1.26109600      0.522363007     -0.606999993       3207.62695       1.57721150    
   1.73421395      0.718334973     -0.606999993       3207.62695       1.57721150    
   1.84103203      0.366203994     -0.606999993       503.643219       1.58485425    
   2.54972792      0.507171988     -0.517000020       503.643219       1.58485425    
   2.59967995       0.00000000     -0.517000020       503.643219       1.58485425    
   1.87709999       0.00000000     -0.606999993       503.643219       1.58485425    
   1.87709999       0.00000000     -0.606999993       1061.16382       1.57665706    
   1.36500001       0.00000000     -0.606999993       1061.16382       1.57665706    
   1.33877206      0.266297996     -0.606999993       1061.16382       1.57665706    
   1.84103203      0.366203994     -0.606999993       1061.16382       1.57665706    
   1.87709999       0.00000000     -0.606999993       515.732300      -1.55461669    
   2.59967995       0.00000000     -0.517000020       515.732300      -1.55461669    
   2.54972792     -0.507171988     -0.517000020       515.732300      -1.55461669    
   1.84103203     -0.366203994     -0.606999993       515.732300      -1.55461669    
   1.84103203     -0.366203994     -0.606999993       1115.15735      -1.56341708    
   1.33877206     -0.266297996     -0.606999993       1115.15735      -1.56341708    
   1.36500001       0.00000000     -0.606999993       1115.15735      -1.56341708    
   1.87709999       0.00000000     -0.606999993       1115.15735      -1.56341708    
   1.84103203     -0.366203994     -0.606999993       1576.76672      -1.55581033    
   2.54972792     -0.507171988     -0.517000020       1576.76672      -1.55581033    
   2.40179110     -0.994853973     -0.517000020       1576.76672      -1.55581033    
   1.73421395     -0.718334973     -0.606999993       1576.76672      -1.55581033    
   1.73421395     -0.718334973     -0.606999993       3279.69312      -1.56396544    
   1.26109600     -0.522363007     -0.606999993       3279.69312      -1.56396544    
   1.33877206     -0.266297996     -0.606999993       3279.69312      -1.56396544    
   1.84103203     -0.366203994     -0.606999993       3279.69312      -1.56396544    
   1.73421395     -0.718334973     -0.606999993       2657.55322      -1.55641150    
   2.40179110     -0.994853973     -0.517000020       2657.55322      -1.55641150    
   2.16155505      -1.44430494     -0.517000020       2657.55322      -1.55641150    
   1.56075203      -1.04286098     -0.606999993       2657.55322      -1.55641150    
   1.56075203      -1.04286098     -0.606999993       5358.15088      -1.56412852    
   1.13495600     -0.758352995     -0.606999993       5358.15088      -1.56412852    
   1.26109600     -0.522363007     -0.606999993       5358.15088      -1.56412852    