 VARIABLES="X" "Y" "Z" "abs(p) (Pa)" "angle(p) (rad)"
ZONE N=   2709,E =    2358, F=FEPOINT, ET=QUADRILATERAL
   0.00000000      -5.48999977     -0.157000005       192.632217      -1.51422822    
   0.00000000      -4.76741982     -0.246999994       192.632217      -1.51422822    
  0.930077016      -4.67581606     -0.246999994       192.632217      -1.51422822    
   1.07104599      -5.38451099     -0.157000005       192.632217      -1.51422822    
  -1.07104599      -5.38451099     -0.157000005       196.731171       1.63453686    
 -0.930077016      -4.67581606     -0.246999994       196.731171       1.63453686    
   0.00000000      -4.76741982     -0.246999994       196.731171       1.63453686    
   0.00000000      -5.48999977     -0.157000005       196.731171       1.63453686    
  -2.10093188      -5.07209921     -0.157000005       578.361755       1.63632977    
  -1.82441294      -4.40452194     -0.246999994       578.361755       1.63632977    
 -0.930077016      -4.67581606     -0.246999994       578.361755       1.63632977    
  -1.07104599      -5.38451099     -0.157000005       578.361755       1.63632977    
  -3.05008101      -4.56476784     -0.157000005       937.357849       1.63150227    
  -2.64863706      -3.96396494     -0.246999994       937.357849       1.63150227    
  -1.82441294      -4.40452194     -0.246999994       937.357849       1.63150227    
  -2.10093188      -5.07209921     -0.157000005       937.357849       1.63150227    
  -3.88201594      -3.88201594     -0.157000005       1259.67969       1.63287306    
  -3.37107491      -3.37107491     -0.246999994       1259.67969       1.63287306    
  -2.64863706      -3.96396494     -0.246999994       1259.67969       1.63287306    
  -3.05008101      -4.56476784     -0.157000005       1259.67969       1.63287306    
  -4.56476784      -3.05008101     -0.157000005       1538.97278       1.63514352    
  -3.96396494      -2.64863706     -0.246999994       1538.97278       1.63514352    
  -3.37107491      -3.37107491     -0.246999994       1538.97278       1.63514352    
  -3.88201594      -3.88201594     -0.157000005       1538.97278       1.63514352    
  -5.07209921      -2.10093188     -0.157000005       1748.22644       1.63073766    
  -4.40452194      -1.82441294     -0.246999994       1748.22644       1.63073766    
  -3.96396494      -2.64863706     -0.246999994       1748.22644       1.63073766    
  -4.56476784      -3.05008101     -0.157000005       1748.22644       1.63073766    
  -5.38451099      -1.07104599     -0.157000005       1896.52344       1.63238609    
  -4.67581606     -0.930077016     -0.246999994       1896.52344       1.63238609    
  -4.40452194      -1.82441294     -0.246999994       1896.52344       1.63238609    
  -5.07209921      -2.10093188     -0.157000005       1896.52344       1.63238609    
  -5.48999977       0.00000000     -0.157000005       1974.26135       1.63317525    
  -4.76741982       0.00000000     -0.246999994       1974.26135       1.63317525    
  -4.67581606     -0.930077016     -0.246999994       1974.26135       1.63317525    
  -5.38451099      -1.07104599     -0.157000005       1974.26135       1.63317525    
  -5.38451099       1.07104599     -0.157000005       1971.79260       1.63355291    
  -4.67581606      0.930077016     -0.246999994       1971.79260       1.63355291    
  -4.76741982       0.00000000     -0.246999994       1971.79260       1.63355291    
  -5.48999977       0.00000000     -0.157000005       1971.79260       1.63355291    
  -5.07209921       2.10093188     -0.157000005       1896.54871       1.63334596    
  -4.40452194       1.82441294     -0.246999994       1896.54871       1.63334596    
  -4.67581606      0.930077016     -0.246999994       1896.54871       1.63334596    
  -5.38451099       1.07104599     -0.157000005       1896.54871       1.63334596    
  -4.56476784       3.05008101     -0.157000005       1748.44458       1.63320696    
  -3.96396494       2.64863706     -0.246999994       1748.44458       1.63320696    
  -4.40452194       1.82441294     -0.246999994       1748.44458       1.63320696    
  -5.07209921       2.10093188     -0.157000005       1748.44458       1.63320696    
  -3.88201594       3.88201594     -0.157000005       1529.59888       1.63126433    
  -3.37107491       3.37107491     -0.246999994       1529.59888       1.63126433    
  -3.96396494       2.64863706     -0.246999994       1529.59888       1.63126433    
  -4.56476784       3.05008101     -0.157000005       1529.59888       1.63126433    
  -3.05008101       4.56476784     -0.157000005       1259.74719       1.63391793    
  -2.64863706       3.96396494     -0.246999994       1259.74719       1.63391793    
  -3.37107491       3.37107491     -0.246999994       1259.74719       1.63391793    
  -3.88201594       3.88201594     -0.157000005       1259.74719       1.63391793    
  -2.10093188       5.07209921     -0.157000005       932.599182       1.62988889    
  -1.82441294       4.40452194     -0.246999994       932.599182       1.62988889    
  -2.64863706       3.96396494     -0.246999994       932.599182       1.62988889    
  -3.05008101       4.56476784     -0.157000005       932.599182       1.62988889    
  -1.07104599       5.38451099     -0.157000005       576.035828       1.63402820    
 -0.930077016       4.67581606     -0.246999994       576.035828       1.63402820    
  -1.82441294       4.40452194     -0.246999994       576.035828       1.63402820    
  -2.10093188       5.07209921     -0.157000005       576.035828       1.63402820    
   0.00000000       5.48999977     -0.157000005       192.259933       1.62459445    
   0.00000000       4.76741982     -0.246999994       192.259933       1.62459445    
 -0.930077016       4.67581606     -0.246999994       192.259933       1.62459445    
  -1.07104599       5.38451099     -0.157000005       192.259933       1.62459445    
   1.07104599       5.38451099     -0.157000005       196.991821      -1.50231659    
  0.930077016       4.67581606     -0.246999994       196.991821      -1.50231659    
   0.00000000       4.76741982     -0.246999994       196.991821      -1.50231659    
   0.00000000       5.48999977     -0.157000005       196.991821      -1.50231659    
   2.10093188       5.07209921     -0.157000005       576.774841      -1.50936866    
   1.82441294       4.40452194     -0.246999994       576.774841      -1.50936866    
  0.930077016       4.67581606     -0.246999994       576.774841      -1.50936866    
   1.07104599       5.38451099     -0.157000005       576.774841      -1.50936866    
   3.05008101       4.56476784     -0.157000005       939.005737      -1.50894380    
   2.64863706       3.96396494     -0.246999994       939.005737      -1.50894380    
   1.82441294       4.40452194     -0.246999994       939.005737      -1.50894380    
   2.10093188       5.07209921     -0.157000005       939.005737      -1.50894380    
   3.88201594       3.88201594     -0.157000005       1260.76587      -1.50779033    
   3.37107491       3.37107491     -0.246999994       1260.76587      -1.50779033    
   2.64863706       3.96396494     -0.246999994       1260.76587      -1.50779033    
   3.05008101       4.56476784     -0.157000005       1260.76587      -1.50779033    
   4.56476784       3.05008101     -0.157000005       1537.96924      -1.50604272    
   3.96396494       2.64863706     -0.246999994       1537.96924      -1.50604272    
   3.37107491       3.37107491     -0.246999994       1537.96924      -1.50604272    
   3.88201594       3.88201594     -0.157000005       1537.96924      -1.50604272    
   5.07209921       2.10093188     -0.157000005       1756.24463      -1.50789452    
   4.40452194       1.82441294     -0.246999994       1756.24463      -1.50789452    
   3.96396494       2.64863706     -0.246999994       1756.24463      -1.50789452    
   4.56476784       3.05008101     -0.157000005       1756.24463      -1.50789452    
   5.38451099       1.07104599     -0.157000005       1892.67017      -1.51041472    
   4.67581606      0.930077016     -0.246999994       1892.67017      -1.51041472    
   4.40452194       1.82441294     -0.246999994       1892.67017      -1.51041472    
   5.07209921       2.10093188     -0.157000005       1892.67017      -1.51041472    
   5.48999977       0.00000000     -0.157000005       1971.51331      -1.50912344    
   4.76741982       0.00000000     -0.246999994       1971.51331      -1.50912344    
   4.67581606      0.930077016     -0.246999994       1971.51331      -1.50912344    
   5.38451099       1.07104599     -0.157000005       1971.51331      -1.50912344    
   5.38451099      -1.07104599     -0.157000005       1970.23242      -1.50967526    
   4.67581606     -0.930077016     -0.246999994       1970.23242      -1.50967526    
   4.76741982       0.00000000     -0.246999994       1970.23242      -1.50967526    
   5.48999977       0.00000000     -0.157000005       1970.23242      -1.50967526    
   5.07209921      -2.10093188     -0.157000005       1894.14307      -1.50974953    
   4.40452194      -1.82441294     -0.246999994       1894.14307      -1.50974953    
   4.67581606     -0.930077016     -0.246999994       1894.14307      -1.50974953    
   5.38451099      -1.07104599     -0.157000005       1894.14307      -1.50974953    
   4.56476784      -3.05008101     -0.157000005       1746.58875      -1.50974882    
   3.96396494      -2.64863706     -0.246999994       1746.58875      -1.50974882    
   4.40452194      -1.82441294     -0.246999994       1746.58875      -1.50974882    
   5.07209921      -2.10093188     -0.157000005       1746.58875      -1.50974882    
   3.88201594      -3.88201594     -0.157000005       1531.46631      -1.51015520    
   3.37107491      -3.37107491     -0.246999994       1531.46631      -1.51015520    
   3.96396494      -2.64863706     -0.246999994       1531.46631      -1.51015520    
   4.56476784      -3.05008101     -0.157000005       1531.46631      -1.51015520    
   3.05008101      -4.56476784     -0.157000005       1258.93567      -1.50773096    
   2.64863706      -3.96396494     -0.246999994       1258.93567      -1.50773096    
   3.37107491      -3.37107491     -0.246999994       1258.93567      -1.50773096    
   3.88201594      -3.88201594     -0.157000005       1258.93567      -1.50773096    
   2.10093188      -5.07209921     -0.157000005       932.486145      -1.51103878    
   1.82441294      -4.40452194     -0.246999994       932.486145      -1.51103878    
   2.64863706      -3.96396494     -0.246999994       932.486145      -1.51103878    
   3.05008101      -4.56476784     -0.157000005       932.486145      -1.51103878    
   1.07104599      -5.38451099     -0.157000005       575.564819      -1.51008511    
  0.930077016      -4.67581606     -0.246999994       575.564819      -1.51008511    
   1.82441294      -4.40452194     -0.246999994       575.564819      -1.51008511    
   2.10093188      -5.07209921     -0.157000005       575.564819      -1.51008511    
   0.00000000      -1.87709999     -0.606999993       907.340576       1.56300128    
   0.00000000      -1.36500001     -0.606999993       907.340576       1.56300128    
  0.266297996      -1.33877206     -0.606999993       907.340576       1.56300128    
  0.366203994      -1.84103203     -0.606999993       907.340576       1.56300128    
   0.00000000      -1.87709999     -0.606999993       915.218323      -1.56949759    
   0.00000000      -2.59967995     -0.517000020       915.218323      -1.56949759    
 -0.507171988      -2.54972792     -0.517000020       915.218323      -1.56949759    
 -0.366203994      -1.84103203     -0.606999993       915.218323      -1.56949759    
 -0.366203994      -1.84103203     -0.606999993       904.037537      -1.57222712    
 -0.266297996      -1.33877206     -0.606999993       904.037537      -1.57222712    
   0.00000000      -1.36500001     -0.606999993       904.037537      -1.57222712    
   0.00000000      -1.87709999     -0.606999993       904.037537      -1.57222712    
 -0.366203994      -1.84103203     -0.606999993       2752.72021      -1.57267404    
 -0.507171988      -2.54972792     -0.517000020       2752.72021      -1.57267404    
 -0.994853973      -2.40179110     -0.517000020       2752.72021      -1.57267404    
 -0.718334973      -1.73421395     -0.606999993       2752.72021      -1.57267404    
 -0.718334973      -1.73421395     -0.606999993       2671.93481      -1.57472718    
 -0.522363007      -1.26109600     -0.606999993       2671.93481      -1.57472718    
 -0.266297996      -1.33877206     -0.606999993       2671.93481      -1.57472718    
 -0.366203994      -1.84103203     -0.606999993       2671.93481      -1.57472718    
 -0.718334973      -1.73421395     -0.606999993       4421.57910      -1.57374406    
 -0.994853973      -2.40179110     -0.517000020       4421.57910      -1.57374406    
  -1.44430494      -2.16155505     -0.517000020       4421.57910      -1.57374406    
  -1.04286098      -1.56075203     -0.606999993       4421.57910      -1.57374406    
  -1.04286098      -1.56075203     -0.606999993       4295.48730      -1.57548714    
 -0.758352995      -1.13495600     -0.606999993       4295.48730      -1.57548714    
 -0.522363007      -1.26109600     -0.606999993       4295.48730      -1.57548714    
 -0.718334973      -1.73421395     -0.606999993       4295.48730      -1.57548714    
  -1.04286098      -1.56075203     -0.606999993       5838.50732      -1.57445192    
  -1.44430494      -2.16155505     -0.517000020       5838.50732      -1.57445192    
  -1.83825099      -1.83825099     -0.517000020       5838.50732      -1.57445192    
  -1.32730997      -1.32730997     -0.606999993       5838.50732      -1.57445192    
  -1.32730997      -1.32730997     -0.606999993       5697.51074      -1.57596862    
 -0.965201020     -0.965201020     -0.606999993       5697.51074      -1.57596862    
 -0.758352995      -1.13495600     -0.606999993       5697.51074      -1.57596862    
  -1.04286098      -1.56075203     -0.606999993       5697.51074      -1.57596862    
  -1.32730997      -1.32730997     -0.606999993       6971.09131      -1.57484043    
  -1.83825099      -1.83825099     -0.517000020       6971.09131      -1.57484043    
  -2.16155505      -1.44430494     -0.517000020       6971.09131      -1.57484043    
  -1.56075203      -1.04286098     -0.606999993       6971.09131      -1.57484043    
  -1.56075203      -1.04286098     -0.606999993       6832.46240      -1.57628250    
  -1.13495600     -0.758352995     -0.606999993       6832.46240      -1.57628250    
 -0.965201020     -0.965201020     -0.606999993       6832.46240      -1.57628250    
  -1.32730997      -1.32730997     -0.606999993       6832.46240      -1.57628250    
  -1.56075203      -1.04286098     -0.606999993       7818.99463      -1.57490671    
  -2.16155505      -1.44430494     -0.517000020       7818.99463      -1.57490671    
  -2.40179110     -0.994853973     -0.517000020       7818.99463      -1.57490671    
  -1.73421395     -0.718334973     -0.606999993       7818.99463      -1.57490671    
  -1.73421395     -0.718334973     -0.606999993       7678.65625      -1.57642591    
  -1.26109600     -0.522363007     -0.606999993       7678.65625      -1.57642591    
  -1.13495600     -0.758352995     -0.606999993       7678.65625      -1.57642591    
  -1.56075203      -1.04286098     -0.606999993       7678.65625      -1.57642591    
  -1.73421395     -0.718334973     -0.606999993       8382.14062      -1.57471085    
  -2.40179110     -0.994853973     -0.517000020       8382.14062      -1.57471085    
  -2.54972792     -0.507171988     -0.517000020       8382.14062      -1.57471085    
  -1.84103203     -0.366203994     -0.606999993       8382.14062      -1.57471085    
  -1.84103203     -0.366203994     -0.606999993       8224.29688      -1.57640254    
  -1.33877206     -0.266297996     -0.606999993       8224.29688      -1.57640254    
  -1.26109600     -0.522363007     -0.606999993       8224.29688      -1.57640254    
  -1.73421395     -0.718334973     -0.606999993       8224.29688      -1.57640254    
  -1.84103203     -0.366203994     -0.606999993       8649.35547      -1.57438529    
  -2.54972792     -0.507171988     -0.517000020       8649.35547      -1.57438529    
  -2.59967995       0.00000000     -0.517000020       8649.35547      -1.57438529    
  -1.87709999       0.00000000     -0.606999993       8649.35547      -1.57438529    
  -1.87709999       0.00000000     -0.606999993       8470.72461      -1.57625318    
  -1.36500001       0.00000000     -0.606999993       8470.72461      -1.57625318    
  -1.33877206     -0.266297996     -0.606999993       8470.72461      -1.57625318    
  -1.84103203     -0.366203994     -0.606999993       8470.72461      -1.57625318    
  -1.87709999       0.00000000     -0.606999993       8610.61621      -1.57408345    
  -2.59967995       0.00000000     -0.517000020       8610.61621      -1.57408345    
  -2.54972792      0.507171988     -0.517000020       8610.61621      -1.57408345    
  -1.84103203      0.366203994     -0.606999993       8610.61621      -1.57408345    
  -1.84103203      0.366203994     -0.606999993       8429.06543      -1.57604623    
  -1.33877206      0.266297996     -0.606999993       8429.06543      -1.57604623    
  -1.36500001       0.00000000     -0.606999993       8429.06543      -1.57604623    
  -1.87709999       0.00000000     -0.606999993       8429.06543      -1.57604623    
  -1.84103203      0.366203994     -0.606999993       8277.83594      -1.57391715    
  -2.54972792      0.507171988     -0.517000020       8277.83594      -1.57391715    
  -2.40179110      0.994853973     -0.517000020       8277.83594      -1.57391715    
  -1.73421395      0.718334973     -0.606999993       8277.83594      -1.57391715    
  -1.73421395      0.718334973     -0.606999993       8113.43945      -1.57585645    
  -1.26109600      0.522363007     -0.606999993       8113.43945      -1.57585645    
  -1.33877206      0.266297996     -0.606999993       8113.43945      -1.57585645    
  -1.84103203      0.366203994     -0.606999993       8113.43945      -1.57585645    
  -1.73421395      0.718334973     -0.606999993       7681.58984      -1.57391131    
  -2.40179110      0.994853973     -0.517000020       7681.58984      -1.57391131    
  -2.16155505       1.44430494     -0.517000020       7681.58984      -1.57391131    
  -1.56075203       1.04286098     -0.606999993       7681.58984      -1.57391131    
  -1.56075203       1.04286098     -0.606999993       7534.41895      -1.57572603    
  -1.13495600      0.758352995     -0.606999993       7534.41895      -1.57572603    
  -1.26109600      0.522363007     -0.606999993       7534.41895      -1.57572603    
  -1.73421395      0.718334973     -0.606999993       7534.41895      -1.57572603    
  -1.56075203       1.04286098     -0.606999993       6844.38477      -1.57400966    
  -2.16155505       1.44430494     -0.517000020       6844.38477      -1.57400966    
  -1.83825099       1.83825099     -0.517000020       6844.38477      -1.57400966    
  -1.32730997       1.32730997     -0.606999993       6844.38477      -1.57400966    
  -1.32730997       1.32730997     -0.606999993       6696.05518      -1.57568157    
 -0.965201020      0.965201020     -0.606999993       6696.05518      -1.57568157    
  -1.13495600      0.758352995     -0.606999993       6696.05518      -1.57568157    
  -1.56075203       1.04286098     -0.606999993       6696.05518      -1.57568157    
  -1.32730997       1.32730997     -0.606999993       5761.89795      -1.57409167    
  -1.83825099       1.83825099     -0.517000020       5761.89795      -1.57409167    
  -1.44430494       2.16155505     -0.517000020       5761.89795      -1.57409167    
  -1.04286098       1.56075203     -0.606999993       5761.89795      -1.57409167    
  -1.04286098       1.56075203     -0.606999993       5598.29102      -1.57574165    
 -0.758352995       1.13495600     -0.606999993       5598.29102      -1.57574165    
 -0.965201020      0.965201020     -0.606999993       5598.29102      -1.57574165    
  -1.32730997       1.32730997     -0.606999993       5598.29102      -1.57574165    
  -1.04286098       1.56075203     -0.606999993       4414.68945      -1.57415843    
  -1.44430494       2.16155505     -0.517000020       4414.68945      -1.57415843    
 -0.994853973       2.40179110     -0.517000020       4414.68945      -1.57415843    
 -0.718334973       1.73421395     -0.606999993       4414.68945      -1.57415843    
 -0.718334973       1.73421395     -0.606999993       4246.63281      -1.57595921    
 -0.522363007       1.26109600     -0.606999993       4246.63281      -1.57595921    
 -0.758352995       1.13495600     -0.606999993       4246.63281      -1.57595921    
  -1.04286098       1.56075203     -0.606999993       4246.63281      -1.57595921    
 -0.718334973       1.73421395     -0.606999993       2804.67261      -1.57445788    
 -0.994853973       2.40179110     -0.517000020       2804.67261      -1.57445788    
 -0.507171988       2.54972792     -0.517000020       2804.67261      -1.57445788    
 -0.366203994       1.84103203     -0.606999993       2804.67261      -1.57445788    
 -0.366203994       1.84103203     -0.606999993       2666.75659      -1.57649982    
 -0.266297996       1.33877206     -0.606999993       2666.75659      -1.57649982    
 -0.522363007       1.26109600     -0.606999993       2666.75659      -1.57649982    
 -0.718334973       1.73421395     -0.606999993       2666.75659      -1.57649982    
 -0.366203994       1.84103203     -0.606999993       990.402771      -1.57635939    
 -0.507171988       2.54972792     -0.517000020       990.402771      -1.57635939    
   0.00000000       2.59967995     -0.517000020       990.402771      -1.57635939    
   0.00000000       1.87709999     -0.606999993       990.402771      -1.57635939    
   0.00000000       1.87709999     -0.606999993       918.978088      -1.57879281    
   0.00000000       1.36500001     -0.606999993       918.978088      -1.57879281    
 -0.266297996       1.33877206     -0.606999993       918.978088      -1.57879281    
 -0.366203994       1.84103203     -0.606999993       918.978088      -1.57879281    
   0.00000000       1.87709999     -0.606999993       913.405579       1.57094014    
   0.00000000       2.59967995     -0.517000020       913.405579       1.57094014    
  0.507171988       2.54972792     -0.517000020       913.405579       1.57094014    
  0.366203994       1.84103203     -0.606999993       913.405579       1.57094014    
  0.366203994       1.84103203     -0.606999993       900.754272       1.56898189    
  0.266297996       1.33877206     -0.606999993       900.754272       1.56898189    
   0.00000000       1.36500001     -0.606999993       900.754272       1.56898189    
   0.00000000       1.87709999     -0.606999993       900.754272       1.56898189    
  0.366203994       1.84103203     -0.606999993       2764.29736       1.56845105    
  0.507171988       2.54972792     -0.517000020       2764.29736       1.56845105    
  0.994853973       2.40179110     -0.517000020       2764.29736       1.56845105    
  0.718334973       1.73421395     -0.606999993       2764.29736       1.56845105    
  0.718334973       1.73421395     -0.606999993       2676.88696       1.56656504    
  0.522363007       1.26109600     -0.606999993       2676.88696       1.56656504    
  0.266297996       1.33877206     -0.606999993       2676.88696       1.56656504    
  0.366203994       1.84103203     -0.606999993       2676.88696       1.56656504    
  0.718334973       1.73421395     -0.606999993       4430.13428       1.56762052    
  0.994853973       2.40179110     -0.517000020       4430.13428       1.56762052    
   1.44430494       2.16155505     -0.517000020       4430.13428       1.56762052    
   1.04286098       1.56075203     -0.606999993       4430.13428       1.56762052    
   1.04286098       1.56075203     -0.606999993       4299.77979       1.56589782    
  0.758352995       1.13495600     -0.606999993       4299.77979       1.56589782    
  0.522363007       1.26109600     -0.606999993       4299.77979       1.56589782    
  0.718334973       1.73421395     -0.606999993       4299.77979       1.56589782    
   1.04286098       1.56075203     -0.606999993       5828.44043       1.56712878    
   1.44430494       2.16155505     -0.517000020       5828.44043       1.56712878    
   1.83825099       1.83825099     -0.517000020       5828.44043       1.56712878    
   1.32730997       1.32730997     -0.606999993       5828.44043       1.56712878    
   1.32730997       1.32730997     -0.606999993       5689.27441       1.56553197    
  0.965201020      0.965201020     -0.606999993       5689.27441       1.56553197    
  0.758352995       1.13495600     -0.606999993       5689.27441       1.56553197    
   1.04286098       1.56075203     -0.606999993       5689.27441       1.56553197    
   1.32730997       1.32730997     -0.606999993       6939.03369       1.56689095    
   1.83825099       1.83825099     -0.517000020       6939.03369       1.56689095    
   2.16155505       1.44430494     -0.517000020       6939.03369       1.56689095    
   1.56075203       1.04286098     -0.606999993       6939.03369       1.56689095    
   1.56075203       1.04286098     -0.606999993       6804.35840       1.56532633    
   1.13495600      0.758352995     -0.606999993       6804.35840       1.56532633    
  0.965201020      0.965201020     -0.606999993       6804.35840       1.56532633    
   1.32730997       1.32730997     -0.606999993       6804.35840       1.56532633    
   1.56075203       1.04286098     -0.606999993       7776.82471       1.56686616    
   2.16155505       1.44430494     -0.517000020       7776.82471       1.56686616    
   2.40179110      0.994853973     -0.517000020       7776.82471       1.56686616    
   1.73421395      0.718334973     -0.606999993       7776.82471       1.56686616    
   1.73421395      0.718334973     -0.606999993       7636.94531       1.56524694    
   1.26109600      0.522363007     -0.606999993       7636.94531       1.56524694    
   1.13495600      0.758352995     -0.606999993       7636.94531       1.56524694    
   1.56075203       1.04286098     -0.606999993       7636.94531       1.56524694    
   1.73421395      0.718334973     -0.606999993       8348.00098       1.56697798    
   2.40179110      0.994853973     -0.517000020       8348.00098       1.56697798    
   2.54972792      0.507171988     -0.517000020       8348.00098       1.56697798    
   1.84103203      0.366203994     -0.606999993       8348.00098       1.56697798    
   1.84103203      0.366203994     -0.606999993       8189.46533       1.56527615    
   1.33877206      0.266297996     -0.606999993       8189.46533       1.56527615    
   1.26109600      0.522363007     -0.606999993       8189.46533       1.56527615    
   1.73421395      0.718334973     -0.606999993       8189.46533       1.56527615    
   1.84103203      0.366203994     -0.606999993       8636.97559       1.56714427    
   2.54972792      0.507171988     -0.517000020       8636.97559       1.56714427    
   2.59967995       0.00000000     -0.517000020       8636.97559       1.56714427    
   1.87709999       0.00000000     -0.606999993       8636.97559       1.56714427    
   1.87709999       0.00000000     -0.606999993       8458.55176       1.56538570    
   1.36500001       0.00000000     -0.606999993       8458.55176       1.56538570    
   1.33877206      0.266297996     -0.606999993       8458.55176       1.56538570    
   1.84103203      0.366203994     -0.606999993       8458.55176       1.56538570    
   1.87709999       0.00000000     -0.606999993       8622.83789       1.56731522    
   2.59967995       0.00000000     -0.517000020       8622.83789       1.56731522    
   2.54972792     -0.507171988     -0.517000020       8622.83789       1.56731522    
   1.84103203     -0.366203994     -0.606999993       8622.83789       1.56731522    
   1.84103203     -0.366203994     -0.606999993       8443.90625       1.56553984    
   1.33877206     -0.266297996     -0.606999993       8443.90625       1.56553984    
   1.36500001       0.00000000     -0.606999993       8443.90625       1.56553984    
   1.87709999       0.00000000     -0.606999993       8443.90625       1.56553984    
   1.84103203     -0.366203994     -0.606999993       8311.26758       1.56746113    
   2.54972792     -0.507171988     -0.517000020       8311.26758       1.56746113    
   2.40179110     -0.994853973     -0.517000020       8311.26758       1.56746113    
   1.73421395     -0.718334973     -0.606999993       8311.26758       1.56746113    
   1.73421395     -0.718334973     -0.606999993       8148.64258       1.56570733    
   1.26109600     -0.522363007     -0.606999993       8148.64258       1.56570733    
   1.33877206     -0.266297996     -0.606999993       8148.64258       1.56570733    
   1.84103203     -0.366203994     -0.606999993       8148.64258       1.56570733    
   1.73421395     -0.718334973     -0.606999993       7727.65869       1.56757390    
   2.40179110     -0.994853973     -0.517000020       7727.65869       1.56757390    
   2.16155505      -1.44430494     -0.517000020       7727.65869       1.56757390    
   1.56075203      -1.04286098     -0.606999993       7727.65869       1.56757390    
   1.56075203      -1.04286098     -0.606999993       7576.75732       1.56586087    
   1.13495600     -0.758352995     -0.606999993       7576.75732       1.56586087    
   1.26109600     -0.522363007     -0.606999993       7576.75732       1.56586087    