 VARIABLES="X" "Y" "Z" "abs(p) (Pa)" "angle(p) (rad)"
ZONE N=   2709,E =    2358, F=FEPOINT, ET=QUADRILATERAL
   0.00000000      -5.48999977     -0.157000005       464.827087       2.62883878    
   0.00000000      -4.76741982     -0.246999994       464.827087       2.62883878    
  0.930077016      -4.67581606     -0.246999994       464.827087       2.62883878    
   1.07104599      -5.38451099     -0.157000005       464.827087       2.62883878    
  -1.07104599      -5.38451099     -0.157000005       464.224884       2.62932014    
 -0.930077016      -4.67581606     -0.246999994       464.224884       2.62932014    
   0.00000000      -4.76741982     -0.246999994       464.224884       2.62932014    
   0.00000000      -5.48999977     -0.157000005       464.224884       2.62932014    
  -2.10093188      -5.07209921     -0.157000005       439.768524       2.63563061    
  -1.82441294      -4.40452194     -0.246999994       439.768524       2.63563061    
 -0.930077016      -4.67581606     -0.246999994       439.768524       2.63563061    
  -1.07104599      -5.38451099     -0.157000005       439.768524       2.63563061    
  -3.05008101      -4.56476784     -0.157000005       410.433411       2.62918973    
  -2.64863706      -3.96396494     -0.246999994       410.433411       2.62918973    
  -1.82441294      -4.40452194     -0.246999994       410.433411       2.62918973    
  -2.10093188      -5.07209921     -0.157000005       410.433411       2.62918973    
  -3.88201594      -3.88201594     -0.157000005       359.363007       2.62899470    
  -3.37107491      -3.37107491     -0.246999994       359.363007       2.62899470    
  -2.64863706      -3.96396494     -0.246999994       359.363007       2.62899470    
  -3.05008101      -4.56476784     -0.157000005       359.363007       2.62899470    
  -4.56476784      -3.05008101     -0.157000005       289.081573       2.63697076    
  -3.96396494      -2.64863706     -0.246999994       289.081573       2.63697076    
  -3.37107491      -3.37107491     -0.246999994       289.081573       2.63697076    
  -3.88201594      -3.88201594     -0.157000005       289.081573       2.63697076    
  -5.07209921      -2.10093188     -0.157000005       217.887161       2.63012552    
  -4.40452194      -1.82441294     -0.246999994       217.887161       2.63012552    
  -3.96396494      -2.64863706     -0.246999994       217.887161       2.63012552    
  -4.56476784      -3.05008101     -0.157000005       217.887161       2.63012552    
  -5.38451099      -1.07104599     -0.157000005       134.969315       2.62872410    
  -4.67581606     -0.930077016     -0.246999994       134.969315       2.62872410    
  -4.40452194      -1.82441294     -0.246999994       134.969315       2.62872410    
  -5.07209921      -2.10093188     -0.157000005       134.969315       2.62872410    
  -5.48999977       0.00000000     -0.157000005       45.4656944       2.63701367    
  -4.76741982       0.00000000     -0.246999994       45.4656944       2.63701367    
  -4.67581606     -0.930077016     -0.246999994       45.4656944       2.63701367    
  -5.38451099      -1.07104599     -0.157000005       45.4656944       2.63701367    
  -5.38451099       1.07104599     -0.157000005       44.0875206     -0.509379208    
  -4.67581606      0.930077016     -0.246999994       44.0875206     -0.509379208    
  -4.76741982       0.00000000     -0.246999994       44.0875206     -0.509379208    
  -5.48999977       0.00000000     -0.157000005       44.0875206     -0.509379208    
  -5.07209921       2.10093188     -0.157000005       131.936554     -0.506493390    
  -4.40452194       1.82441294     -0.246999994       131.936554     -0.506493390    
  -4.67581606      0.930077016     -0.246999994       131.936554     -0.506493390    
  -5.38451099       1.07104599     -0.157000005       131.936554     -0.506493390    
  -4.56476784       3.05008101     -0.157000005       215.313736     -0.506253064    
  -3.96396494       2.64863706     -0.246999994       215.313736     -0.506253064    
  -4.40452194       1.82441294     -0.246999994       215.313736     -0.506253064    
  -5.07209921       2.10093188     -0.157000005       215.313736     -0.506253064    
  -3.88201594       3.88201594     -0.157000005       294.487854     -0.511771560    
  -3.37107491       3.37107491     -0.246999994       294.487854     -0.511771560    
  -3.96396494       2.64863706     -0.246999994       294.487854     -0.511771560    
  -4.56476784       3.05008101     -0.157000005       294.487854     -0.511771560    
  -3.05008101       4.56476784     -0.157000005       354.607666     -0.505581081    
  -2.64863706       3.96396494     -0.246999994       354.607666     -0.505581081    
  -3.37107491       3.37107491     -0.246999994       354.607666     -0.505581081    
  -3.88201594       3.88201594     -0.157000005       354.607666     -0.505581081    
  -2.10093188       5.07209921     -0.157000005       410.094971     -0.510912657    
  -1.82441294       4.40452194     -0.246999994       410.094971     -0.510912657    
  -2.64863706       3.96396494     -0.246999994       410.094971     -0.510912657    
  -3.05008101       4.56476784     -0.157000005       410.094971     -0.510912657    
  -1.07104599       5.38451099     -0.157000005       439.605133     -0.504974961    
 -0.930077016       4.67581606     -0.246999994       439.605133     -0.504974961    
  -1.82441294       4.40452194     -0.246999994       439.605133     -0.504974961    
  -2.10093188       5.07209921     -0.157000005       439.605133     -0.504974961    
   0.00000000       5.48999977     -0.157000005       463.200378     -0.510677397    
   0.00000000       4.76741982     -0.246999994       463.200378     -0.510677397    
 -0.930077016       4.67581606     -0.246999994       463.200378     -0.510677397    
  -1.07104599       5.38451099     -0.157000005       463.200378     -0.510677397    
   1.07104599       5.38451099     -0.157000005       457.428528     -0.505343735    
  0.930077016       4.67581606     -0.246999994       457.428528     -0.505343735    
   0.00000000       4.76741982     -0.246999994       457.428528     -0.505343735    
   0.00000000       5.48999977     -0.157000005       457.428528     -0.505343735    
   2.10093188       5.07209921     -0.157000005       445.716827     -0.512129784    
   1.82441294       4.40452194     -0.246999994       445.716827     -0.512129784    
  0.930077016       4.67581606     -0.246999994       445.716827     -0.512129784    
   1.07104599       5.38451099     -0.157000005       445.716827     -0.512129784    
   3.05008101       4.56476784     -0.157000005       410.615448     -0.513109744    
   2.64863706       3.96396494     -0.246999994       410.615448     -0.513109744    
   1.82441294       4.40452194     -0.246999994       410.615448     -0.513109744    
   2.10093188       5.07209921     -0.157000005       410.615448     -0.513109744    
   3.88201594       3.88201594     -0.157000005       353.476440     -0.506197095    
   3.37107491       3.37107491     -0.246999994       353.476440     -0.506197095    
   2.64863706       3.96396494     -0.246999994       353.476440     -0.506197095    
   3.05008101       4.56476784     -0.157000005       353.476440     -0.506197095    
   4.56476784       3.05008101     -0.157000005       290.087372     -0.508037567    
   3.96396494       2.64863706     -0.246999994       290.087372     -0.508037567    
   3.37107491       3.37107491     -0.246999994       290.087372     -0.508037567    
   3.88201594       3.88201594     -0.157000005       290.087372     -0.508037567    
   5.07209921       2.10093188     -0.157000005       214.118286     -0.506186247    
   4.40452194       1.82441294     -0.246999994       214.118286     -0.506186247    
   3.96396494       2.64863706     -0.246999994       214.118286     -0.506186247    
   4.56476784       3.05008101     -0.157000005       214.118286     -0.506186247    
   5.38451099       1.07104599     -0.157000005       134.210678     -0.514547169    
   4.67581606      0.930077016     -0.246999994       134.210678     -0.514547169    
   4.40452194       1.82441294     -0.246999994       134.210678     -0.514547169    
   5.07209921       2.10093188     -0.157000005       134.210678     -0.514547169    
   5.48999977       0.00000000     -0.157000005       45.8039665     -0.519840539    
   4.76741982       0.00000000     -0.246999994       45.8039665     -0.519840539    
   4.67581606      0.930077016     -0.246999994       45.8039665     -0.519840539    
   5.38451099       1.07104599     -0.157000005       45.8039665     -0.519840539    
   5.38451099      -1.07104599     -0.157000005       45.1542206       2.63068271    
   4.67581606     -0.930077016     -0.246999994       45.1542206       2.63068271    
   4.76741982       0.00000000     -0.246999994       45.1542206       2.63068271    
   5.48999977       0.00000000     -0.157000005       45.1542206       2.63068271    
   5.07209921      -2.10093188     -0.157000005       134.681564       2.62776828    
   4.40452194      -1.82441294     -0.246999994       134.681564       2.62776828    
   4.67581606     -0.930077016     -0.246999994       134.681564       2.62776828    
   5.38451099      -1.07104599     -0.157000005       134.681564       2.62776828    
   4.56476784      -3.05008101     -0.157000005       219.251465       2.62760568    
   3.96396494      -2.64863706     -0.246999994       219.251465       2.62760568    
   4.40452194      -1.82441294     -0.246999994       219.251465       2.62760568    
   5.07209921      -2.10093188     -0.157000005       219.251465       2.62760568    
   3.88201594      -3.88201594     -0.157000005       295.063934       2.62848353    
   3.37107491      -3.37107491     -0.246999994       295.063934       2.62848353    
   3.96396494      -2.64863706     -0.246999994       295.063934       2.62848353    
   4.56476784      -3.05008101     -0.157000005       295.063934       2.62848353    
   3.05008101      -4.56476784     -0.157000005       354.783112       2.63505149    
   2.64863706      -3.96396494     -0.246999994       354.783112       2.63505149    
   3.37107491      -3.37107491     -0.246999994       354.783112       2.63505149    
   3.88201594      -3.88201594     -0.157000005       354.783112       2.63505149    
   2.10093188      -5.07209921     -0.157000005       410.893860       2.62907791    
   1.82441294      -4.40452194     -0.246999994       410.893860       2.62907791    
   2.64863706      -3.96396494     -0.246999994       410.893860       2.62907791    
   3.05008101      -4.56476784     -0.157000005       410.893860       2.62907791    
   1.07104599      -5.38451099     -0.157000005       446.875122       2.62865353    
  0.930077016      -4.67581606     -0.246999994       446.875122       2.62865353    
   1.82441294      -4.40452194     -0.246999994       446.875122       2.62865353    
   2.10093188      -5.07209921     -0.157000005       446.875122       2.62865353    
   0.00000000      -1.87709999     -0.606999993       954.099915      -1.65306592    
   0.00000000      -1.36500001     -0.606999993       954.099915      -1.65306592    
  0.266297996      -1.33877206     -0.606999993       954.099915      -1.65306592    
  0.366203994      -1.84103203     -0.606999993       954.099915      -1.65306592    
   0.00000000      -1.87709999     -0.606999993       357.576172      -1.84767294    
   0.00000000      -2.59967995     -0.517000020       357.576172      -1.84767294    
 -0.507171988      -2.54972792     -0.517000020       357.576172      -1.84767294    
 -0.366203994      -1.84103203     -0.606999993       357.576172      -1.84767294    
 -0.366203994      -1.84103203     -0.606999993       953.666809      -1.65314615    
 -0.266297996      -1.33877206     -0.606999993       953.666809      -1.65314615    
   0.00000000      -1.36500001     -0.606999993       953.666809      -1.65314615    
   0.00000000      -1.87709999     -0.606999993       953.666809      -1.65314615    
 -0.366203994      -1.84103203     -0.606999993       343.268738      -1.84839189    
 -0.507171988      -2.54972792     -0.517000020       343.268738      -1.84839189    
 -0.994853973      -2.40179110     -0.517000020       343.268738      -1.84839189    
 -0.718334973      -1.73421395     -0.606999993       343.268738      -1.84839189    
 -0.718334973      -1.73421395     -0.606999993       916.297058      -1.65343130    
 -0.522363007      -1.26109600     -0.606999993       916.297058      -1.65343130    
 -0.266297996      -1.33877206     -0.606999993       916.297058      -1.65343130    
 -0.366203994      -1.84103203     -0.606999993       916.297058      -1.65343130    
 -0.718334973      -1.73421395     -0.606999993       315.962250      -1.84959388    
 -0.994853973      -2.40179110     -0.517000020       315.962250      -1.84959388    
  -1.44430494      -2.16155505     -0.517000020       315.962250      -1.84959388    
  -1.04286098      -1.56075203     -0.606999993       315.962250      -1.84959388    
  -1.04286098      -1.56075203     -0.606999993       843.845276      -1.65384805    
 -0.758352995      -1.13495600     -0.606999993       843.845276      -1.65384805    
 -0.522363007      -1.26109600     -0.606999993       843.845276      -1.65384805    
 -0.718334973      -1.73421395     -0.606999993       843.845276      -1.65384805    
  -1.04286098      -1.56075203     -0.606999993       277.227386      -1.85060489    
  -1.44430494      -2.16155505     -0.517000020       277.227386      -1.85060489    
  -1.83825099      -1.83825099     -0.517000020       277.227386      -1.85060489    
  -1.32730997      -1.32730997     -0.606999993       277.227386      -1.85060489    
  -1.32730997      -1.32730997     -0.606999993       739.345276      -1.65428555    
 -0.965201020     -0.965201020     -0.606999993       739.345276      -1.65428555    
 -0.758352995      -1.13495600     -0.606999993       739.345276      -1.65428555    
  -1.04286098      -1.56075203     -0.606999993       739.345276      -1.65428555    
  -1.32730997      -1.32730997     -0.606999993       228.346634      -1.85034978    
  -1.83825099      -1.83825099     -0.517000020       228.346634      -1.85034978    
  -2.16155505      -1.44430494     -0.517000020       228.346634      -1.85034978    
  -1.56075203      -1.04286098     -0.606999993       228.346634      -1.85034978    
  -1.56075203      -1.04286098     -0.606999993       606.924255      -1.65455282    
  -1.13495600     -0.758352995     -0.606999993       606.924255      -1.65455282    
 -0.965201020     -0.965201020     -0.606999993       606.924255      -1.65455282    
  -1.32730997      -1.32730997     -0.606999993       606.924255      -1.65455282    
  -1.56075203      -1.04286098     -0.606999993       170.633041      -1.84799838    
  -2.16155505      -1.44430494     -0.517000020       170.633041      -1.84799838    
  -2.40179110     -0.994853973     -0.517000020       170.633041      -1.84799838    
  -1.73421395     -0.718334973     -0.606999993       170.633041      -1.84799838    
  -1.73421395     -0.718334973     -0.606999993       451.657745      -1.65452015    
  -1.26109600     -0.522363007     -0.606999993       451.657745      -1.65452015    
  -1.13495600     -0.758352995     -0.606999993       451.657745      -1.65452015    
  -1.56075203      -1.04286098     -0.606999993       451.657745      -1.65452015    
  -1.73421395     -0.718334973     -0.606999993       106.011543      -1.84369242    
  -2.40179110     -0.994853973     -0.517000020       106.011543      -1.84369242    
  -2.54972792     -0.507171988     -0.517000020       106.011543      -1.84369242    
  -1.84103203     -0.366203994     -0.606999993       106.011543      -1.84369242    
  -1.84103203     -0.366203994     -0.606999993       278.994507      -1.65449142    
  -1.33877206     -0.266297996     -0.606999993       278.994507      -1.65449142    
  -1.26109600     -0.522363007     -0.606999993       278.994507      -1.65449142    
  -1.73421395     -0.718334973     -0.606999993       278.994507      -1.65449142    
  -1.84103203     -0.366203994     -0.606999993       37.0855255      -1.83579659    
  -2.54972792     -0.507171988     -0.517000020       37.0855255      -1.83579659    
  -2.59967995       0.00000000     -0.517000020       37.0855255      -1.83579659    
  -1.87709999       0.00000000     -0.606999993       37.0855255      -1.83579659    
  -1.87709999       0.00000000     -0.606999993       95.2461700      -1.65652692    
  -1.36500001       0.00000000     -0.606999993       95.2461700      -1.65652692    
  -1.33877206     -0.266297996     -0.606999993       95.2461700      -1.65652692    
  -1.84103203     -0.366203994     -0.606999993       95.2461700      -1.65652692    
  -1.87709999       0.00000000     -0.606999993       33.3047791       1.29041731    
  -2.59967995       0.00000000     -0.517000020       33.3047791       1.29041731    
  -2.54972792      0.507171988     -0.517000020       33.3047791       1.29041731    
  -1.84103203      0.366203994     -0.606999993       33.3047791       1.29041731    
  -1.84103203      0.366203994     -0.606999993       92.3498230       1.49299777    
  -1.33877206      0.266297996     -0.606999993       92.3498230       1.49299777    
  -1.36500001       0.00000000     -0.606999993       92.3498230       1.49299777    
  -1.87709999       0.00000000     -0.606999993       92.3498230       1.49299777    
  -1.84103203      0.366203994     -0.606999993       102.479195       1.29445064    
  -2.54972792      0.507171988     -0.517000020       102.479195       1.29445064    
  -2.40179110      0.994853973     -0.517000020       102.479195       1.29445064    
  -1.73421395      0.718334973     -0.606999993       102.479195       1.29445064    
  -1.73421395      0.718334973     -0.606999993       276.502075       1.49014354    
  -1.26109600      0.522363007     -0.606999993       276.502075       1.49014354    
  -1.33877206      0.266297996     -0.606999993       276.502075       1.49014354    
  -1.84103203      0.366203994     -0.606999993       276.502075       1.49014354    
  -1.73421395      0.718334973     -0.606999993       167.628067       1.29271388    
  -2.40179110      0.994853973     -0.517000020       167.628067       1.29271388    
  -2.16155505       1.44430494     -0.517000020       167.628067       1.29271388    
  -1.56075203       1.04286098     -0.606999993       167.628067       1.29271388    
  -1.56075203       1.04286098     -0.606999993       449.964264       1.48921931    
  -1.13495600      0.758352995     -0.606999993       449.964264       1.48921931    
  -1.26109600      0.522363007     -0.606999993       449.964264       1.48921931    
  -1.73421395      0.718334973     -0.606999993       449.964264       1.48921931    
  -1.56075203       1.04286098     -0.606999993       226.014816       1.29109192    
  -2.16155505       1.44430494     -0.517000020       226.014816       1.29109192    
  -1.83825099       1.83825099     -0.517000020       226.014816       1.29109192    
  -1.32730997       1.32730997     -0.606999993       226.014816       1.29109192    
  -1.32730997       1.32730997     -0.606999993       606.053833       1.48871160    
 -0.965201020      0.965201020     -0.606999993       606.053833       1.48871160    
  -1.13495600      0.758352995     -0.606999993       606.053833       1.48871160    
  -1.56075203       1.04286098     -0.606999993       606.053833       1.48871160    
  -1.32730997       1.32730997     -0.606999993       275.582672       1.29104757    
  -1.83825099       1.83825099     -0.517000020       275.582672       1.29104757    
  -1.44430494       2.16155505     -0.517000020       275.582672       1.29104757    
  -1.04286098       1.56075203     -0.606999993       275.582672       1.29104757    
  -1.04286098       1.56075203     -0.606999993       738.897583       1.48858798    
 -0.758352995       1.13495600     -0.606999993       738.897583       1.48858798    
 -0.965201020      0.965201020     -0.606999993       738.897583       1.48858798    
  -1.32730997       1.32730997     -0.606999993       738.897583       1.48858798    
  -1.04286098       1.56075203     -0.606999993       314.968872       1.29230487    
  -1.44430494       2.16155505     -0.517000020       314.968872       1.29230487    
 -0.994853973       2.40179110     -0.517000020       314.968872       1.29230487    
 -0.718334973       1.73421395     -0.606999993       314.968872       1.29230487    
 -0.718334973       1.73421395     -0.606999993       843.715149       1.48873997    
 -0.522363007       1.26109600     -0.606999993       843.715149       1.48873997    
 -0.758352995       1.13495600     -0.606999993       843.715149       1.48873997    
  -1.04286098       1.56075203     -0.606999993       843.715149       1.48873997    
 -0.718334973       1.73421395     -0.606999993       342.894531       1.29388535    
 -0.994853973       2.40179110     -0.517000020       342.894531       1.29388535    
 -0.507171988       2.54972792     -0.517000020       342.894531       1.29388535    
 -0.366203994       1.84103203     -0.606999993       342.894531       1.29388535    
 -0.366203994       1.84103203     -0.606999993       916.474426       1.48898447    
 -0.266297996       1.33877206     -0.606999993       916.474426       1.48898447    
 -0.522363007       1.26109600     -0.606999993       916.474426       1.48898447    
 -0.718334973       1.73421395     -0.606999993       916.474426       1.48898447    
 -0.366203994       1.84103203     -0.606999993       357.783905       1.29506803    
 -0.507171988       2.54972792     -0.517000020       357.783905       1.29506803    
   0.00000000       2.59967995     -0.517000020       357.783905       1.29506803    
   0.00000000       1.87709999     -0.606999993       357.783905       1.29506803    
   0.00000000       1.87709999     -0.606999993       954.132446       1.48918355    
   0.00000000       1.36500001     -0.606999993       954.132446       1.48918355    
 -0.266297996       1.33877206     -0.606999993       954.132446       1.48918355    
 -0.366203994       1.84103203     -0.606999993       954.132446       1.48918355    
   0.00000000       1.87709999     -0.606999993       358.310852       1.29553890    
   0.00000000       2.59967995     -0.517000020       358.310852       1.29553890    
  0.507171988       2.54972792     -0.517000020       358.310852       1.29553890    
  0.366203994       1.84103203     -0.606999993       358.310852       1.29553890    
  0.366203994       1.84103203     -0.606999993       954.837952       1.48925006    
  0.266297996       1.33877206     -0.606999993       954.837952       1.48925006    
   0.00000000       1.36500001     -0.606999993       954.837952       1.48925006    
   0.00000000       1.87709999     -0.606999993       954.837952       1.48925006    
  0.366203994       1.84103203     -0.606999993       344.435089       1.29537678    
  0.507171988       2.54972792     -0.517000020       344.435089       1.29537678    
  0.994853973       2.40179110     -0.517000020       344.435089       1.29537678    
  0.718334973       1.73421395     -0.606999993       344.435089       1.29537678    
  0.718334973       1.73421395     -0.606999993       918.518311       1.48918998    
  0.522363007       1.26109600     -0.606999993       918.518311       1.48918998    
  0.266297996       1.33877206     -0.606999993       918.518311       1.48918998    
  0.366203994       1.84103203     -0.606999993       918.518311       1.48918998    
  0.718334973       1.73421395     -0.606999993       317.457306       1.29490769    
  0.994853973       2.40179110     -0.517000020       317.457306       1.29490769    
   1.44430494       2.16155505     -0.517000020       317.457306       1.29490769    
   1.04286098       1.56075203     -0.606999993       317.457306       1.29490769    
   1.04286098       1.56075203     -0.606999993       846.891541       1.48908186    
  0.758352995       1.13495600     -0.606999993       846.891541       1.48908186    
  0.522363007       1.26109600     -0.606999993       846.891541       1.48908186    
  0.718334973       1.73421395     -0.606999993       846.891541       1.48908186    
   1.04286098       1.56075203     -0.606999993       278.871765       1.29494989    
   1.44430494       2.16155505     -0.517000020       278.871765       1.29494989    
   1.83825099       1.83825099     -0.517000020       278.871765       1.29494989    
   1.32730997       1.32730997     -0.606999993       278.871765       1.29494989    
   1.32730997       1.32730997     -0.606999993       742.902893       1.48905277    
  0.965201020      0.965201020     -0.606999993       742.902893       1.48905277    
  0.758352995       1.13495600     -0.606999993       742.902893       1.48905277    
   1.04286098       1.56075203     -0.606999993       742.902893       1.48905277    
   1.32730997       1.32730997     -0.606999993       229.840286       1.29646909    
   1.83825099       1.83825099     -0.517000020       229.840286       1.29646909    
   2.16155505       1.44430494     -0.517000020       229.840286       1.29646909    
   1.56075203       1.04286098     -0.606999993       229.840286       1.29646909    
   1.56075203       1.04286098     -0.606999993       610.387451       1.48926759    
   1.13495600      0.758352995     -0.606999993       610.387451       1.48926759    
  0.965201020      0.965201020     -0.606999993       610.387451       1.48926759    
   1.32730997       1.32730997     -0.606999993       610.387451       1.48926759    
   1.56075203       1.04286098     -0.606999993       171.615448       1.29998958    
   2.16155505       1.44430494     -0.517000020       171.615448       1.29998958    
   2.40179110      0.994853973     -0.517000020       171.615448       1.29998958    
   1.73421395      0.718334973     -0.606999993       171.615448       1.29998958    
   1.73421395      0.718334973     -0.606999993       453.906525       1.48978257    
   1.26109600      0.522363007     -0.606999993       453.906525       1.48978257    
   1.13495600      0.758352995     -0.606999993       453.906525       1.48978257    
   1.56075203       1.04286098     -0.606999993       453.906525       1.48978257    
   1.73421395      0.718334973     -0.606999993       106.296471       1.30526602    
   2.40179110      0.994853973     -0.517000020       106.296471       1.30526602    
   2.54972792      0.507171988     -0.517000020       106.296471       1.30526602    
   1.84103203      0.366203994     -0.606999993       106.296471       1.30526602    
   1.84103203      0.366203994     -0.606999993       279.650818       1.49062955    
   1.33877206      0.266297996     -0.606999993       279.650818       1.49062955    
   1.26109600      0.522363007     -0.606999993       279.650818       1.49062955    
   1.73421395      0.718334973     -0.606999993       279.650818       1.49062955    
   1.84103203      0.366203994     -0.606999993       36.7221527       1.31791651    
   2.54972792      0.507171988     -0.517000020       36.7221527       1.31791651    
   2.59967995       0.00000000     -0.517000020       36.7221527       1.31791651    
   1.87709999       0.00000000     -0.606999993       36.7221527       1.31791651    
   1.87709999       0.00000000     -0.606999993       94.5250473       1.49298429    
   1.36500001       0.00000000     -0.606999993       94.5250473       1.49298429    
   1.33877206      0.266297996     -0.606999993       94.5250473       1.49298429    
   1.84103203      0.366203994     -0.606999993       94.5250473       1.49298429    
   1.87709999       0.00000000     -0.606999993       34.2059593      -1.85885346    
   2.59967995       0.00000000     -0.517000020       34.2059593      -1.85885346    
   2.54972792     -0.507171988     -0.517000020       34.2059593      -1.85885346    
   1.84103203     -0.366203994     -0.606999993       34.2059593      -1.85885346    
   1.84103203     -0.366203994     -0.606999993       94.2179565      -1.65517414    
   1.33877206     -0.266297996     -0.606999993       94.2179565      -1.65517414    
   1.36500001       0.00000000     -0.606999993       94.2179565      -1.65517414    
   1.87709999       0.00000000     -0.606999993       94.2179565      -1.65517414    
   1.84103203     -0.366203994     -0.606999993       103.703224      -1.84987557    
   2.54972792     -0.507171988     -0.517000020       103.703224      -1.84987557    
   2.40179110     -0.994853973     -0.517000020       103.703224      -1.84987557    
   1.73421395     -0.718334973     -0.606999993       103.703224      -1.84987557    
   1.73421395     -0.718334973     -0.606999993       279.157379      -1.65356064    
   1.26109600     -0.522363007     -0.606999993       279.157379      -1.65356064    
   1.33877206     -0.266297996     -0.606999993       279.157379      -1.65356064    
   1.84103203     -0.366203994     -0.606999993       279.157379      -1.65356064    
   1.73421395     -0.718334973     -0.606999993       168.911118      -1.85087430    
   2.40179110     -0.994853973     -0.517000020       168.911118      -1.85087430    
   2.16155505      -1.44430494     -0.517000020       168.911118      -1.85087430    
   1.56075203      -1.04286098     -0.606999993       168.911118      -1.85087430    
   1.56075203      -1.04286098     -0.606999993       453.002686      -1.65369022    
   1.13495600     -0.758352995     -0.606999993       453.002686      -1.65369022    
   1.26109600     -0.522363007     -0.606999993       453.002686      -1.65369022    