 VARIABLES="X" "Y" "Z" "abs(p) (Pa)" "angle(p) (rad)"
ZONE N=   2709,E =    2358, F=FEPOINT, ET=QUADRILATERAL
   0.00000000      -5.48999977     -0.157000005       969.545166       1.58466637    
   0.00000000      -4.76741982     -0.246999994       969.545166       1.58466637    
  0.930077016      -4.67581606     -0.246999994       969.545166       1.58466637    
   1.07104599      -5.38451099     -0.157000005       969.545166       1.58466637    
  -1.07104599      -5.38451099     -0.157000005       969.949280       1.58270752    
 -0.930077016      -4.67581606     -0.246999994       969.949280       1.58270752    
   0.00000000      -4.76741982     -0.246999994       969.949280       1.58270752    
   0.00000000      -5.48999977     -0.157000005       969.949280       1.58270752    
  -2.10093188      -5.07209921     -0.157000005       983.118774       1.58011806    
  -1.82441294      -4.40452194     -0.246999994       983.118774       1.58011806    
 -0.930077016      -4.67581606     -0.246999994       983.118774       1.58011806    
  -1.07104599      -5.38451099     -0.157000005       983.118774       1.58011806    
  -3.05008101      -4.56476784     -0.157000005       968.179321       1.58118856    
  -2.64863706      -3.96396494     -0.246999994       968.179321       1.58118856    
  -1.82441294      -4.40452194     -0.246999994       968.179321       1.58118856    
  -2.10093188      -5.07209921     -0.157000005       968.179321       1.58118856    
  -3.88201594      -3.88201594     -0.157000005       968.096985       1.58486295    
  -3.37107491      -3.37107491     -0.246999994       968.096985       1.58486295    
  -2.64863706      -3.96396494     -0.246999994       968.096985       1.58486295    
  -3.05008101      -4.56476784     -0.157000005       968.096985       1.58486295    
  -4.56476784      -3.05008101     -0.157000005       984.872864       1.58743799    
  -3.96396494      -2.64863706     -0.246999994       984.872864       1.58743799    
  -3.37107491      -3.37107491     -0.246999994       984.872864       1.58743799    
  -3.88201594      -3.88201594     -0.157000005       984.872864       1.58743799    
  -5.07209921      -2.10093188     -0.157000005       970.326782       1.58823466    
  -4.40452194      -1.82441294     -0.246999994       970.326782       1.58823466    
  -3.96396494      -2.64863706     -0.246999994       970.326782       1.58823466    
  -4.56476784      -3.05008101     -0.157000005       970.326782       1.58823466    
  -5.38451099      -1.07104599     -0.157000005       968.088562       1.58457696    
  -4.67581606     -0.930077016     -0.246999994       968.088562       1.58457696    
  -4.40452194      -1.82441294     -0.246999994       968.088562       1.58457696    
  -5.07209921      -2.10093188     -0.157000005       968.088562       1.58457696    
  -5.48999977       0.00000000     -0.157000005       984.760193       1.57971370    
  -4.76741982       0.00000000     -0.246999994       984.760193       1.57971370    
  -4.67581606     -0.930077016     -0.246999994       984.760193       1.57971370    
  -5.38451099      -1.07104599     -0.157000005       984.760193       1.57971370    
  -5.38451099       1.07104599     -0.157000005       988.575684       1.57785141    
  -4.67581606      0.930077016     -0.246999994       988.575684       1.57785141    
  -4.76741982       0.00000000     -0.246999994       988.575684       1.57785141    
  -5.48999977       0.00000000     -0.157000005       988.575684       1.57785141    
  -5.07209921       2.10093188     -0.157000005       989.777954       1.57881713    
  -4.40452194       1.82441294     -0.246999994       989.777954       1.57881713    
  -4.67581606      0.930077016     -0.246999994       989.777954       1.57881713    
  -5.38451099       1.07104599     -0.157000005       989.777954       1.57881713    
  -4.56476784       3.05008101     -0.157000005       988.479553       1.58062541    
  -3.96396494       2.64863706     -0.246999994       988.479553       1.58062541    
  -4.40452194       1.82441294     -0.246999994       988.479553       1.58062541    
  -5.07209921       2.10093188     -0.157000005       988.479553       1.58062541    
  -3.88201594       3.88201594     -0.157000005       972.672058       1.58203220    
  -3.37107491       3.37107491     -0.246999994       972.672058       1.58203220    
  -3.96396494       2.64863706     -0.246999994       972.672058       1.58203220    
  -4.56476784       3.05008101     -0.157000005       972.672058       1.58203220    
  -3.05008101       4.56476784     -0.157000005       984.385559       1.58145440    
  -2.64863706       3.96396494     -0.246999994       984.385559       1.58145440    
  -3.37107491       3.37107491     -0.246999994       984.385559       1.58145440    
  -3.88201594       3.88201594     -0.157000005       984.385559       1.58145440    
  -2.10093188       5.07209921     -0.157000005       971.182495       1.58181322    
  -1.82441294       4.40452194     -0.246999994       971.182495       1.58181322    
  -2.64863706       3.96396494     -0.246999994       971.182495       1.58181322    
  -3.05008101       4.56476784     -0.157000005       971.182495       1.58181322    
  -1.07104599       5.38451099     -0.157000005       984.935364       1.58154821    
 -0.930077016       4.67581606     -0.246999994       984.935364       1.58154821    
  -1.82441294       4.40452194     -0.246999994       984.935364       1.58154821    
  -2.10093188       5.07209921     -0.157000005       984.935364       1.58154821    
   0.00000000       5.48999977     -0.157000005       972.896118       1.58189678    
   0.00000000       4.76741982     -0.246999994       972.896118       1.58189678    
 -0.930077016       4.67581606     -0.246999994       972.896118       1.58189678    
  -1.07104599       5.38451099     -0.157000005       972.896118       1.58189678    
   1.07104599       5.38451099     -0.157000005       985.523682       1.58072746    
  0.930077016       4.67581606     -0.246999994       985.523682       1.58072746    
   0.00000000       4.76741982     -0.246999994       985.523682       1.58072746    
   0.00000000       5.48999977     -0.157000005       985.523682       1.58072746    
   2.10093188       5.07209921     -0.157000005       970.192505       1.58094335    
   1.82441294       4.40452194     -0.246999994       970.192505       1.58094335    
  0.930077016       4.67581606     -0.246999994       970.192505       1.58094335    
   1.07104599       5.38451099     -0.157000005       970.192505       1.58094335    
   3.05008101       4.56476784     -0.157000005       967.642395       1.58260012    
   2.64863706       3.96396494     -0.246999994       967.642395       1.58260012    
   1.82441294       4.40452194     -0.246999994       967.642395       1.58260012    
   2.10093188       5.07209921     -0.157000005       967.642395       1.58260012    
   3.88201594       3.88201594     -0.157000005       983.598145       1.58479142    
   3.37107491       3.37107491     -0.246999994       983.598145       1.58479142    
   2.64863706       3.96396494     -0.246999994       983.598145       1.58479142    
   3.05008101       4.56476784     -0.157000005       983.598145       1.58479142    
   4.56476784       3.05008101     -0.157000005       980.334351       1.58688724    
   3.96396494       2.64863706     -0.246999994       980.334351       1.58688724    
   3.37107491       3.37107491     -0.246999994       980.334351       1.58688724    
   3.88201594       3.88201594     -0.157000005       980.334351       1.58688724    
   5.07209921       2.10093188     -0.157000005       985.468689       1.58577240    
   4.40452194       1.82441294     -0.246999994       985.468689       1.58577240    
   3.96396494       2.64863706     -0.246999994       985.468689       1.58577240    
   4.56476784       3.05008101     -0.157000005       985.468689       1.58577240    
   5.38451099       1.07104599     -0.157000005       967.703918       1.58391452    
   4.67581606      0.930077016     -0.246999994       967.703918       1.58391452    
   4.40452194       1.82441294     -0.246999994       967.703918       1.58391452    
   5.07209921       2.10093188     -0.157000005       967.703918       1.58391452    
   5.48999977       0.00000000     -0.157000005       965.909973       1.58215499    
   4.76741982       0.00000000     -0.246999994       965.909973       1.58215499    
   4.67581606      0.930077016     -0.246999994       965.909973       1.58215499    
   5.38451099       1.07104599     -0.157000005       965.909973       1.58215499    
   5.38451099      -1.07104599     -0.157000005       967.412415       1.58270848    
   4.67581606     -0.930077016     -0.246999994       967.412415       1.58270848    
   4.76741982       0.00000000     -0.246999994       967.412415       1.58270848    
   5.48999977       0.00000000     -0.157000005       967.412415       1.58270848    
   5.07209921      -2.10093188     -0.157000005       968.765259       1.58424532    
   4.40452194      -1.82441294     -0.246999994       968.765259       1.58424532    
   4.67581606     -0.930077016     -0.246999994       968.765259       1.58424532    
   5.38451099      -1.07104599     -0.157000005       968.765259       1.58424532    
   4.56476784      -3.05008101     -0.157000005       968.995361       1.58429265    
   3.96396494      -2.64863706     -0.246999994       968.995361       1.58429265    
   4.40452194      -1.82441294     -0.246999994       968.995361       1.58429265    
   5.07209921      -2.10093188     -0.157000005       968.995361       1.58429265    
   3.88201594      -3.88201594     -0.157000005       968.978516       1.58255422    
   3.37107491      -3.37107491     -0.246999994       968.978516       1.58255422    
   3.96396494      -2.64863706     -0.246999994       968.978516       1.58255422    
   4.56476784      -3.05008101     -0.157000005       968.978516       1.58255422    
   3.05008101      -4.56476784     -0.157000005       982.607239       1.58075023    
   2.64863706      -3.96396494     -0.246999994       982.607239       1.58075023    
   3.37107491      -3.37107491     -0.246999994       982.607239       1.58075023    
   3.88201594      -3.88201594     -0.157000005       982.607239       1.58075023    
   2.10093188      -5.07209921     -0.157000005       969.008850       1.58204842    
   1.82441294      -4.40452194     -0.246999994       969.008850       1.58204842    
   2.64863706      -3.96396494     -0.246999994       969.008850       1.58204842    
   3.05008101      -4.56476784     -0.157000005       969.008850       1.58204842    
   1.07104599      -5.38451099     -0.157000005       968.716919       1.58413279    
  0.930077016      -4.67581606     -0.246999994       968.716919       1.58413279    
   1.82441294      -4.40452194     -0.246999994       968.716919       1.58413279    
   2.10093188      -5.07209921     -0.157000005       968.716919       1.58413279    
   0.00000000      -1.87709999     -0.606999993       2502.26929       1.57220674    
   0.00000000      -1.36500001     -0.606999993       2502.26929       1.57220674    
  0.266297996      -1.33877206     -0.606999993       2502.26929       1.57220674    
  0.366203994      -1.84103203     -0.606999993       2502.26929       1.57220674    
   0.00000000      -1.87709999     -0.606999993       1789.97534       1.57205510    
   0.00000000      -2.59967995     -0.517000020       1789.97534       1.57205510    
 -0.507171988      -2.54972792     -0.517000020       1789.97534       1.57205510    
 -0.366203994      -1.84103203     -0.606999993       1789.97534       1.57205510    
 -0.366203994      -1.84103203     -0.606999993       2504.45898       1.57205999    
 -0.266297996      -1.33877206     -0.606999993       2504.45898       1.57205999    
   0.00000000      -1.36500001     -0.606999993       2504.45898       1.57205999    
   0.00000000      -1.87709999     -0.606999993       2504.45898       1.57205999    
 -0.366203994      -1.84103203     -0.606999993       1786.25085       1.57196212    
 -0.507171988      -2.54972792     -0.517000020       1786.25085       1.57196212    
 -0.994853973      -2.40179110     -0.517000020       1786.25085       1.57196212    
 -0.718334973      -1.73421395     -0.606999993       1786.25085       1.57196212    
 -0.718334973      -1.73421395     -0.606999993       2502.92163       1.57189500    
 -0.522363007      -1.26109600     -0.606999993       2502.92163       1.57189500    
 -0.266297996      -1.33877206     -0.606999993       2502.92163       1.57189500    
 -0.366203994      -1.84103203     -0.606999993       2502.92163       1.57189500    
 -0.718334973      -1.73421395     -0.606999993       1782.38562       1.57187986    
 -0.994853973      -2.40179110     -0.517000020       1782.38562       1.57187986    
  -1.44430494      -2.16155505     -0.517000020       1782.38562       1.57187986    
  -1.04286098      -1.56075203     -0.606999993       1782.38562       1.57187986    
  -1.04286098      -1.56075203     -0.606999993       2500.04590       1.57174480    
 -0.758352995      -1.13495600     -0.606999993       2500.04590       1.57174480    
 -0.522363007      -1.26109600     -0.606999993       2500.04590       1.57174480    
 -0.718334973      -1.73421395     -0.606999993       2500.04590       1.57174480    
  -1.04286098      -1.56075203     -0.606999993       1781.92224       1.57181442    
  -1.44430494      -2.16155505     -0.517000020       1781.92224       1.57181442    
  -1.83825099      -1.83825099     -0.517000020       1781.92224       1.57181442    
  -1.32730997      -1.32730997     -0.606999993       1781.92224       1.57181442    
  -1.32730997      -1.32730997     -0.606999993       2497.97583       1.57160938    
 -0.965201020     -0.965201020     -0.606999993       2497.97583       1.57160938    
 -0.758352995      -1.13495600     -0.606999993       2497.97583       1.57160938    
  -1.04286098      -1.56075203     -0.606999993       2497.97583       1.57160938    
  -1.32730997      -1.32730997     -0.606999993       1784.35107       1.57176650    
  -1.83825099      -1.83825099     -0.517000020       1784.35107       1.57176650    
  -2.16155505      -1.44430494     -0.517000020       1784.35107       1.57176650    
  -1.56075203      -1.04286098     -0.606999993       1784.35107       1.57176650    
  -1.56075203      -1.04286098     -0.606999993       2496.89819       1.57152689    
  -1.13495600     -0.758352995     -0.606999993       2496.89819       1.57152689    
 -0.965201020     -0.965201020     -0.606999993       2496.89819       1.57152689    
  -1.32730997      -1.32730997     -0.606999993       2496.89819       1.57152689    
  -1.56075203      -1.04286098     -0.606999993       1785.80676       1.57173598    
  -2.16155505      -1.44430494     -0.517000020       1785.80676       1.57173598    
  -2.40179110     -0.994853973     -0.517000020       1785.80676       1.57173598    
  -1.73421395     -0.718334973     -0.606999993       1785.80676       1.57173598    
  -1.73421395     -0.718334973     -0.606999993       2495.36011       1.57149529    
  -1.26109600     -0.522363007     -0.606999993       2495.36011       1.57149529    
  -1.13495600     -0.758352995     -0.606999993       2495.36011       1.57149529    
  -1.56075203      -1.04286098     -0.606999993       2495.36011       1.57149529    
  -1.73421395     -0.718334973     -0.606999993       1783.48230       1.57172990    
  -2.40179110     -0.994853973     -0.517000020       1783.48230       1.57172990    
  -2.54972792     -0.507171988     -0.517000020       1783.48230       1.57172990    
  -1.84103203     -0.366203994     -0.606999993       1783.48230       1.57172990    
  -1.84103203     -0.366203994     -0.606999993       2492.06641       1.57152796    
  -1.33877206     -0.266297996     -0.606999993       2492.06641       1.57152796    
  -1.26109600     -0.522363007     -0.606999993       2492.06641       1.57152796    
  -1.73421395     -0.718334973     -0.606999993       2492.06641       1.57152796    
  -1.84103203     -0.366203994     -0.606999993       1779.75085       1.57175481    
  -2.54972792     -0.507171988     -0.517000020       1779.75085       1.57175481    
  -2.59967995       0.00000000     -0.517000020       1779.75085       1.57175481    
  -1.87709999       0.00000000     -0.606999993       1779.75085       1.57175481    
  -1.87709999       0.00000000     -0.606999993       2488.28857       1.57161939    
  -1.36500001       0.00000000     -0.606999993       2488.28857       1.57161939    
  -1.33877206     -0.266297996     -0.606999993       2488.28857       1.57161939    
  -1.84103203     -0.366203994     -0.606999993       2488.28857       1.57161939    
  -1.87709999       0.00000000     -0.606999993       1778.91785       1.57181287    
  -2.59967995       0.00000000     -0.517000020       1778.91785       1.57181287    
  -2.54972792      0.507171988     -0.517000020       1778.91785       1.57181287    
  -1.84103203      0.366203994     -0.606999993       1778.91785       1.57181287    
  -1.84103203      0.366203994     -0.606999993       2486.55249       1.57175291    
  -1.33877206      0.266297996     -0.606999993       2486.55249       1.57175291    
  -1.36500001       0.00000000     -0.606999993       2486.55249       1.57175291    
  -1.87709999       0.00000000     -0.606999993       2486.55249       1.57175291    
  -1.84103203      0.366203994     -0.606999993       1781.80310       1.57189679    
  -2.54972792      0.507171988     -0.517000020       1781.80310       1.57189679    
  -2.40179110      0.994853973     -0.517000020       1781.80310       1.57189679    
  -1.73421395      0.718334973     -0.606999993       1781.80310       1.57189679    
  -1.73421395      0.718334973     -0.606999993       2487.56934       1.57190967    
  -1.26109600      0.522363007     -0.606999993       2487.56934       1.57190967    
  -1.33877206      0.266297996     -0.606999993       2487.56934       1.57190967    
  -1.84103203      0.366203994     -0.606999993       2487.56934       1.57190967    
  -1.73421395      0.718334973     -0.606999993       1784.70569       1.57199347    
  -2.40179110      0.994853973     -0.517000020       1784.70569       1.57199347    
  -2.16155505       1.44430494     -0.517000020       1784.70569       1.57199347    
  -1.56075203       1.04286098     -0.606999993       1784.70569       1.57199347    
  -1.56075203       1.04286098     -0.606999993       2489.68408       1.57207632    
  -1.13495600      0.758352995     -0.606999993       2489.68408       1.57207632    
  -1.26109600      0.522363007     -0.606999993       2489.68408       1.57207632    
  -1.73421395      0.718334973     -0.606999993       2489.68408       1.57207632    
  -1.56075203       1.04286098     -0.606999993       1784.16528       1.57208407    
  -2.16155505       1.44430494     -0.517000020       1784.16528       1.57208407    
  -1.83825099       1.83825099     -0.517000020       1784.16528       1.57208407    
  -1.32730997       1.32730997     -0.606999993       1784.16528       1.57208407    
  -1.32730997       1.32730997     -0.606999993       2491.26025       1.57220685    
 -0.965201020      0.965201020     -0.606999993       2491.26025       1.57220685    
  -1.13495600      0.758352995     -0.606999993       2491.26025       1.57220685    
  -1.56075203       1.04286098     -0.606999993       2491.26025       1.57220685    
  -1.32730997       1.32730997     -0.606999993       1781.89832       1.57215154    
  -1.83825099       1.83825099     -0.517000020       1781.89832       1.57215154    
  -1.44430494       2.16155505     -0.517000020       1781.89832       1.57215154    
  -1.04286098       1.56075203     -0.606999993       1781.89832       1.57215154    
  -1.04286098       1.56075203     -0.606999993       2492.82886       1.57229042    
 -0.758352995       1.13495600     -0.606999993       2492.82886       1.57229042    
 -0.965201020      0.965201020     -0.606999993       2492.82886       1.57229042    
  -1.32730997       1.32730997     -0.606999993       2492.82886       1.57229042    
  -1.04286098       1.56075203     -0.606999993       1782.28650       1.57217479    
  -1.44430494       2.16155505     -0.517000020       1782.28650       1.57217479    
 -0.994853973       2.40179110     -0.517000020       1782.28650       1.57217479    
 -0.718334973       1.73421395     -0.606999993       1782.28650       1.57217479    
 -0.718334973       1.73421395     -0.606999993       2496.14087       1.57231772    
 -0.522363007       1.26109600     -0.606999993       2496.14087       1.57231772    
 -0.758352995       1.13495600     -0.606999993       2496.14087       1.57231772    
  -1.04286098       1.56075203     -0.606999993       2496.14087       1.57231772    
 -0.718334973       1.73421395     -0.606999993       1786.61426       1.57215095    
 -0.994853973       2.40179110     -0.517000020       1786.61426       1.57215095    
 -0.507171988       2.54972792     -0.517000020       1786.61426       1.57215095    
 -0.366203994       1.84103203     -0.606999993       1786.61426       1.57215095    
 -0.366203994       1.84103203     -0.606999993       2501.41675       1.57227719    
 -0.266297996       1.33877206     -0.606999993       2501.41675       1.57227719    
 -0.522363007       1.26109600     -0.606999993       2501.41675       1.57227719    
 -0.718334973       1.73421395     -0.606999993       2501.41675       1.57227719    
 -0.366203994       1.84103203     -0.606999993       1791.49109       1.57209277    
 -0.507171988       2.54972792     -0.517000020       1791.49109       1.57209277    
   0.00000000       2.59967995     -0.517000020       1791.49109       1.57209277    
   0.00000000       1.87709999     -0.606999993       1791.49109       1.57209277    
   0.00000000       1.87709999     -0.606999993       2506.33887       1.57217658    
   0.00000000       1.36500001     -0.606999993       2506.33887       1.57217658    
 -0.266297996       1.33877206     -0.606999993       2506.33887       1.57217658    
 -0.366203994       1.84103203     -0.606999993       2506.33887       1.57217658    
   0.00000000       1.87709999     -0.606999993       1792.33252       1.57201910    
   0.00000000       2.59967995     -0.517000020       1792.33252       1.57201910    
  0.507171988       2.54972792     -0.517000020       1792.33252       1.57201910    
  0.366203994       1.84103203     -0.606999993       1792.33252       1.57201910    
  0.366203994       1.84103203     -0.606999993       2508.30762       1.57204151    
  0.266297996       1.33877206     -0.606999993       2508.30762       1.57204151    
   0.00000000       1.36500001     -0.606999993       2508.30762       1.57204151    
   0.00000000       1.87709999     -0.606999993       2508.30762       1.57204151    
  0.366203994       1.84103203     -0.606999993       1788.96631       1.57194483    
  0.507171988       2.54972792     -0.517000020       1788.96631       1.57194483    
  0.994853973       2.40179110     -0.517000020       1788.96631       1.57194483    
  0.718334973       1.73421395     -0.606999993       1788.96631       1.57194483    
  0.718334973       1.73421395     -0.606999993       2506.98218       1.57188976    
  0.522363007       1.26109600     -0.606999993       2506.98218       1.57188976    
  0.266297996       1.33877206     -0.606999993       2506.98218       1.57188976    
  0.366203994       1.84103203     -0.606999993       2506.98218       1.57188976    
  0.718334973       1.73421395     -0.606999993       1785.85986       1.57187724    
  0.994853973       2.40179110     -0.517000020       1785.85986       1.57187724    
   1.44430494       2.16155505     -0.517000020       1785.85986       1.57187724    
   1.04286098       1.56075203     -0.606999993       1785.85986       1.57187724    
   1.04286098       1.56075203     -0.606999993       2504.56836       1.57173681    
  0.758352995       1.13495600     -0.606999993       2504.56836       1.57173681    
  0.522363007       1.26109600     -0.606999993       2504.56836       1.57173681    
  0.718334973       1.73421395     -0.606999993       2504.56836       1.57173681    
   1.04286098       1.56075203     -0.606999993       1786.13818       1.57182348    
   1.44430494       2.16155505     -0.517000020       1786.13818       1.57182348    
   1.83825099       1.83825099     -0.517000020       1786.13818       1.57182348    
   1.32730997       1.32730997     -0.606999993       1786.13818       1.57182348    
   1.32730997       1.32730997     -0.606999993       2502.76855       1.57162559    
  0.965201020      0.965201020     -0.606999993       2502.76855       1.57162559    
  0.758352995       1.13495600     -0.606999993       2502.76855       1.57162559    
   1.04286098       1.56075203     -0.606999993       2502.76855       1.57162559    
   1.32730997       1.32730997     -0.606999993       1788.33044       1.57178724    
   1.83825099       1.83825099     -0.517000020       1788.33044       1.57178724    
   2.16155505       1.44430494     -0.517000020       1788.33044       1.57178724    
   1.56075203       1.04286098     -0.606999993       1788.33044       1.57178724    
   1.56075203       1.04286098     -0.606999993       2501.03223       1.57155073    
   1.13495600      0.758352995     -0.606999993       2501.03223       1.57155073    
  0.965201020      0.965201020     -0.606999993       2501.03223       1.57155073    
   1.32730997       1.32730997     -0.606999993       2501.03223       1.57155073    
   1.56075203       1.04286098     -0.606999993       1787.97766       1.57177877    
   2.16155505       1.44430494     -0.517000020       1787.97766       1.57177877    
   2.40179110      0.994853973     -0.517000020       1787.97766       1.57177877    
   1.73421395      0.718334973     -0.606999993       1787.97766       1.57177877    
   1.73421395      0.718334973     -0.606999993       2497.34937       1.57154000    
   1.26109600      0.522363007     -0.606999993       2497.34937       1.57154000    
   1.13495600      0.758352995     -0.606999993       2497.34937       1.57154000    
   1.56075203       1.04286098     -0.606999993       2497.34937       1.57154000    
   1.73421395      0.718334973     -0.606999993       1783.46985       1.57180274    
   2.40179110      0.994853973     -0.517000020       1783.46985       1.57180274    
   2.54972792      0.507171988     -0.517000020       1783.46985       1.57180274    
   1.84103203      0.366203994     -0.606999993       1783.46985       1.57180274    
   1.84103203      0.366203994     -0.606999993       2491.73999       1.57158756    
   1.33877206      0.266297996     -0.606999993       2491.73999       1.57158756    
   1.26109600      0.522363007     -0.606999993       2491.73999       1.57158756    
   1.73421395      0.718334973     -0.606999993       2491.73999       1.57158756    
   1.84103203      0.366203994     -0.606999993       1778.66858       1.57186115    
   2.54972792      0.507171988     -0.517000020       1778.66858       1.57186115    
   2.59967995       0.00000000     -0.517000020       1778.66858       1.57186115    
   1.87709999       0.00000000     -0.606999993       1778.66858       1.57186115    
   1.87709999       0.00000000     -0.606999993       2486.60254       1.57169259    
   1.36500001       0.00000000     -0.606999993       2486.60254       1.57169259    
   1.33877206      0.266297996     -0.606999993       2486.60254       1.57169259    
   1.84103203      0.366203994     -0.606999993       2486.60254       1.57169259    
   1.87709999       0.00000000     -0.606999993       1777.60742       1.57194090    
   2.59967995       0.00000000     -0.517000020       1777.60742       1.57194090    
   2.54972792     -0.507171988     -0.517000020       1777.60742       1.57194090    
   1.84103203     -0.366203994     -0.606999993       1777.60742       1.57194090    
   1.84103203     -0.366203994     -0.606999993       2484.15625       1.57183957    
   1.33877206     -0.266297996     -0.606999993       2484.15625       1.57183957    
   1.36500001       0.00000000     -0.606999993       2484.15625       1.57183957    
   1.87709999       0.00000000     -0.606999993       2484.15625       1.57183957    
   1.84103203     -0.366203994     -0.606999993       1779.73938       1.57203126    
   2.54972792     -0.507171988     -0.517000020       1779.73938       1.57203126    
   2.40179110     -0.994853973     -0.517000020       1779.73938       1.57203126    
   1.73421395     -0.718334973     -0.606999993       1779.73938       1.57203126    
   1.73421395     -0.718334973     -0.606999993       2484.30664       1.57199967    
   1.26109600     -0.522363007     -0.606999993       2484.30664       1.57199967    
   1.33877206     -0.266297996     -0.606999993       2484.30664       1.57199967    
   1.84103203     -0.366203994     -0.606999993       2484.30664       1.57199967    
   1.73421395     -0.718334973     -0.606999993       1780.92969       1.57211792    
   2.40179110     -0.994853973     -0.517000020       1780.92969       1.57211792    
   2.16155505      -1.44430494     -0.517000020       1780.92969       1.57211792    
   1.56075203      -1.04286098     -0.606999993       1780.92969       1.57211792    
   1.56075203      -1.04286098     -0.606999993       2485.13696       1.57215130    
   1.13495600     -0.758352995     -0.606999993       2485.13696       1.57215130    
   1.26109600     -0.522363007     -0.606999993       2485.13696       1.57215130    