 VARIABLES="X" "Y" "Z" "abs(p) (Pa)" "angle(p) (rad)"
ZONE N=   2709,E =    2358, F=FEPOINT, ET=QUADRILATERAL
   0.00000000      -5.48999977     -0.157000005       337.986450      -1.53952527    
   0.00000000      -4.76741982     -0.246999994       337.986450      -1.53952527    
  0.930077016      -4.67581606     -0.246999994       337.986450      -1.53952527    
   1.07104599      -5.38451099     -0.157000005       337.986450      -1.53952527    
  -1.07104599      -5.38451099     -0.157000005       342.684906       1.60505807    
 -0.930077016      -4.67581606     -0.246999994       342.684906       1.60505807    
   0.00000000      -4.76741982     -0.246999994       342.684906       1.60505807    
   0.00000000      -5.48999977     -0.157000005       342.684906       1.60505807    
  -2.10093188      -5.07209921     -0.157000005       1011.46301       1.61204708    
  -1.82441294      -4.40452194     -0.246999994       1011.46301       1.61204708    
 -0.930077016      -4.67581606     -0.246999994       1011.46301       1.61204708    
  -1.07104599      -5.38451099     -0.157000005       1011.46301       1.61204708    
  -3.05008101      -4.56476784     -0.157000005       1633.02808       1.60610926    
  -2.64863706      -3.96396494     -0.246999994       1633.02808       1.60610926    
  -1.82441294      -4.40452194     -0.246999994       1633.02808       1.60610926    
  -2.10093188      -5.07209921     -0.157000005       1633.02808       1.60610926    
  -3.88201594      -3.88201594     -0.157000005       2187.85986       1.60621810    
  -3.37107491      -3.37107491     -0.246999994       2187.85986       1.60621810    
  -2.64863706      -3.96396494     -0.246999994       2187.85986       1.60621810    
  -3.05008101      -4.56476784     -0.157000005       2187.85986       1.60621810    
  -4.56476784      -3.05008101     -0.157000005       2696.48267       1.60876024    
  -3.96396494      -2.64863706     -0.246999994       2696.48267       1.60876024    
  -3.37107491      -3.37107491     -0.246999994       2696.48267       1.60876024    
  -3.88201594      -3.88201594     -0.157000005       2696.48267       1.60876024    
  -5.07209921      -2.10093188     -0.157000005       3046.05322       1.60596693    
  -4.40452194      -1.82441294     -0.246999994       3046.05322       1.60596693    
  -3.96396494      -2.64863706     -0.246999994       3046.05322       1.60596693    
  -4.56476784      -3.05008101     -0.157000005       3046.05322       1.60596693    
  -5.38451099      -1.07104599     -0.157000005       3304.11548       1.60568976    
  -4.67581606     -0.930077016     -0.246999994       3304.11548       1.60568976    
  -4.40452194      -1.82441294     -0.246999994       3304.11548       1.60568976    
  -5.07209921      -2.10093188     -0.157000005       3304.11548       1.60568976    
  -5.48999977       0.00000000     -0.157000005       3467.00659       1.61044538    
  -4.76741982       0.00000000     -0.246999994       3467.00659       1.61044538    
  -4.67581606     -0.930077016     -0.246999994       3467.00659       1.61044538    
  -5.38451099      -1.07104599     -0.157000005       3467.00659       1.61044538    
  -5.38451099       1.07104599     -0.157000005       3465.97021       1.61050427    
  -4.67581606      0.930077016     -0.246999994       3465.97021       1.61050427    
  -4.76741982       0.00000000     -0.246999994       3465.97021       1.61050427    
  -5.48999977       0.00000000     -0.157000005       3465.97021       1.61050427    
  -5.07209921       2.10093188     -0.157000005       3334.11475       1.61007404    
  -4.40452194       1.82441294     -0.246999994       3334.11475       1.61007404    
  -4.67581606      0.930077016     -0.246999994       3334.11475       1.61007404    
  -5.38451099       1.07104599     -0.157000005       3334.11475       1.61007404    
  -4.56476784       3.05008101     -0.157000005       3069.54297       1.61110985    
  -3.96396494       2.64863706     -0.246999994       3069.54297       1.61110985    
  -4.40452194       1.82441294     -0.246999994       3069.54297       1.61110985    
  -5.07209921       2.10093188     -0.157000005       3069.54297       1.61110985    
  -3.88201594       3.88201594     -0.157000005       2670.60034       1.60504472    
  -3.37107491       3.37107491     -0.246999994       2670.60034       1.60504472    
  -3.96396494       2.64863706     -0.246999994       2670.60034       1.60504472    
  -4.56476784       3.05008101     -0.157000005       2670.60034       1.60504472    
  -3.05008101       4.56476784     -0.157000005       2204.07886       1.61127889    
  -2.64863706       3.96396494     -0.246999994       2204.07886       1.61127889    
  -3.37107491       3.37107491     -0.246999994       2204.07886       1.61127889    
  -3.88201594       3.88201594     -0.157000005       2204.07886       1.61127889    
  -2.10093188       5.07209921     -0.157000005       1629.11694       1.60458851    
  -1.82441294       4.40452194     -0.246999994       1629.11694       1.60458851    
  -2.64863706       3.96396494     -0.246999994       1629.11694       1.60458851    
  -3.05008101       4.56476784     -0.157000005       1629.11694       1.60458851    
  -1.07104599       5.38451099     -0.157000005       1004.18329       1.61120379    
 -0.930077016       4.67581606     -0.246999994       1004.18329       1.61120379    
  -1.82441294       4.40452194     -0.246999994       1004.18329       1.61120379    
  -2.10093188       5.07209921     -0.157000005       1004.18329       1.61120379    
   0.00000000       5.48999977     -0.157000005       339.669342       1.60183918    
   0.00000000       4.76741982     -0.246999994       339.669342       1.60183918    
 -0.930077016       4.67581606     -0.246999994       339.669342       1.60183918    
  -1.07104599       5.38451099     -0.157000005       339.669342       1.60183918    
   1.07104599       5.38451099     -0.157000005       348.477448      -1.53102529    
  0.930077016       4.67581606     -0.246999994       348.477448      -1.53102529    
   0.00000000       4.76741982     -0.246999994       348.477448      -1.53102529    
   0.00000000       5.48999977     -0.157000005       348.477448      -1.53102529    
   2.10093188       5.07209921     -0.157000005       1001.13562      -1.53405929    
   1.82441294       4.40452194     -0.246999994       1001.13562      -1.53405929    
  0.930077016       4.67581606     -0.246999994       1001.13562      -1.53405929    
   1.07104599       5.38451099     -0.157000005       1001.13562      -1.53405929    
   3.05008101       4.56476784     -0.157000005       1633.31042      -1.53640199    
   2.64863706       3.96396494     -0.246999994       1633.31042      -1.53640199    
   1.82441294       4.40452194     -0.246999994       1633.31042      -1.53640199    
   2.10093188       5.07209921     -0.157000005       1633.31042      -1.53640199    
   3.88201594       3.88201594     -0.157000005       2207.16724      -1.52996933    
   3.37107491       3.37107491     -0.246999994       2207.16724      -1.52996933    
   2.64863706       3.96396494     -0.246999994       2207.16724      -1.52996933    
   3.05008101       4.56476784     -0.157000005       2207.16724      -1.52996933    
   4.56476784       3.05008101     -0.157000005       2692.22290      -1.53522539    
   3.96396494       2.64863706     -0.246999994       2692.22290      -1.53522539    
   3.37107491       3.37107491     -0.246999994       2692.22290      -1.53522539    
   3.88201594       3.88201594     -0.157000005       2692.22290      -1.53522539    
   5.07209921       2.10093188     -0.157000005       3068.86230      -1.53066647    
   4.40452194       1.82441294     -0.246999994       3068.86230      -1.53066647    
   3.96396494       2.64863706     -0.246999994       3068.86230      -1.53066647    
   4.56476784       3.05008101     -0.157000005       3068.86230      -1.53066647    
   5.38451099       1.07104599     -0.157000005       3308.14209      -1.53594840    
   4.67581606      0.930077016     -0.246999994       3308.14209      -1.53594840    
   4.40452194       1.82441294     -0.246999994       3308.14209      -1.53594840    
   5.07209921       2.10093188     -0.157000005       3308.14209      -1.53594840    
   5.48999977       0.00000000     -0.157000005       3433.84863      -1.53535473    
   4.76741982       0.00000000     -0.246999994       3433.84863      -1.53535473    
   4.67581606      0.930077016     -0.246999994       3433.84863      -1.53535473    
   5.38451099       1.07104599     -0.157000005       3433.84863      -1.53535473    
   5.38451099      -1.07104599     -0.157000005       3437.14722      -1.53581452    
   4.67581606     -0.930077016     -0.246999994       3437.14722      -1.53581452    
   4.76741982       0.00000000     -0.246999994       3437.14722      -1.53581452    
   5.48999977       0.00000000     -0.157000005       3437.14722      -1.53581452    
   5.07209921      -2.10093188     -0.157000005       3302.03345      -1.53574216    
   4.40452194      -1.82441294     -0.246999994       3302.03345      -1.53574216    
   4.67581606     -0.930077016     -0.246999994       3302.03345      -1.53574216    
   5.38451099      -1.07104599     -0.157000005       3302.03345      -1.53574216    
   4.56476784      -3.05008101     -0.157000005       3044.18530      -1.53559899    
   3.96396494      -2.64863706     -0.246999994       3044.18530      -1.53559899    
   4.40452194      -1.82441294     -0.246999994       3044.18530      -1.53559899    
   5.07209921      -2.10093188     -0.157000005       3044.18530      -1.53559899    
   3.88201594      -3.88201594     -0.157000005       2667.37598      -1.53635097    
   3.37107491      -3.37107491     -0.246999994       2667.37598      -1.53635097    
   3.96396494      -2.64863706     -0.246999994       2667.37598      -1.53635097    
   4.56476784      -3.05008101     -0.157000005       2667.37598      -1.53635097    
   3.05008101      -4.56476784     -0.157000005       2205.76904      -1.53084731    
   2.64863706      -3.96396494     -0.246999994       2205.76904      -1.53084731    
   3.37107491      -3.37107491     -0.246999994       2205.76904      -1.53084731    
   3.88201594      -3.88201594     -0.157000005       2205.76904      -1.53084731    
   2.10093188      -5.07209921     -0.157000005       1627.38379      -1.53645670    
   1.82441294      -4.40452194     -0.246999994       1627.38379      -1.53645670    
   2.64863706      -3.96396494     -0.246999994       1627.38379      -1.53645670    
   3.05008101      -4.56476784     -0.157000005       1627.38379      -1.53645670    
   1.07104599      -5.38451099     -0.157000005       998.539368      -1.53532779    
  0.930077016      -4.67581606     -0.246999994       998.539368      -1.53532779    
   1.82441294      -4.40452194     -0.246999994       998.539368      -1.53532779    
   2.10093188      -5.07209921     -0.157000005       998.539368      -1.53532779    
   0.00000000      -1.87709999     -0.606999993       85.9724503       1.57646418    
   0.00000000      -1.36500001     -0.606999993       85.9724503       1.57646418    
  0.266297996      -1.33877206     -0.606999993       85.9724503       1.57646418    
  0.366203994      -1.84103203     -0.606999993       85.9724503       1.57646418    
   0.00000000      -1.87709999     -0.606999993       228.942566      -1.56904662    
   0.00000000      -2.59967995     -0.517000020       228.942566      -1.56904662    
 -0.507171988      -2.54972792     -0.517000020       228.942566      -1.56904662    
 -0.366203994      -1.84103203     -0.606999993       228.942566      -1.56904662    
 -0.366203994      -1.84103203     -0.606999993       50.1616325      -1.56373787    
 -0.266297996      -1.33877206     -0.606999993       50.1616325      -1.56373787    
   0.00000000      -1.36500001     -0.606999993       50.1616325      -1.56373787    
   0.00000000      -1.87709999     -0.606999993       50.1616325      -1.56373787    
 -0.366203994      -1.84103203     -0.606999993       695.462097      -1.56910884    
 -0.507171988      -2.54972792     -0.517000020       695.462097      -1.56910884    
 -0.994853973      -2.40179110     -0.517000020       695.462097      -1.56910884    
 -0.718334973      -1.73421395     -0.606999993       695.462097      -1.56910884    
 -0.718334973      -1.73421395     -0.606999993       188.438538      -1.56448174    
 -0.522363007      -1.26109600     -0.606999993       188.438538      -1.56448174    
 -0.266297996      -1.33877206     -0.606999993       188.438538      -1.56448174    
 -0.366203994      -1.84103203     -0.606999993       188.438538      -1.56448174    
 -0.718334973      -1.73421395     -0.606999993       1135.82129      -1.56914270    
 -0.994853973      -2.40179110     -0.517000020       1135.82129      -1.56914270    
  -1.44430494      -2.16155505     -0.517000020       1135.82129      -1.56914270    
  -1.04286098      -1.56075203     -0.606999993       1135.82129      -1.56914270    
  -1.04286098      -1.56075203     -0.606999993       321.106506      -1.56498039    
 -0.758352995      -1.13495600     -0.606999993       321.106506      -1.56498039    
 -0.522363007      -1.26109600     -0.606999993       321.106506      -1.56498039    
 -0.718334973      -1.73421395     -0.606999993       321.106506      -1.56498039    
  -1.04286098      -1.56075203     -0.606999993       1532.58740      -1.56916726    
  -1.44430494      -2.16155505     -0.517000020       1532.58740      -1.56916726    
  -1.83825099      -1.83825099     -0.517000020       1532.58740      -1.56916726    
  -1.32730997      -1.32730997     -0.606999993       1532.58740      -1.56916726    
  -1.32730997      -1.32730997     -0.606999993       440.482147      -1.56529546    
 -0.965201020     -0.965201020     -0.606999993       440.482147      -1.56529546    
 -0.758352995      -1.13495600     -0.606999993       440.482147      -1.56529546    
  -1.04286098      -1.56075203     -0.606999993       440.482147      -1.56529546    
  -1.32730997      -1.32730997     -0.606999993       1869.69043      -1.56918657    
  -1.83825099      -1.83825099     -0.517000020       1869.69043      -1.56918657    
  -2.16155505      -1.44430494     -0.517000020       1869.69043      -1.56918657    
  -1.56075203      -1.04286098     -0.606999993       1869.69043      -1.56918657    
  -1.56075203      -1.04286098     -0.606999993       539.449219      -1.56551003    
  -1.13495600     -0.758352995     -0.606999993       539.449219      -1.56551003    
 -0.965201020     -0.965201020     -0.606999993       539.449219      -1.56551003    
  -1.32730997      -1.32730997     -0.606999993       539.449219      -1.56551003    
  -1.56075203      -1.04286098     -0.606999993       2131.43237      -1.56919372    
  -2.16155505      -1.44430494     -0.517000020       2131.43237      -1.56919372    
  -2.40179110     -0.994853973     -0.517000020       2131.43237      -1.56919372    
  -1.73421395     -0.718334973     -0.606999993       2131.43237      -1.56919372    
  -1.73421395     -0.718334973     -0.606999993       611.797180      -1.56561685    
  -1.26109600     -0.522363007     -0.606999993       611.797180      -1.56561685    
  -1.13495600     -0.758352995     -0.606999993       611.797180      -1.56561685    
  -1.56075203      -1.04286098     -0.606999993       611.797180      -1.56561685    
  -1.73421395     -0.718334973     -0.606999993       2305.84546      -1.56920004    
  -2.40179110     -0.994853973     -0.517000020       2305.84546      -1.56920004    
  -2.54972792     -0.507171988     -0.517000020       2305.84546      -1.56920004    
  -1.84103203     -0.366203994     -0.606999993       2305.84546      -1.56920004    
  -1.84103203     -0.366203994     -0.606999993       654.089111      -1.56561732    
  -1.33877206     -0.266297996     -0.606999993       654.089111      -1.56561732    
  -1.26109600     -0.522363007     -0.606999993       654.089111      -1.56561732    
  -1.73421395     -0.718334973     -0.606999993       654.089111      -1.56561732    
  -1.84103203     -0.366203994     -0.606999993       2389.28345      -1.56919754    
  -2.54972792     -0.507171988     -0.517000020       2389.28345      -1.56919754    
  -2.59967995       0.00000000     -0.517000020       2389.28345      -1.56919754    
  -1.87709999       0.00000000     -0.606999993       2389.28345      -1.56919754    
  -1.87709999       0.00000000     -0.606999993       668.106689      -1.56557202    
  -1.36500001       0.00000000     -0.606999993       668.106689      -1.56557202    
  -1.33877206     -0.266297996     -0.606999993       668.106689      -1.56557202    
  -1.84103203     -0.366203994     -0.606999993       668.106689      -1.56557202    
  -1.87709999       0.00000000     -0.606999993       2383.77710      -1.56918025    
  -2.59967995       0.00000000     -0.517000020       2383.77710      -1.56918025    
  -2.54972792      0.507171988     -0.517000020       2383.77710      -1.56918025    
  -1.84103203      0.366203994     -0.606999993       2383.77710      -1.56918025    
  -1.84103203      0.366203994     -0.606999993       658.629028      -1.56549752    
  -1.33877206      0.266297996     -0.606999993       658.629028      -1.56549752    
  -1.36500001       0.00000000     -0.606999993       658.629028      -1.56549752    
  -1.87709999       0.00000000     -0.606999993       658.629028      -1.56549752    
  -1.84103203      0.366203994     -0.606999993       2291.77246      -1.56915724    
  -2.54972792      0.507171988     -0.517000020       2291.77246      -1.56915724    
  -2.40179110      0.994853973     -0.517000020       2291.77246      -1.56915724    
  -1.73421395      0.718334973     -0.606999993       2291.77246      -1.56915724    
  -1.73421395      0.718334973     -0.606999993       629.611511      -1.56544137    
  -1.26109600      0.522363007     -0.606999993       629.611511      -1.56544137    
  -1.33877206      0.266297996     -0.606999993       629.611511      -1.56544137    
  -1.84103203      0.366203994     -0.606999993       629.611511      -1.56544137    
  -1.73421395      0.718334973     -0.606999993       2114.51123      -1.56913936    
  -2.40179110      0.994853973     -0.517000020       2114.51123      -1.56913936    
  -2.16155505       1.44430494     -0.517000020       2114.51123      -1.56913936    
  -1.56075203       1.04286098     -0.606999993       2114.51123      -1.56913936    
  -1.56075203       1.04286098     -0.606999993       582.013794      -1.56537914    
  -1.13495600      0.758352995     -0.606999993       582.013794      -1.56537914    
  -1.26109600      0.522363007     -0.606999993       582.013794      -1.56537914    
  -1.73421395      0.718334973     -0.606999993       582.013794      -1.56537914    
  -1.56075203       1.04286098     -0.606999993       1855.72095      -1.56912649    
  -2.16155505       1.44430494     -0.517000020       1855.72095      -1.56912649    
  -1.83825099       1.83825099     -0.517000020       1855.72095      -1.56912649    
  -1.32730997       1.32730997     -0.606999993       1855.72095      -1.56912649    
  -1.32730997       1.32730997     -0.606999993       515.751221      -1.56529021    
 -0.965201020      0.965201020     -0.606999993       515.751221      -1.56529021    
  -1.13495600      0.758352995     -0.606999993       515.751221      -1.56529021    
  -1.56075203       1.04286098     -0.606999993       515.751221      -1.56529021    
  -1.32730997       1.32730997     -0.606999993       1525.59998      -1.56910563    
  -1.83825099       1.83825099     -0.517000020       1525.59998      -1.56910563    
  -1.44430494       2.16155505     -0.517000020       1525.59998      -1.56910563    
  -1.04286098       1.56075203     -0.606999993       1525.59998      -1.56910563    
  -1.04286098       1.56075203     -0.606999993       431.537506      -1.56512988    
 -0.758352995       1.13495600     -0.606999993       431.537506      -1.56512988    
 -0.965201020      0.965201020     -0.606999993       431.537506      -1.56512988    
  -1.32730997       1.32730997     -0.606999993       431.537506      -1.56512988    
  -1.04286098       1.56075203     -0.606999993       1137.94128      -1.56905282    
  -1.44430494       2.16155505     -0.517000020       1137.94128      -1.56905282    
 -0.994853973       2.40179110     -0.517000020       1137.94128      -1.56905282    
 -0.718334973       1.73421395     -0.606999993       1137.94128      -1.56905282    
 -0.718334973       1.73421395     -0.606999993       330.822815      -1.56493127    
 -0.522363007       1.26109600     -0.606999993       330.822815      -1.56493127    
 -0.758352995       1.13495600     -0.606999993       330.822815      -1.56493127    
  -1.04286098       1.56075203     -0.606999993       330.822815      -1.56493127    
 -0.718334973       1.73421395     -0.606999993       706.183838      -1.56897962    
 -0.994853973       2.40179110     -0.517000020       706.183838      -1.56897962    
 -0.507171988       2.54972792     -0.517000020       706.183838      -1.56897962    
 -0.366203994       1.84103203     -0.606999993       706.183838      -1.56897962    
 -0.366203994       1.84103203     -0.606999993       215.126434      -1.56483185    
 -0.266297996       1.33877206     -0.606999993       215.126434      -1.56483185    
 -0.522363007       1.26109600     -0.606999993       215.126434      -1.56483185    
 -0.718334973       1.73421395     -0.606999993       215.126434      -1.56483185    
 -0.366203994       1.84103203     -0.606999993       244.837570      -1.56885040    
 -0.507171988       2.54972792     -0.517000020       244.837570      -1.56885040    
   0.00000000       2.59967995     -0.517000020       244.837570      -1.56885040    
   0.00000000       1.87709999     -0.606999993       244.837570      -1.56885040    
   0.00000000       1.87709999     -0.606999993       86.6817093      -1.56507993    
   0.00000000       1.36500001     -0.606999993       86.6817093      -1.56507993    
 -0.266297996       1.33877206     -0.606999993       86.6817093      -1.56507993    
 -0.366203994       1.84103203     -0.606999993       86.6817093      -1.56507993    
   0.00000000       1.87709999     -0.606999993       228.876602       1.57244396    
   0.00000000       2.59967995     -0.517000020       228.876602       1.57244396    
  0.507171988       2.54972792     -0.517000020       228.876602       1.57244396    
  0.366203994       1.84103203     -0.606999993       228.876602       1.57244396    
  0.366203994       1.84103203     -0.606999993       50.3151932       1.57850409    
  0.266297996       1.33877206     -0.606999993       50.3151932       1.57850409    
   0.00000000       1.36500001     -0.606999993       50.3151932       1.57850409    
   0.00000000       1.87709999     -0.606999993       50.3151932       1.57850409    
  0.366203994       1.84103203     -0.606999993       695.477600       1.57253015    
  0.507171988       2.54972792     -0.517000020       695.477600       1.57253015    
  0.994853973       2.40179110     -0.517000020       695.477600       1.57253015    
  0.718334973       1.73421395     -0.606999993       695.477600       1.57253015    
  0.718334973       1.73421395     -0.606999993       189.175171       1.57738936    
  0.522363007       1.26109600     -0.606999993       189.175171       1.57738936    
  0.266297996       1.33877206     -0.606999993       189.175171       1.57738936    
  0.366203994       1.84103203     -0.606999993       189.175171       1.57738936    
  0.718334973       1.73421395     -0.606999993       1135.85840       1.57248747    
  0.994853973       2.40179110     -0.517000020       1135.85840       1.57248747    
   1.44430494       2.16155505     -0.517000020       1135.85840       1.57248747    
   1.04286098       1.56075203     -0.606999993       1135.85840       1.57248747    
   1.04286098       1.56075203     -0.606999993       321.929321       1.57677984    
  0.758352995       1.13495600     -0.606999993       321.929321       1.57677984    
  0.522363007       1.26109600     -0.606999993       321.929321       1.57677984    
  0.718334973       1.73421395     -0.606999993       321.929321       1.57677984    
   1.04286098       1.56075203     -0.606999993       1532.51660       1.57243550    
   1.44430494       2.16155505     -0.517000020       1532.51660       1.57243550    
   1.83825099       1.83825099     -0.517000020       1532.51660       1.57243550    
   1.32730997       1.32730997     -0.606999993       1532.51660       1.57243550    
   1.32730997       1.32730997     -0.606999993       440.457642       1.57640338    
  0.965201020      0.965201020     -0.606999993       440.457642       1.57640338    
  0.758352995       1.13495600     -0.606999993       440.457642       1.57640338    
   1.04286098       1.56075203     -0.606999993       440.457642       1.57640338    
   1.32730997       1.32730997     -0.606999993       1869.06567       1.57238555    
   1.83825099       1.83825099     -0.517000020       1869.06567       1.57238555    
   2.16155505       1.44430494     -0.517000020       1869.06567       1.57238555    
   1.56075203       1.04286098     -0.606999993       1869.06567       1.57238555    
   1.56075203       1.04286098     -0.606999993       537.309937       1.57612705    
   1.13495600      0.758352995     -0.606999993       537.309937       1.57612705    
  0.965201020      0.965201020     -0.606999993       537.309937       1.57612705    
   1.32730997       1.32730997     -0.606999993       537.309937       1.57612705    
   1.56075203       1.04286098     -0.606999993       2129.72217       1.57234454    
   2.16155505       1.44430494     -0.517000020       2129.72217       1.57234454    
   2.40179110      0.994853973     -0.517000020       2129.72217       1.57234454    
   1.73421395      0.718334973     -0.606999993       2129.72217       1.57234454    
   1.73421395      0.718334973     -0.606999993       608.012817       1.57596779    
   1.26109600      0.522363007     -0.606999993       608.012817       1.57596779    
   1.13495600      0.758352995     -0.606999993       608.012817       1.57596779    
   1.56075203       1.04286098     -0.606999993       608.012817       1.57596779    
   1.73421395      0.718334973     -0.606999993       2303.81226       1.57231343    
   2.40179110      0.994853973     -0.517000020       2303.81226       1.57231343    
   2.54972792      0.507171988     -0.517000020       2303.81226       1.57231343    
   1.84103203      0.366203994     -0.606999993       2303.81226       1.57231343    
   1.84103203      0.366203994     -0.606999993       651.084839       1.57588398    
   1.33877206      0.266297996     -0.606999993       651.084839       1.57588398    
   1.26109600      0.522363007     -0.606999993       651.084839       1.57588398    
   1.73421395      0.718334973     -0.606999993       651.084839       1.57588398    
   1.84103203      0.366203994     -0.606999993       2388.35181       1.57228982    
   2.54972792      0.507171988     -0.517000020       2388.35181       1.57228982    
   2.59967995       0.00000000     -0.517000020       2388.35181       1.57228982    
   1.87709999       0.00000000     -0.606999993       2388.35181       1.57228982    
   1.87709999       0.00000000     -0.606999993       667.161621       1.57584453    
   1.36500001       0.00000000     -0.606999993       667.161621       1.57584453    
   1.33877206      0.266297996     -0.606999993       667.161621       1.57584453    
   1.84103203      0.366203994     -0.606999993       667.161621       1.57584453    
   1.87709999       0.00000000     -0.606999993       2384.63354       1.57228470    
   2.59967995       0.00000000     -0.517000020       2384.63354       1.57228470    
   2.54972792     -0.507171988     -0.517000020       2384.63354       1.57228470    
   1.84103203     -0.366203994     -0.606999993       2384.63354       1.57228470    
   1.84103203     -0.366203994     -0.606999993       659.903625       1.57583892    
   1.33877206     -0.266297996     -0.606999993       659.903625       1.57583892    
   1.36500001       0.00000000     -0.606999993       659.903625       1.57583892    
   1.87709999       0.00000000     -0.606999993       659.903625       1.57583892    
   1.84103203     -0.366203994     -0.606999993       2293.39380       1.57229686    
   2.54972792     -0.507171988     -0.517000020       2293.39380       1.57229686    
   2.40179110     -0.994853973     -0.517000020       2293.39380       1.57229686    
   1.73421395     -0.718334973     -0.606999993       2293.39380       1.57229686    
   1.73421395     -0.718334973     -0.606999993       631.857117       1.57585478    
   1.26109600     -0.522363007     -0.606999993       631.857117       1.57585478    
   1.33877206     -0.266297996     -0.606999993       631.857117       1.57585478    
   1.84103203     -0.366203994     -0.606999993       631.857117       1.57585478    
   1.73421395     -0.718334973     -0.606999993       2115.32007       1.57231724    
   2.40179110     -0.994853973     -0.517000020       2115.32007       1.57231724    
   2.16155505      -1.44430494     -0.517000020       2115.32007       1.57231724    
   1.56075203      -1.04286098     -0.606999993       2115.32007       1.57231724    
   1.56075203      -1.04286098     -0.606999993       583.723450       1.57590842    
   1.13495600     -0.758352995     -0.606999993       583.723450       1.57590842    
   1.26109600     -0.522363007     -0.606999993       583.723450       1.57590842    