 VARIABLES="X" "Y" "Z" "abs(p) (Pa)" "angle(p) (rad)"
ZONE N=   2709,E =    2358, F=FEPOINT, ET=QUADRILATERAL
   0.00000000      -5.48999977     -0.157000005       365.862000      -1.47243059    
   0.00000000      -4.76741982     -0.246999994       365.862000      -1.47243059    
  0.930077016      -4.67581606     -0.246999994       365.862000      -1.47243059    
   1.07104599      -5.38451099     -0.157000005       365.862000      -1.47243059    
  -1.07104599      -5.38451099     -0.157000005       381.946899       1.67539227    
 -0.930077016      -4.67581606     -0.246999994       381.946899       1.67539227    
   0.00000000      -4.76741982     -0.246999994       381.946899       1.67539227    
   0.00000000      -5.48999977     -0.157000005       381.946899       1.67539227    
  -2.10093188      -5.07209921     -0.157000005       1121.68237       1.67241979    
  -1.82441294      -4.40452194     -0.246999994       1121.68237       1.67241979    
 -0.930077016      -4.67581606     -0.246999994       1121.68237       1.67241979    
  -1.07104599      -5.38451099     -0.157000005       1121.68237       1.67241979    
  -3.05008101      -4.56476784     -0.157000005       1803.17004       1.67291331    
  -2.64863706      -3.96396494     -0.246999994       1803.17004       1.67291331    
  -1.82441294      -4.40452194     -0.246999994       1803.17004       1.67291331    
  -2.10093188      -5.07209921     -0.157000005       1803.17004       1.67291331    
  -3.88201594      -3.88201594     -0.157000005       2425.30664       1.67255640    
  -3.37107491      -3.37107491     -0.246999994       2425.30664       1.67255640    
  -2.64863706      -3.96396494     -0.246999994       2425.30664       1.67255640    
  -3.05008101      -4.56476784     -0.157000005       2425.30664       1.67255640    
  -4.56476784      -3.05008101     -0.157000005       2975.33594       1.67134154    
  -3.96396494      -2.64863706     -0.246999994       2975.33594       1.67134154    
  -3.37107491      -3.37107491     -0.246999994       2975.33594       1.67134154    
  -3.88201594      -3.88201594     -0.157000005       2975.33594       1.67134154    
  -5.07209921      -2.10093188     -0.157000005       3368.30688       1.67236578    
  -4.40452194      -1.82441294     -0.246999994       3368.30688       1.67236578    
  -3.96396494      -2.64863706     -0.246999994       3368.30688       1.67236578    
  -4.56476784      -3.05008101     -0.157000005       3368.30688       1.67236578    
  -5.38451099      -1.07104599     -0.157000005       3651.18701       1.67243969    
  -4.67581606     -0.930077016     -0.246999994       3651.18701       1.67243969    
  -4.40452194      -1.82441294     -0.246999994       3651.18701       1.67243969    
  -5.07209921      -2.10093188     -0.157000005       3651.18701       1.67243969    
  -5.48999977       0.00000000     -0.157000005       3822.60352       1.67138064    
  -4.76741982       0.00000000     -0.246999994       3822.60352       1.67138064    
  -4.67581606     -0.930077016     -0.246999994       3822.60352       1.67138064    
  -5.38451099      -1.07104599     -0.157000005       3822.60352       1.67138064    
  -5.38451099       1.07104599     -0.157000005       3825.74023       1.67120171    
  -4.67581606      0.930077016     -0.246999994       3825.74023       1.67120171    
  -4.76741982       0.00000000     -0.246999994       3825.74023       1.67120171    
  -5.48999977       0.00000000     -0.157000005       3825.74023       1.67120171    
  -5.07209921       2.10093188     -0.157000005       3677.78564       1.67119217    
  -4.40452194       1.82441294     -0.246999994       3677.78564       1.67119217    
  -4.67581606      0.930077016     -0.246999994       3677.78564       1.67119217    
  -5.38451099       1.07104599     -0.157000005       3677.78564       1.67119217    
  -4.56476784       3.05008101     -0.157000005       3385.12695       1.67129111    
  -3.96396494       2.64863706     -0.246999994       3385.12695       1.67129111    
  -4.40452194       1.82441294     -0.246999994       3385.12695       1.67129111    
  -5.07209921       2.10093188     -0.157000005       3385.12695       1.67129111    
  -3.88201594       3.88201594     -0.157000005       2945.92700       1.67222810    
  -3.37107491       3.37107491     -0.246999994       2945.92700       1.67222810    
  -3.96396494       2.64863706     -0.246999994       2945.92700       1.67222810    
  -4.56476784       3.05008101     -0.157000005       2945.92700       1.67222810    
  -3.05008101       4.56476784     -0.157000005       2427.92236       1.67148972    
  -2.64863706       3.96396494     -0.246999994       2427.92236       1.67148972    
  -3.37107491       3.37107491     -0.246999994       2427.92236       1.67148972    
  -3.88201594       3.88201594     -0.157000005       2427.92236       1.67148972    
  -2.10093188       5.07209921     -0.157000005       1793.35303       1.67225707    
  -1.82441294       4.40452194     -0.246999994       1793.35303       1.67225707    
  -2.64863706       3.96396494     -0.246999994       1793.35303       1.67225707    
  -3.05008101       4.56476784     -0.157000005       1793.35303       1.67225707    
  -1.07104599       5.38451099     -0.157000005       1107.63110       1.67161703    
 -0.930077016       4.67581606     -0.246999994       1107.63110       1.67161703    
  -1.82441294       4.40452194     -0.246999994       1107.63110       1.67161703    
  -2.10093188       5.07209921     -0.157000005       1107.63110       1.67161703    
   0.00000000       5.48999977     -0.157000005       368.299744       1.67256868    
   0.00000000       4.76741982     -0.246999994       368.299744       1.67256868    
 -0.930077016       4.67581606     -0.246999994       368.299744       1.67256868    
  -1.07104599       5.38451099     -0.157000005       368.299744       1.67256868    
   1.07104599       5.38451099     -0.157000005       383.627411      -1.47090089    
  0.930077016       4.67581606     -0.246999994       383.627411      -1.47090089    
   0.00000000       4.76741982     -0.246999994       383.627411      -1.47090089    
   0.00000000       5.48999977     -0.157000005       383.627411      -1.47090089    
   2.10093188       5.07209921     -0.157000005       1113.61438      -1.46949267    
   1.82441294       4.40452194     -0.246999994       1113.61438      -1.46949267    
  0.930077016       4.67581606     -0.246999994       1113.61438      -1.46949267    
   1.07104599       5.38451099     -0.157000005       1113.61438      -1.46949267    
   3.05008101       4.56476784     -0.157000005       1804.97278      -1.46963179    
   2.64863706       3.96396494     -0.246999994       1804.97278      -1.46963179    
   1.82441294       4.40452194     -0.246999994       1804.97278      -1.46963179    
   2.10093188       5.07209921     -0.157000005       1804.97278      -1.46963179    
   3.88201594       3.88201594     -0.157000005       2444.74268      -1.47074950    
   3.37107491       3.37107491     -0.246999994       2444.74268      -1.47074950    
   2.64863706       3.96396494     -0.246999994       2444.74268      -1.47074950    
   3.05008101       4.56476784     -0.157000005       2444.74268      -1.47074950    
   4.56476784       3.05008101     -0.157000005       2973.68530      -1.47058523    
   3.96396494       2.64863706     -0.246999994       2973.68530      -1.47058523    
   3.37107491       3.37107491     -0.246999994       2973.68530      -1.47058523    
   3.88201594       3.88201594     -0.157000005       2973.68530      -1.47058523    
   5.07209921       2.10093188     -0.157000005       3394.82593      -1.47073710    
   4.40452194       1.82441294     -0.246999994       3394.82593      -1.47073710    
   3.96396494       2.64863706     -0.246999994       3394.82593      -1.47073710    
   4.56476784       3.05008101     -0.157000005       3394.82593      -1.47073710    
   5.38451099       1.07104599     -0.157000005       3651.12256      -1.46952260    
   4.67581606      0.930077016     -0.246999994       3651.12256      -1.46952260    
   4.40452194       1.82441294     -0.246999994       3651.12256      -1.46952260    
   5.07209921       2.10093188     -0.157000005       3651.12256      -1.46952260    
   5.48999977       0.00000000     -0.157000005       3788.18945      -1.46928918    
   4.76741982       0.00000000     -0.246999994       3788.18945      -1.46928918    
   4.67581606      0.930077016     -0.246999994       3788.18945      -1.46928918    
   5.38451099       1.07104599     -0.157000005       3788.18945      -1.46928918    
   5.38451099      -1.07104599     -0.157000005       3784.72119      -1.46925902    
   4.67581606     -0.930077016     -0.246999994       3784.72119      -1.46925902    
   4.76741982       0.00000000     -0.246999994       3784.72119      -1.46925902    
   5.48999977       0.00000000     -0.157000005       3784.72119      -1.46925902    
   5.07209921      -2.10093188     -0.157000005       3637.01196      -1.46927345    
   4.40452194      -1.82441294     -0.246999994       3637.01196      -1.46927345    
   4.67581606     -0.930077016     -0.246999994       3637.01196      -1.46927345    
   5.38451099      -1.07104599     -0.157000005       3637.01196      -1.46927345    
   4.56476784      -3.05008101     -0.157000005       3349.61011      -1.46933055    
   3.96396494      -2.64863706     -0.246999994       3349.61011      -1.46933055    
   4.40452194      -1.82441294     -0.246999994       3349.61011      -1.46933055    
   5.07209921      -2.10093188     -0.157000005       3349.61011      -1.46933055    
   3.88201594      -3.88201594     -0.157000005       2935.60083      -1.46950352    
   3.37107491      -3.37107491     -0.246999994       2935.60083      -1.46950352    
   3.96396494      -2.64863706     -0.246999994       2935.60083      -1.46950352    
   4.56476784      -3.05008101     -0.157000005       2935.60083      -1.46950352    
   3.05008101      -4.56476784     -0.157000005       2422.65552      -1.47054696    
   2.64863706      -3.96396494     -0.246999994       2422.65552      -1.47054696    
   3.37107491      -3.37107491     -0.246999994       2422.65552      -1.47054696    
   3.88201594      -3.88201594     -0.157000005       2422.65552      -1.47054696    
   2.10093188      -5.07209921     -0.157000005       1788.93481      -1.46994340    
   1.82441294      -4.40452194     -0.246999994       1788.93481      -1.46994340    
   2.64863706      -3.96396494     -0.246999994       1788.93481      -1.46994340    
   3.05008101      -4.56476784     -0.157000005       1788.93481      -1.46994340    
   1.07104599      -5.38451099     -0.157000005       1098.02295      -1.47018886    
  0.930077016      -4.67581606     -0.246999994       1098.02295      -1.47018886    
   1.82441294      -4.40452194     -0.246999994       1098.02295      -1.47018886    
   2.10093188      -5.07209921     -0.157000005       1098.02295      -1.47018886    
   0.00000000      -1.87709999     -0.606999993       216.820221      -1.52919734    
   0.00000000      -1.36500001     -0.606999993       216.820221      -1.52919734    
  0.266297996      -1.33877206     -0.606999993       216.820221      -1.52919734    
  0.366203994      -1.84103203     -0.606999993       216.820221      -1.52919734    
   0.00000000      -1.87709999     -0.606999993       294.917297       1.62657762    
   0.00000000      -2.59967995     -0.517000020       294.917297       1.62657762    
 -0.507171988      -2.54972792     -0.517000020       294.917297       1.62657762    
 -0.366203994      -1.84103203     -0.606999993       294.917297       1.62657762    
 -0.366203994      -1.84103203     -0.606999993       204.899734       1.61938035    
 -0.266297996      -1.33877206     -0.606999993       204.899734       1.61938035    
   0.00000000      -1.36500001     -0.606999993       204.899734       1.61938035    
   0.00000000      -1.87709999     -0.606999993       204.899734       1.61938035    
 -0.366203994      -1.84103203     -0.606999993       871.507263       1.62403488    
 -0.507171988      -2.54972792     -0.517000020       871.507263       1.62403488    
 -0.994853973      -2.40179110     -0.517000020       871.507263       1.62403488    
 -0.718334973      -1.73421395     -0.606999993       871.507263       1.62403488    
 -0.718334973      -1.73421395     -0.606999993       618.336609       1.61663783    
 -0.522363007      -1.26109600     -0.606999993       618.336609       1.61663783    
 -0.266297996      -1.33877206     -0.606999993       618.336609       1.61663783    
 -0.366203994      -1.84103203     -0.606999993       618.336609       1.61663783    
 -0.718334973      -1.73421395     -0.606999993       1411.11780       1.62296510    
 -0.994853973      -2.40179110     -0.517000020       1411.11780       1.62296510    
  -1.44430494      -2.16155505     -0.517000020       1411.11780       1.62296510    
  -1.04286098      -1.56075203     -0.606999993       1411.11780       1.62296510    
  -1.04286098      -1.56075203     -0.606999993       1007.92249       1.61562788    
 -0.758352995      -1.13495600     -0.606999993       1007.92249       1.61562788    
 -0.522363007      -1.26109600     -0.606999993       1007.92249       1.61562788    
 -0.718334973      -1.73421395     -0.606999993       1007.92249       1.61562788    
  -1.04286098      -1.56075203     -0.606999993       1899.13013       1.62221014    
  -1.44430494      -2.16155505     -0.517000020       1899.13013       1.62221014    
  -1.83825099      -1.83825099     -0.517000020       1899.13013       1.62221014    
  -1.32730997      -1.32730997     -0.606999993       1899.13013       1.62221014    
  -1.32730997      -1.32730997     -0.606999993       1360.92029       1.61492491    
 -0.965201020     -0.965201020     -0.606999993       1360.92029       1.61492491    
 -0.758352995      -1.13495600     -0.606999993       1360.92029       1.61492491    
  -1.04286098      -1.56075203     -0.606999993       1360.92029       1.61492491    
  -1.32730997      -1.32730997     -0.606999993       2321.25928       1.62176740    
  -1.83825099      -1.83825099     -0.517000020       2321.25928       1.62176740    
  -2.16155505      -1.44430494     -0.517000020       2321.25928       1.62176740    
  -1.56075203      -1.04286098     -0.606999993       2321.25928       1.62176740    
  -1.56075203      -1.04286098     -0.606999993       1664.91846       1.61449635    
  -1.13495600     -0.758352995     -0.606999993       1664.91846       1.61449635    
 -0.965201020     -0.965201020     -0.606999993       1664.91846       1.61449635    
  -1.32730997      -1.32730997     -0.606999993       1664.91846       1.61449635    
  -1.56075203      -1.04286098     -0.606999993       2656.48145       1.62166643    
  -2.16155505      -1.44430494     -0.517000020       2656.48145       1.62166643    
  -2.40179110     -0.994853973     -0.517000020       2656.48145       1.62166643    
  -1.73421395     -0.718334973     -0.606999993       2656.48145       1.62166643    
  -1.73421395     -0.718334973     -0.606999993       1905.75940       1.61435413    
  -1.26109600     -0.522363007     -0.606999993       1905.75940       1.61435413    
  -1.13495600     -0.758352995     -0.606999993       1905.75940       1.61435413    
  -1.56075203      -1.04286098     -0.606999993       1905.75940       1.61435413    
  -1.73421395     -0.718334973     -0.606999993       2884.19385       1.62178922    
  -2.40179110     -0.994853973     -0.517000020       2884.19385       1.62178922    
  -2.54972792     -0.507171988     -0.517000020       2884.19385       1.62178922    
  -1.84103203     -0.366203994     -0.606999993       2884.19385       1.62178922    
  -1.84103203     -0.366203994     -0.606999993       2071.22778       1.61440206    
  -1.33877206     -0.266297996     -0.606999993       2071.22778       1.61440206    
  -1.26109600     -0.522363007     -0.606999993       2071.22778       1.61440206    
  -1.73421395     -0.718334973     -0.606999993       2071.22778       1.61440206    
  -1.84103203     -0.366203994     -0.606999993       2997.15283       1.62192798    
  -2.54972792     -0.507171988     -0.517000020       2997.15283       1.62192798    
  -2.59967995       0.00000000     -0.517000020       2997.15283       1.62192798    
  -1.87709999       0.00000000     -0.606999993       2997.15283       1.62192798    
  -1.87709999       0.00000000     -0.606999993       2155.30029       1.61447942    
  -1.36500001       0.00000000     -0.606999993       2155.30029       1.61447942    
  -1.33877206     -0.266297996     -0.606999993       2155.30029       1.61447942    
  -1.84103203     -0.366203994     -0.606999993       2155.30029       1.61447942    
  -1.87709999       0.00000000     -0.606999993       2998.07422       1.62190330    
  -2.59967995       0.00000000     -0.517000020       2998.07422       1.62190330    
  -2.54972792      0.507171988     -0.517000020       2998.07422       1.62190330    
  -1.84103203      0.366203994     -0.606999993       2998.07422       1.62190330    
  -1.84103203      0.366203994     -0.606999993       2157.14307       1.61444712    
  -1.33877206      0.266297996     -0.606999993       2157.14307       1.61444712    
  -1.36500001       0.00000000     -0.606999993       2157.14307       1.61444712    
  -1.87709999       0.00000000     -0.606999993       2157.14307       1.61444712    
  -1.84103203      0.366203994     -0.606999993       2888.12549       1.62168336    
  -2.54972792      0.507171988     -0.517000020       2888.12549       1.62168336    
  -2.40179110      0.994853973     -0.517000020       2888.12549       1.62168336    
  -1.73421395      0.718334973     -0.606999993       2888.12549       1.62168336    
  -1.73421395      0.718334973     -0.606999993       2077.18311       1.61427736    
  -1.26109600      0.522363007     -0.606999993       2077.18311       1.61427736    
  -1.33877206      0.266297996     -0.606999993       2077.18311       1.61427736    
  -1.84103203      0.366203994     -0.606999993       2077.18311       1.61427736    
  -1.73421395      0.718334973     -0.606999993       2664.71680       1.62140584    
  -2.40179110      0.994853973     -0.517000020       2664.71680       1.62140584    
  -2.16155505       1.44430494     -0.517000020       2664.71680       1.62140584    
  -1.56075203       1.04286098     -0.606999993       2664.71680       1.62140584    
  -1.56075203       1.04286098     -0.606999993       1916.23169       1.61408222    
  -1.13495600      0.758352995     -0.606999993       1916.23169       1.61408222    
  -1.26109600      0.522363007     -0.606999993       1916.23169       1.61408222    
  -1.73421395      0.718334973     -0.606999993       1916.23169       1.61408222    
  -1.56075203       1.04286098     -0.606999993       2332.10864       1.62129653    
  -2.16155505       1.44430494     -0.517000020       2332.10864       1.62129653    
  -1.83825099       1.83825099     -0.517000020       2332.10864       1.62129653    
  -1.32730997       1.32730997     -0.606999993       2332.10864       1.62129653    
  -1.32730997       1.32730997     -0.606999993       1679.17310       1.61402559    
 -0.965201020      0.965201020     -0.606999993       1679.17310       1.61402559    
  -1.13495600      0.758352995     -0.606999993       1679.17310       1.61402559    
  -1.56075203       1.04286098     -0.606999993       1679.17310       1.61402559    
  -1.32730997       1.32730997     -0.606999993       1909.03333       1.62150753    
  -1.83825099       1.83825099     -0.517000020       1909.03333       1.62150753    
  -1.44430494       2.16155505     -0.517000020       1909.03333       1.62150753    
  -1.04286098       1.56075203     -0.606999993       1909.03333       1.62150753    
  -1.04286098       1.56075203     -0.606999993       1377.08911       1.61422729    
 -0.758352995       1.13495600     -0.606999993       1377.08911       1.61422729    
 -0.965201020      0.965201020     -0.606999993       1377.08911       1.61422729    
  -1.32730997       1.32730997     -0.606999993       1377.08911       1.61422729    
  -1.04286098       1.56075203     -0.606999993       1418.19482       1.62200332    
  -1.44430494       2.16155505     -0.517000020       1418.19482       1.62200332    
 -0.994853973       2.40179110     -0.517000020       1418.19482       1.62200332    
 -0.718334973       1.73421395     -0.606999993       1418.19482       1.62200332    
 -0.718334973       1.73421395     -0.606999993       1024.03662       1.61468768    
 -0.522363007       1.26109600     -0.606999993       1024.03662       1.61468768    
 -0.758352995       1.13495600     -0.606999993       1024.03662       1.61468768    
  -1.04286098       1.56075203     -0.606999993       1024.03662       1.61468768    
 -0.718334973       1.73421395     -0.606999993       875.870911       1.62264192    
 -0.994853973       2.40179110     -0.517000020       875.870911       1.62264192    
 -0.507171988       2.54972792     -0.517000020       875.870911       1.62264192    
 -0.366203994       1.84103203     -0.606999993       875.870911       1.62264192    
 -0.366203994       1.84103203     -0.606999993       633.076721       1.61535192    
 -0.266297996       1.33877206     -0.606999993       633.076721       1.61535192    
 -0.522363007       1.26109600     -0.606999993       633.076721       1.61535192    
 -0.718334973       1.73421395     -0.606999993       633.076721       1.61535192    
 -0.366203994       1.84103203     -0.606999993       297.061584       1.62332916    
 -0.507171988       2.54972792     -0.517000020       297.061584       1.62332916    
   0.00000000       2.59967995     -0.517000020       297.061584       1.62332916    
   0.00000000       1.87709999     -0.606999993       297.061584       1.62332916    
   0.00000000       1.87709999     -0.606999993       217.403656       1.61680639    
   0.00000000       1.36500001     -0.606999993       217.403656       1.61680639    
 -0.266297996       1.33877206     -0.606999993       217.403656       1.61680639    
 -0.366203994       1.84103203     -0.606999993       217.403656       1.61680639    
   0.00000000       1.87709999     -0.606999993       295.475952      -1.51929855    
   0.00000000       2.59967995     -0.517000020       295.475952      -1.51929855    
  0.507171988       2.54972792     -0.517000020       295.475952      -1.51929855    
  0.366203994       1.84103203     -0.606999993       295.475952      -1.51929855    
  0.366203994       1.84103203     -0.606999993       207.111282      -1.52846038    
  0.266297996       1.33877206     -0.606999993       207.111282      -1.52846038    
   0.00000000       1.36500001     -0.606999993       207.111282      -1.52846038    
   0.00000000       1.87709999     -0.606999993       207.111282      -1.52846038    
  0.366203994       1.84103203     -0.606999993       874.251831      -1.51933539    
  0.507171988       2.54972792     -0.517000020       874.251831      -1.51933539    
  0.994853973       2.40179110     -0.517000020       874.251831      -1.51933539    
  0.718334973       1.73421395     -0.606999993       874.251831      -1.51933539    
  0.718334973       1.73421395     -0.606999993       622.926453      -1.52749157    
  0.522363007       1.26109600     -0.606999993       622.926453      -1.52749157    
  0.266297996       1.33877206     -0.606999993       622.926453      -1.52749157    
  0.366203994       1.84103203     -0.606999993       622.926453      -1.52749157    
  0.718334973       1.73421395     -0.606999993       1416.47974      -1.51986837    
  0.994853973       2.40179110     -0.517000020       1416.47974      -1.51986837    
   1.44430494       2.16155505     -0.517000020       1416.47974      -1.51986837    
   1.04286098       1.56075203     -0.606999993       1416.47974      -1.51986837    
   1.04286098       1.56075203     -0.606999993       1014.29163      -1.52770102    
  0.758352995       1.13495600     -0.606999993       1014.29163      -1.52770102    
  0.522363007       1.26109600     -0.606999993       1014.29163      -1.52770102    
  0.718334973       1.73421395     -0.606999993       1014.29163      -1.52770102    
   1.04286098       1.56075203     -0.606999993       1907.05347      -1.52033186    
   1.44430494       2.16155505     -0.517000020       1907.05347      -1.52033186    
   1.83825099       1.83825099     -0.517000020       1907.05347      -1.52033186    
   1.32730997       1.32730997     -0.606999993       1907.05347      -1.52033186    
   1.32730997       1.32730997     -0.606999993       1367.85229      -1.52797639    
  0.965201020      0.965201020     -0.606999993       1367.85229      -1.52797639    
  0.758352995       1.13495600     -0.606999993       1367.85229      -1.52797639    
   1.04286098       1.56075203     -0.606999993       1367.85229      -1.52797639    
   1.32730997       1.32730997     -0.606999993       2329.70459      -1.52053583    
   1.83825099       1.83825099     -0.517000020       2329.70459      -1.52053583    
   2.16155505       1.44430494     -0.517000020       2329.70459      -1.52053583    
   1.56075203       1.04286098     -0.606999993       2329.70459      -1.52053583    
   1.56075203       1.04286098     -0.606999993       1670.66699      -1.52808559    
   1.13495600      0.758352995     -0.606999993       1670.66699      -1.52808559    
  0.965201020      0.965201020     -0.606999993       1670.66699      -1.52808559    
   1.32730997       1.32730997     -0.606999993       1670.66699      -1.52808559    
   1.56075203       1.04286098     -0.606999993       2661.78906      -1.52042902    
   2.16155505       1.44430494     -0.517000020       2661.78906      -1.52042902    
   2.40179110      0.994853973     -0.517000020       2661.78906      -1.52042902    
   1.73421395      0.718334973     -0.606999993       2661.78906      -1.52042902    
   1.73421395      0.718334973     -0.606999993       1908.90942      -1.52797186    
   1.26109600      0.522363007     -0.606999993       1908.90942      -1.52797186    
   1.13495600      0.758352995     -0.606999993       1908.90942      -1.52797186    
   1.56075203       1.04286098     -0.606999993       1908.90942      -1.52797186    
   1.73421395      0.718334973     -0.606999993       2884.72363      -1.52016449    
   2.40179110      0.994853973     -0.517000020       2884.72363      -1.52016449    
   2.54972792      0.507171988     -0.517000020       2884.72363      -1.52016449    
   1.84103203      0.366203994     -0.606999993       2884.72363      -1.52016449    
   1.84103203      0.366203994     -0.606999993       2071.24146      -1.52775145    
   1.33877206      0.266297996     -0.606999993       2071.24146      -1.52775145    
   1.26109600      0.522363007     -0.606999993       2071.24146      -1.52775145    
   1.73421395      0.718334973     -0.606999993       2071.24146      -1.52775145    
   1.84103203      0.366203994     -0.606999993       2994.34546      -1.51997089    
   2.54972792      0.507171988     -0.517000020       2994.34546      -1.51997089    
   2.59967995       0.00000000     -0.517000020       2994.34546      -1.51997089    
   1.87709999       0.00000000     -0.606999993       2994.34546      -1.51997089    
   1.87709999       0.00000000     -0.606999993       2152.74854      -1.52758491    
   1.36500001       0.00000000     -0.606999993       2152.74854      -1.52758491    
   1.33877206      0.266297996     -0.606999993       2152.74854      -1.52758491    
   1.84103203      0.366203994     -0.606999993       2152.74854      -1.52758491    
   1.87709999       0.00000000     -0.606999993       2993.38379      -1.51999187    
   2.59967995       0.00000000     -0.517000020       2993.38379      -1.51999187    
   2.54972792     -0.507171988     -0.517000020       2993.38379      -1.51999187    
   1.84103203     -0.366203994     -0.606999993       2993.38379      -1.51999187    
   1.84103203     -0.366203994     -0.606999993       2152.73022      -1.52757943    
   1.33877206     -0.266297996     -0.606999993       2152.73022      -1.52757943    
   1.36500001       0.00000000     -0.606999993       2152.73022      -1.52757943    
   1.87709999       0.00000000     -0.606999993       2152.73022      -1.52757943    
   1.84103203     -0.366203994     -0.606999993       2880.75391      -1.52020025    
   2.54972792     -0.507171988     -0.517000020       2880.75391      -1.52020025    
   2.40179110     -0.994853973     -0.517000020       2880.75391      -1.52020025    
   1.73421395     -0.718334973     -0.606999993       2880.75391      -1.52020025    
   1.73421395     -0.718334973     -0.606999993       2070.72095      -1.52771294    
   1.26109600     -0.522363007     -0.606999993       2070.72095      -1.52771294    
   1.33877206     -0.266297996     -0.606999993       2070.72095      -1.52771294    
   1.84103203     -0.366203994     -0.606999993       2070.72095      -1.52771294    
   1.73421395     -0.718334973     -0.606999993       2653.62183      -1.52042544    
   2.40179110     -0.994853973     -0.517000020       2653.62183      -1.52042544    
   2.16155505      -1.44430494     -0.517000020       2653.62183      -1.52042544    
   1.56075203      -1.04286098     -0.606999993       2653.62183      -1.52042544    
   1.56075203      -1.04286098     -0.606999993       1907.49377      -1.52785134    
   1.13495600     -0.758352995     -0.606999993       1907.49377      -1.52785134    
   1.26109600     -0.522363007     -0.606999993       1907.49377      -1.52785134    