 VARIABLES="X" "Y" "Z" "abs(p) (Pa)" "angle(p) (rad)"
ZONE N=   2709,E =    2358, F=FEPOINT, ET=QUADRILATERAL
   0.00000000      -5.48999977     -0.157000005      0.906158030       1.71757007    
   0.00000000      -4.76741982     -0.246999994      0.906158030       1.71757007    
  0.930077016      -4.67581606     -0.246999994      0.906158030       1.71757007    
   1.07104599      -5.38451099     -0.157000005      0.906158030       1.71757007    
  -1.07104599      -5.38451099     -0.157000005      0.938935399       1.71241260    
 -0.930077016      -4.67581606     -0.246999994      0.938935399       1.71241260    
   0.00000000      -4.76741982     -0.246999994      0.938935399       1.71241260    
   0.00000000      -5.48999977     -0.157000005      0.938935399       1.71241260    
  -2.10093188      -5.07209921     -0.157000005       1.17159832       1.68412030    
  -1.82441294      -4.40452194     -0.246999994       1.17159832       1.68412030    
 -0.930077016      -4.67581606     -0.246999994       1.17159832       1.68412030    
  -1.07104599      -5.38451099     -0.157000005       1.17159832       1.68412030    
  -3.05008101      -4.56476784     -0.157000005      0.962253213       1.70897341    
  -2.64863706      -3.96396494     -0.246999994      0.962253213       1.70897341    
  -1.82441294      -4.40452194     -0.246999994      0.962253213       1.70897341    
  -2.10093188      -5.07209921     -0.157000005      0.962253213       1.70897341    
  -3.88201594      -3.88201594     -0.157000005      0.949991107       1.71077824    
  -3.37107491      -3.37107491     -0.246999994      0.949991107       1.71077824    
  -2.64863706      -3.96396494     -0.246999994      0.949991107       1.71077824    
  -3.05008101      -4.56476784     -0.157000005      0.949991107       1.71077824    
  -4.56476784      -3.05008101     -0.157000005      0.555120945       1.81181169    
  -3.96396494      -2.64863706     -0.246999994      0.555120945       1.81181169    
  -3.37107491      -3.37107491     -0.246999994      0.555120945       1.81181169    
  -3.88201594      -3.88201594     -0.157000005      0.555120945       1.81181169    
  -5.07209921      -2.10093188     -0.157000005      0.737964272       1.75141883    
  -4.40452194      -1.82441294     -0.246999994      0.737964272       1.75141883    
  -3.96396494      -2.64863706     -0.246999994      0.737964272       1.75141883    
  -4.56476784      -3.05008101     -0.157000005      0.737964272       1.75141883    
  -5.38451099      -1.07104599     -0.157000005      0.903747737       1.71804154    
  -4.67581606     -0.930077016     -0.246999994      0.903747737       1.71804154    
  -4.40452194      -1.82441294     -0.246999994      0.903747737       1.71804154    
  -5.07209921      -2.10093188     -0.157000005      0.903747737       1.71804154    
  -5.48999977       0.00000000     -0.157000005       1.21163833       1.68041623    
  -4.76741982       0.00000000     -0.246999994       1.21163833       1.68041623    
  -4.67581606     -0.930077016     -0.246999994       1.21163833       1.68041623    
  -5.38451099      -1.07104599     -0.157000005       1.21163833       1.68041623    
  -5.38451099       1.07104599     -0.157000005       1.27861428       1.67465651    
  -4.67581606      0.930077016     -0.246999994       1.27861428       1.67465651    
  -4.76741982       0.00000000     -0.246999994       1.27861428       1.67465651    
  -5.48999977       0.00000000     -0.157000005       1.27861428       1.67465651    
  -5.07209921       2.10093188     -0.157000005       1.29090583       1.67367244    
  -4.40452194       1.82441294     -0.246999994       1.29090583       1.67367244    
  -4.67581606      0.930077016     -0.246999994       1.29090583       1.67367244    
  -5.38451099       1.07104599     -0.157000005       1.29090583       1.67367244    
  -4.56476784       3.05008101     -0.157000005       1.26308763       1.67595887    
  -3.96396494       2.64863706     -0.246999994       1.26308763       1.67595887    
  -4.40452194       1.82441294     -0.246999994       1.26308763       1.67595887    
  -5.07209921       2.10093188     -0.157000005       1.26308763       1.67595887    
  -3.88201594       3.88201594     -0.157000005       1.03079343       1.69983089    
  -3.37107491       3.37107491     -0.246999994       1.03079343       1.69983089    
  -3.96396494       2.64863706     -0.246999994       1.03079343       1.69983089    
  -4.56476784       3.05008101     -0.157000005       1.03079343       1.69983089    
  -3.05008101       4.56476784     -0.157000005       1.21648657       1.68001878    
  -2.64863706       3.96396494     -0.246999994       1.21648657       1.68001878    
  -3.37107491       3.37107491     -0.246999994       1.21648657       1.68001878    
  -3.88201594       3.88201594     -0.157000005       1.21648657       1.68001878    
  -2.10093188       5.07209921     -0.157000005       1.02361238       1.70074463    
  -1.82441294       4.40452194     -0.246999994       1.02361238       1.70074463    
  -2.64863706       3.96396494     -0.246999994       1.02361238       1.70074463    
  -3.05008101       4.56476784     -0.157000005       1.02361238       1.70074463    
  -1.07104599       5.38451099     -0.157000005       1.21171093       1.68044913    
 -0.930077016       4.67581606     -0.246999994       1.21171093       1.68044913    
  -1.82441294       4.40452194     -0.246999994       1.21171093       1.68044913    
  -2.10093188       5.07209921     -0.157000005       1.21171093       1.68044913    
   0.00000000       5.48999977     -0.157000005       1.01795781       1.70146298    
   0.00000000       4.76741982     -0.246999994       1.01795781       1.70146298    
 -0.930077016       4.67581606     -0.246999994       1.01795781       1.70146298    
  -1.07104599       5.38451099     -0.157000005       1.01795781       1.70146298    
   1.07104599       5.38451099     -0.157000005       1.20303202       1.68123126    
  0.930077016       4.67581606     -0.246999994       1.20303202       1.68123126    
   0.00000000       4.76741982     -0.246999994       1.20303202       1.68123126    
   0.00000000       5.48999977     -0.157000005       1.20303202       1.68123126    
   2.10093188       5.07209921     -0.157000005      0.982295275       1.70621943    
   1.82441294       4.40452194     -0.246999994      0.982295275       1.70621943    
  0.930077016       4.67581606     -0.246999994      0.982295275       1.70621943    
   1.07104599       5.38451099     -0.157000005      0.982295275       1.70621943    
   3.05008101       4.56476784     -0.157000005      0.974105597       1.70735025    
   2.64863706       3.96396494     -0.246999994      0.974105597       1.70735025    
   1.82441294       4.40452194     -0.246999994      0.974105597       1.70735025    
   2.10093188       5.07209921     -0.157000005      0.974105597       1.70735025    
   3.88201594       3.88201594     -0.157000005       1.22194409       1.67947209    
   3.37107491       3.37107491     -0.246999994       1.22194409       1.67947209    
   2.64863706       3.96396494     -0.246999994       1.22194409       1.67947209    
   3.05008101       4.56476784     -0.157000005       1.22194409       1.67947209    
   4.56476784       3.05008101     -0.157000005       1.06787729       1.69521594    
   3.96396494       2.64863706     -0.246999994       1.06787729       1.69521594    
   3.37107491       3.37107491     -0.246999994       1.06787729       1.69521594    
   3.88201594       3.88201594     -0.157000005       1.06787729       1.69521594    
   5.07209921       2.10093188     -0.157000005       1.09365988       1.69224536    
   4.40452194       1.82441294     -0.246999994       1.09365988       1.69224536    
   3.96396494       2.64863706     -0.246999994       1.09365988       1.69224536    
   4.56476784       3.05008101     -0.157000005       1.09365988       1.69224536    
   5.38451099       1.07104599     -0.157000005      0.914425850       1.71625841    
   4.67581606      0.930077016     -0.246999994      0.914425850       1.71625841    
   4.40452194       1.82441294     -0.246999994      0.914425850       1.71625841    
   5.07209921       2.10093188     -0.157000005      0.914425850       1.71625841    
   5.48999977       0.00000000     -0.157000005      0.886387646       1.72089446    
   4.76741982       0.00000000     -0.246999994      0.886387646       1.72089446    
   4.67581606      0.930077016     -0.246999994      0.886387646       1.72089446    
   5.38451099       1.07104599     -0.157000005      0.886387646       1.72089446    
   5.38451099      -1.07104599     -0.157000005      0.888289809       1.72056139    
   4.67581606     -0.930077016     -0.246999994      0.888289809       1.72056139    
   4.76741982       0.00000000     -0.246999994      0.888289809       1.72056139    
   5.48999977       0.00000000     -0.157000005      0.888289809       1.72056139    
   5.07209921      -2.10093188     -0.157000005      0.891533613       1.72000277    
   4.40452194      -1.82441294     -0.246999994      0.891533613       1.72000277    
   4.67581606     -0.930077016     -0.246999994      0.891533613       1.72000277    
   5.38451099      -1.07104599     -0.157000005      0.891533613       1.72000277    
   4.56476784      -3.05008101     -0.157000005      0.897932410       1.71892226    
   3.96396494      -2.64863706     -0.246999994      0.897932410       1.71892226    
   4.40452194      -1.82441294     -0.246999994      0.897932410       1.71892226    
   5.07209921      -2.10093188     -0.157000005      0.897932410       1.71892226    
   3.88201594      -3.88201594     -0.157000005      0.931940794       1.71346748    
   3.37107491      -3.37107491     -0.246999994      0.931940794       1.71346748    
   3.96396494      -2.64863706     -0.246999994      0.931940794       1.71346748    
   4.56476784      -3.05008101     -0.157000005      0.931940794       1.71346748    
   3.05008101      -4.56476784     -0.157000005       1.16191280       1.68504715    
   2.64863706      -3.96396494     -0.246999994       1.16191280       1.68504715    
   3.37107491      -3.37107491     -0.246999994       1.16191280       1.68504715    
   3.88201594      -3.88201594     -0.157000005       1.16191280       1.68504715    
   2.10093188      -5.07209921     -0.157000005      0.943855584       1.71164930    
   1.82441294      -4.40452194     -0.246999994      0.943855584       1.71164930    
   2.64863706      -3.96396494     -0.246999994      0.943855584       1.71164930    
   3.05008101      -4.56476784     -0.157000005      0.943855584       1.71164930    
   1.07104599      -5.38451099     -0.157000005      0.904673696       1.71780682    
  0.930077016      -4.67581606     -0.246999994      0.904673696       1.71780682    
   1.82441294      -4.40452194     -0.246999994      0.904673696       1.71780682    
   2.10093188      -5.07209921     -0.157000005      0.904673696       1.71780682    
   0.00000000      -1.87709999     -0.606999993      0.281613648       2.04410434    
   0.00000000      -1.36500001     -0.606999993      0.281613648       2.04410434    
  0.266297996      -1.33877206     -0.606999993      0.281613648       2.04410434    
  0.366203994      -1.84103203     -0.606999993      0.281613648       2.04410434    
   0.00000000      -1.87709999     -0.606999993      0.429099739       1.87284386    
   0.00000000      -2.59967995     -0.517000020      0.429099739       1.87284386    
 -0.507171988      -2.54972792     -0.517000020      0.429099739       1.87284386    
 -0.366203994      -1.84103203     -0.606999993      0.429099739       1.87284386    
 -0.366203994      -1.84103203     -0.606999993      0.276322693       2.05394673    
 -0.266297996      -1.33877206     -0.606999993      0.276322693       2.05394673    
   0.00000000      -1.36500001     -0.606999993      0.276322693       2.05394673    
   0.00000000      -1.87709999     -0.606999993      0.276322693       2.05394673    
 -0.366203994      -1.84103203     -0.606999993      0.425588131       1.87541878    
 -0.507171988      -2.54972792     -0.517000020      0.425588131       1.87541878    
 -0.994853973      -2.40179110     -0.517000020      0.425588131       1.87541878    
 -0.718334973      -1.73421395     -0.606999993      0.425588131       1.87541878    
 -0.718334973      -1.73421395     -0.606999993      0.270405382       2.06546402    
 -0.522363007      -1.26109600     -0.606999993      0.270405382       2.06546402    
 -0.266297996      -1.33877206     -0.606999993      0.270405382       2.06546402    
 -0.366203994      -1.84103203     -0.606999993      0.270405382       2.06546402    
 -0.718334973      -1.73421395     -0.606999993      0.421508342       1.87846482    
 -0.994853973      -2.40179110     -0.517000020      0.421508342       1.87846482    
  -1.44430494      -2.16155505     -0.517000020      0.421508342       1.87846482    
  -1.04286098      -1.56075203     -0.606999993      0.421508342       1.87846482    
  -1.04286098      -1.56075203     -0.606999993      0.264157891       2.07826853    
 -0.758352995      -1.13495600     -0.606999993      0.264157891       2.07826853    
 -0.522363007      -1.26109600     -0.606999993      0.264157891       2.07826853    
 -0.718334973      -1.73421395     -0.606999993      0.264157891       2.07826853    
  -1.04286098      -1.56075203     -0.606999993      0.418065399       1.88109601    
  -1.44430494      -2.16155505     -0.517000020      0.418065399       1.88109601    
  -1.83825099      -1.83825099     -0.517000020      0.418065399       1.88109601    
  -1.32730997      -1.32730997     -0.606999993      0.418065399       1.88109601    
  -1.32730997      -1.32730997     -0.606999993      0.258977205       2.08943486    
 -0.965201020     -0.965201020     -0.606999993      0.258977205       2.08943486    
 -0.758352995      -1.13495600     -0.606999993      0.258977205       2.08943486    
  -1.04286098      -1.56075203     -0.606999993      0.258977205       2.08943486    
  -1.32730997      -1.32730997     -0.606999993      0.417330980       1.88167810    
  -1.83825099      -1.83825099     -0.517000020      0.417330980       1.88167810    
  -2.16155505      -1.44430494     -0.517000020      0.417330980       1.88167810    
  -1.56075203      -1.04286098     -0.606999993      0.417330980       1.88167810    
  -1.56075203      -1.04286098     -0.606999993      0.256281227       2.09546494    
  -1.13495600     -0.758352995     -0.606999993      0.256281227       2.09546494    
 -0.965201020     -0.965201020     -0.606999993      0.256281227       2.09546494    
  -1.32730997      -1.32730997     -0.606999993      0.256281227       2.09546494    
  -1.56075203      -1.04286098     -0.606999993      0.421182543       1.87876022    
  -2.16155505      -1.44430494     -0.517000020      0.421182543       1.87876022    
  -2.40179110     -0.994853973     -0.517000020      0.421182543       1.87876022    
  -1.73421395     -0.718334973     -0.606999993      0.421182543       1.87876022    
  -1.73421395     -0.718334973     -0.606999993      0.258666784       2.09014988    
  -1.26109600     -0.522363007     -0.606999993      0.258666784       2.09014988    
  -1.13495600     -0.758352995     -0.606999993      0.258666784       2.09014988    
  -1.56075203      -1.04286098     -0.606999993      0.258666784       2.09014988    
  -1.73421395     -0.718334973     -0.606999993      0.429073185       1.87292540    
  -2.40179110     -0.994853973     -0.517000020      0.429073185       1.87292540    
  -2.54972792     -0.507171988     -0.517000020      0.429073185       1.87292540    
  -1.84103203     -0.366203994     -0.606999993      0.429073185       1.87292540    
  -1.84103203     -0.366203994     -0.606999993      0.264250576       2.07812142    
  -1.33877206     -0.266297996     -0.606999993      0.264250576       2.07812142    
  -1.26109600     -0.522363007     -0.606999993      0.264250576       2.07812142    
  -1.73421395     -0.718334973     -0.606999993      0.264250576       2.07812142    
  -1.84103203     -0.366203994     -0.606999993      0.439286858       1.86569774    
  -2.54972792     -0.507171988     -0.517000020      0.439286858       1.86569774    
  -2.59967995       0.00000000     -0.517000020      0.439286858       1.86569774    
  -1.87709999       0.00000000     -0.606999993      0.439286858       1.86569774    
  -1.87709999       0.00000000     -0.606999993      0.271498114       2.06335187    
  -1.36500001       0.00000000     -0.606999993      0.271498114       2.06335187    
  -1.33877206     -0.266297996     -0.606999993      0.271498114       2.06335187    
  -1.84103203     -0.366203994     -0.606999993      0.271498114       2.06335187    
  -1.87709999       0.00000000     -0.606999993      0.449277788       1.85896063    
  -2.59967995       0.00000000     -0.517000020      0.449277788       1.85896063    
  -2.54972792      0.507171988     -0.517000020      0.449277788       1.85896063    
  -1.84103203      0.366203994     -0.606999993      0.449277788       1.85896063    
  -1.84103203      0.366203994     -0.606999993      0.279193103       2.04862595    
  -1.33877206      0.266297996     -0.606999993      0.279193103       2.04862595    
  -1.36500001       0.00000000     -0.606999993      0.279193103       2.04862595    
  -1.87709999       0.00000000     -0.606999993      0.279193103       2.04862595    
  -1.84103203      0.366203994     -0.606999993      0.457356125       1.85374308    
  -2.54972792      0.507171988     -0.517000020      0.457356125       1.85374308    
  -2.40179110      0.994853973     -0.517000020      0.457356125       1.85374308    
  -1.73421395      0.718334973     -0.606999993      0.457356125       1.85374308    
  -1.73421395      0.718334973     -0.606999993      0.286614597       2.03526902    
  -1.26109600      0.522363007     -0.606999993      0.286614597       2.03526902    
  -1.33877206      0.266297996     -0.606999993      0.286614597       2.03526902    
  -1.84103203      0.366203994     -0.606999993      0.286614597       2.03526902    
  -1.73421395      0.718334973     -0.606999993      0.462661803       1.85042286    
  -2.40179110      0.994853973     -0.517000020      0.462661803       1.85042286    
  -2.16155505       1.44430494     -0.517000020      0.462661803       1.85042286    
  -1.56075203       1.04286098     -0.606999993      0.462661803       1.85042286    
  -1.56075203       1.04286098     -0.606999993      0.292687982       2.02490711    
  -1.13495600      0.758352995     -0.606999993      0.292687982       2.02490711    
  -1.26109600      0.522363007     -0.606999993      0.292687982       2.02490711    
  -1.73421395      0.718334973     -0.606999993      0.292687982       2.02490711    
  -1.56075203       1.04286098     -0.606999993      0.465337247       1.84877443    
  -2.16155505       1.44430494     -0.517000020      0.465337247       1.84877443    
  -1.83825099       1.83825099     -0.517000020      0.465337247       1.84877443    
  -1.32730997       1.32730997     -0.606999993      0.465337247       1.84877443    
  -1.32730997       1.32730997     -0.606999993      0.296971262       2.01787710    
 -0.965201020      0.965201020     -0.606999993      0.296971262       2.01787710    
  -1.13495600      0.758352995     -0.606999993      0.296971262       2.01787710    
  -1.56075203       1.04286098     -0.606999993      0.296971262       2.01787710    
  -1.32730997       1.32730997     -0.606999993      0.465934843       1.84840477    
  -1.83825099       1.83825099     -0.517000020      0.465934843       1.84840477    
  -1.44430494       2.16155505     -0.517000020      0.465934843       1.84840477    
  -1.04286098       1.56075203     -0.606999993      0.465934843       1.84840477    
  -1.04286098       1.56075203     -0.606999993      0.299485773       2.01384997    
 -0.758352995       1.13495600     -0.606999993      0.299485773       2.01384997    
 -0.965201020      0.965201020     -0.606999993      0.299485773       2.01384997    
  -1.32730997       1.32730997     -0.606999993      0.299485773       2.01384997    
  -1.04286098       1.56075203     -0.606999993      0.465569407       1.84862328    
  -1.44430494       2.16155505     -0.517000020      0.465569407       1.84862328    
 -0.994853973       2.40179110     -0.517000020      0.465569407       1.84862328    
 -0.718334973       1.73421395     -0.606999993      0.465569407       1.84862328    
 -0.718334973       1.73421395     -0.606999993      0.300234079       2.01266050    
 -0.522363007       1.26109600     -0.606999993      0.300234079       2.01266050    
 -0.758352995       1.13495600     -0.606999993      0.300234079       2.01266050    
  -1.04286098       1.56075203     -0.606999993      0.300234079       2.01266050    
 -0.718334973       1.73421395     -0.606999993      0.463995665       1.84959018    
 -0.994853973       2.40179110     -0.517000020      0.463995665       1.84959018    
 -0.507171988       2.54972792     -0.517000020      0.463995665       1.84959018    
 -0.366203994       1.84103203     -0.606999993      0.463995665       1.84959018    
 -0.366203994       1.84103203     -0.606999993      0.299530178       2.01376724    
 -0.266297996       1.33877206     -0.606999993      0.299530178       2.01376724    
 -0.522363007       1.26109600     -0.606999993      0.299530178       2.01376724    
 -0.718334973       1.73421395     -0.606999993      0.299530178       2.01376724    
 -0.366203994       1.84103203     -0.606999993      0.461234808       1.85130429    
 -0.507171988       2.54972792     -0.517000020      0.461234808       1.85130429    
   0.00000000       2.59967995     -0.517000020      0.461234808       1.85130429    
   0.00000000       1.87709999     -0.606999993      0.461234808       1.85130429    
   0.00000000       1.87709999     -0.606999993      0.297069192       2.01769733    
   0.00000000       1.36500001     -0.606999993      0.297069192       2.01769733    
 -0.266297996       1.33877206     -0.606999993      0.297069192       2.01769733    
 -0.366203994       1.84103203     -0.606999993      0.297069192       2.01769733    
   0.00000000       1.87709999     -0.606999993      0.457608014       1.85357833    
   0.00000000       2.59967995     -0.517000020      0.457608014       1.85357833    
  0.507171988       2.54972792     -0.517000020      0.457608014       1.85357833    
  0.366203994       1.84103203     -0.606999993      0.457608014       1.85357833    
  0.366203994       1.84103203     -0.606999993      0.293676376       2.02323103    
  0.266297996       1.33877206     -0.606999993      0.293676376       2.02323103    
   0.00000000       1.36500001     -0.606999993      0.293676376       2.02323103    
   0.00000000       1.87709999     -0.606999993      0.293676376       2.02323103    
  0.366203994       1.84103203     -0.606999993      0.453069597       1.85647225    
  0.507171988       2.54972792     -0.517000020      0.453069597       1.85647225    
  0.994853973       2.40179110     -0.517000020      0.453069597       1.85647225    
  0.718334973       1.73421395     -0.606999993      0.453069597       1.85647225    
  0.718334973       1.73421395     -0.606999993      0.289216459       2.03072405    
  0.522363007       1.26109600     -0.606999993      0.289216459       2.03072405    
  0.266297996       1.33877206     -0.606999993      0.289216459       2.03072405    
  0.366203994       1.84103203     -0.606999993      0.289216459       2.03072405    
  0.718334973       1.73421395     -0.606999993      0.448013961       1.85977054    
  0.994853973       2.40179110     -0.517000020      0.448013961       1.85977054    
   1.44430494       2.16155505     -0.517000020      0.448013961       1.85977054    
   1.04286098       1.56075203     -0.606999993      0.448013961       1.85977054    
   1.04286098       1.56075203     -0.606999993      0.283605546       2.04053497    
  0.758352995       1.13495600     -0.606999993      0.283605546       2.04053497    
  0.522363007       1.26109600     -0.606999993      0.283605546       2.04053497    
  0.718334973       1.73421395     -0.606999993      0.283605546       2.04053497    
   1.04286098       1.56075203     -0.606999993      0.442847520       1.86323011    
   1.44430494       2.16155505     -0.517000020      0.442847520       1.86323011    
   1.83825099       1.83825099     -0.517000020      0.442847520       1.86323011    
   1.32730997       1.32730997     -0.606999993      0.442847520       1.86323011    
   1.32730997       1.32730997     -0.606999993      0.277605891       2.05152965    
  0.965201020      0.965201020     -0.606999993      0.277605891       2.05152965    
  0.758352995       1.13495600     -0.606999993      0.277605891       2.05152965    
   1.04286098       1.56075203     -0.606999993      0.277605891       2.05152965    
   1.32730997       1.32730997     -0.606999993      0.437274694       1.86706269    
   1.83825099       1.83825099     -0.517000020      0.437274694       1.86706269    
   2.16155505       1.44430494     -0.517000020      0.437274694       1.86706269    
   1.56075203       1.04286098     -0.606999993      0.437274694       1.86706269    
   1.56075203       1.04286098     -0.606999993      0.271824270       2.06265116    
   1.13495600      0.758352995     -0.606999993      0.271824270       2.06265116    
  0.965201020      0.965201020     -0.606999993      0.271824270       2.06265116    
   1.32730997       1.32730997     -0.606999993      0.271824270       2.06265116    
   1.56075203       1.04286098     -0.606999993      0.432647377       1.87031889    
   2.16155505       1.44430494     -0.517000020      0.432647377       1.87031889    
   2.40179110      0.994853973     -0.517000020      0.432647377       1.87031889    
   1.73421395      0.718334973     -0.606999993      0.432647377       1.87031889    
   1.73421395      0.718334973     -0.606999993      0.268683106       2.06891632    
   1.26109600      0.522363007     -0.606999993      0.268683106       2.06891632    
   1.13495600      0.758352995     -0.606999993      0.268683106       2.06891632    
   1.56075203       1.04286098     -0.606999993      0.268683106       2.06891632    
   1.73421395      0.718334973     -0.606999993      0.429351568       1.87267339    
   2.40179110      0.994853973     -0.517000020      0.429351568       1.87267339    
   2.54972792      0.507171988     -0.517000020      0.429351568       1.87267339    
   1.84103203      0.366203994     -0.606999993      0.429351568       1.87267339    
   1.84103203      0.366203994     -0.606999993      0.270693600       2.06486535    
   1.33877206      0.266297996     -0.606999993      0.270693600       2.06486535    
   1.26109600      0.522363007     -0.606999993      0.270693600       2.06486535    
   1.73421395      0.718334973     -0.606999993      0.270693600       2.06486535    
   1.84103203      0.366203994     -0.606999993      0.428132236       1.87354481    
   2.54972792      0.507171988     -0.517000020      0.428132236       1.87354481    
   2.59967995       0.00000000     -0.517000020      0.428132236       1.87354481    
   1.87709999       0.00000000     -0.606999993      0.428132236       1.87354481    
   1.87709999       0.00000000     -0.606999993      0.274671555       2.05706811    
   1.36500001       0.00000000     -0.606999993      0.274671555       2.05706811    
   1.33877206      0.266297996     -0.606999993      0.274671555       2.05706811    
   1.84103203      0.366203994     -0.606999993      0.274671555       2.05706811    
   1.87709999       0.00000000     -0.606999993      0.428514898       1.87325394    
   2.59967995       0.00000000     -0.517000020      0.428514898       1.87325394    
   2.54972792     -0.507171988     -0.517000020      0.428514898       1.87325394    
   1.84103203     -0.366203994     -0.606999993      0.428514898       1.87325394    
   1.84103203     -0.366203994     -0.606999993      0.278978914       2.04891872    
   1.33877206     -0.266297996     -0.606999993      0.278978914       2.04891872    
   1.36500001       0.00000000     -0.606999993      0.278978914       2.04891872    
   1.87709999       0.00000000     -0.606999993      0.278978914       2.04891872    
   1.84103203     -0.366203994     -0.606999993      0.430128008       1.87207985    
   2.54972792     -0.507171988     -0.517000020      0.430128008       1.87207985    
   2.40179110     -0.994853973     -0.517000020      0.430128008       1.87207985    
   1.73421395     -0.718334973     -0.606999993      0.430128008       1.87207985    
   1.73421395     -0.718334973     -0.606999993      0.283089876       2.04140472    
   1.26109600     -0.522363007     -0.606999993      0.283089876       2.04140472    
   1.33877206     -0.266297996     -0.606999993      0.283089876       2.04140472    
   1.84103203     -0.366203994     -0.606999993      0.283089876       2.04140472    
   1.73421395     -0.718334973     -0.606999993      0.432348400       1.87047994    
   2.40179110     -0.994853973     -0.517000020      0.432348400       1.87047994    
   2.16155505      -1.44430494     -0.517000020      0.432348400       1.87047994    
   1.56075203      -1.04286098     -0.606999993      0.432348400       1.87047994    
   1.56075203      -1.04286098     -0.606999993      0.286550999       2.03527141    
   1.13495600     -0.758352995     -0.606999993      0.286550999       2.03527141    
   1.26109600     -0.522363007     -0.606999993      0.286550999       2.03527141    