 VARIABLES="X" "Y" "Z" "abs(p) (Pa)" "angle(p) (rad)"
ZONE N=   2709,E =    2358, F=FEPOINT, ET=QUADRILATERAL
   0.00000000      -5.48999977     -0.157000005       57.5576897      0.502834201    
   0.00000000      -4.76741982     -0.246999994       57.5576897      0.502834201    
  0.930077016      -4.67581606     -0.246999994       57.5576897      0.502834201    
   1.07104599      -5.38451099     -0.157000005       57.5576897      0.502834201    
  -1.07104599      -5.38451099     -0.157000005       57.5071983      0.504232705    
 -0.930077016      -4.67581606     -0.246999994       57.5071983      0.504232705    
   0.00000000      -4.76741982     -0.246999994       57.5071983      0.504232705    
   0.00000000      -5.48999977     -0.157000005       57.5071983      0.504232705    
  -2.10093188      -5.07209921     -0.157000005       58.7234116      0.449085742    
  -1.82441294      -4.40452194     -0.246999994       58.7234116      0.449085742    
 -0.930077016      -4.67581606     -0.246999994       58.7234116      0.449085742    
  -1.07104599      -5.38451099     -0.157000005       58.7234116      0.449085742    
  -3.05008101      -4.56476784     -0.157000005       51.4193535      0.493649095    
  -2.64863706      -3.96396494     -0.246999994       51.4193535      0.493649095    
  -1.82441294      -4.40452194     -0.246999994       51.4193535      0.493649095    
  -2.10093188      -5.07209921     -0.157000005       51.4193535      0.493649095    
  -3.88201594      -3.88201594     -0.157000005       43.9950294      0.515025675    
  -3.37107491      -3.37107491     -0.246999994       43.9950294      0.515025675    
  -2.64863706      -3.96396494     -0.246999994       43.9950294      0.515025675    
  -3.05008101      -4.56476784     -0.157000005       43.9950294      0.515025675    
  -4.56476784      -3.05008101     -0.157000005       38.0698395      0.408106148    
  -3.96396494      -2.64863706     -0.246999994       38.0698395      0.408106148    
  -3.37107491      -3.37107491     -0.246999994       38.0698395      0.408106148    
  -3.88201594      -3.88201594     -0.157000005       38.0698395      0.408106148    
  -5.07209921      -2.10093188     -0.157000005       27.3650970      0.509185016    
  -4.40452194      -1.82441294     -0.246999994       27.3650970      0.509185016    
  -3.96396494      -2.64863706     -0.246999994       27.3650970      0.509185016    
  -4.56476784      -3.05008101     -0.157000005       27.3650970      0.509185016    
  -5.38451099      -1.07104599     -0.157000005       16.2620735      0.457712859    
  -4.67581606     -0.930077016     -0.246999994       16.2620735      0.457712859    
  -4.40452194      -1.82441294     -0.246999994       16.2620735      0.457712859    
  -5.07209921      -2.10093188     -0.157000005       16.2620735      0.457712859    
  -5.48999977       0.00000000     -0.157000005       5.93596363      0.440289319    
  -4.76741982       0.00000000     -0.246999994       5.93596363      0.440289319    
  -4.67581606     -0.930077016     -0.246999994       5.93596363      0.440289319    
  -5.38451099      -1.07104599     -0.157000005       5.93596363      0.440289319    
  -5.38451099       1.07104599     -0.157000005       6.66784096      -2.51242280    
  -4.67581606      0.930077016     -0.246999994       6.66784096      -2.51242280    
  -4.76741982       0.00000000     -0.246999994       6.66784096      -2.51242280    
  -5.48999977       0.00000000     -0.157000005       6.66784096      -2.51242280    
  -5.07209921       2.10093188     -0.157000005       18.0261917      -2.69470048    
  -4.40452194       1.82441294     -0.246999994       18.0261917      -2.69470048    
  -4.67581606      0.930077016     -0.246999994       18.0261917      -2.69470048    
  -5.38451099       1.07104599     -0.157000005       18.0261917      -2.69470048    
  -4.56476784       3.05008101     -0.157000005       29.7136116      -2.65219116    
  -3.96396494       2.64863706     -0.246999994       29.7136116      -2.65219116    
  -4.40452194       1.82441294     -0.246999994       29.7136116      -2.65219116    
  -5.07209921       2.10093188     -0.157000005       29.7136116      -2.65219116    
  -3.88201594       3.88201594     -0.157000005       36.4829292      -2.64909530    
  -3.37107491       3.37107491     -0.246999994       36.4829292      -2.64909530    
  -3.96396494       2.64863706     -0.246999994       36.4829292      -2.64909530    
  -4.56476784       3.05008101     -0.157000005       36.4829292      -2.64909530    
  -3.05008101       4.56476784     -0.157000005       48.3436089      -2.66812825    
  -2.64863706       3.96396494     -0.246999994       48.3436089      -2.66812825    
  -3.37107491       3.37107491     -0.246999994       48.3436089      -2.66812825    
  -3.88201594       3.88201594     -0.157000005       48.3436089      -2.66812825    
  -2.10093188       5.07209921     -0.157000005       50.6382370      -2.64909887    
  -1.82441294       4.40452194     -0.246999994       50.6382370      -2.64909887    
  -2.64863706       3.96396494     -0.246999994       50.6382370      -2.64909887    
  -3.05008101       4.56476784     -0.157000005       50.6382370      -2.64909887    
  -1.07104599       5.38451099     -0.157000005       59.6065598      -2.67665172    
 -0.930077016       4.67581606     -0.246999994       59.6065598      -2.67665172    
  -1.82441294       4.40452194     -0.246999994       59.6065598      -2.67665172    
  -2.10093188       5.07209921     -0.157000005       59.6065598      -2.67665172    
   0.00000000       5.48999977     -0.157000005       57.1361275      -2.64830399    
   0.00000000       4.76741982     -0.246999994       57.1361275      -2.64830399    
 -0.930077016       4.67581606     -0.246999994       57.1361275      -2.64830399    
  -1.07104599       5.38451099     -0.157000005       57.1361275      -2.64830399    
   1.07104599       5.38451099     -0.157000005       61.6722984      -2.68512273    
  0.930077016       4.67581606     -0.246999994       61.6722984      -2.68512273    
   0.00000000       4.76741982     -0.246999994       61.6722984      -2.68512273    
   0.00000000       5.48999977     -0.157000005       61.6722984      -2.68512273    
   2.10093188       5.07209921     -0.157000005       55.2717400      -2.64522862    
   1.82441294       4.40452194     -0.246999994       55.2717400      -2.64522862    
  0.930077016       4.67581606     -0.246999994       55.2717400      -2.64522862    
   1.07104599       5.38451099     -0.157000005       55.2717400      -2.64522862    
   3.05008101       4.56476784     -0.157000005       50.8208199      -2.64163566    
   2.64863706       3.96396494     -0.246999994       50.8208199      -2.64163566    
   1.82441294       4.40452194     -0.246999994       50.8208199      -2.64163566    
   2.10093188       5.07209921     -0.157000005       50.8208199      -2.64163566    
   3.88201594       3.88201594     -0.157000005       47.6182060      -2.68943596    
   3.37107491       3.37107491     -0.246999994       47.6182060      -2.68943596    
   2.64863706       3.96396494     -0.246999994       47.6182060      -2.68943596    
   3.05008101       4.56476784     -0.157000005       47.6182060      -2.68943596    
   4.56476784       3.05008101     -0.157000005       36.5159187      -2.70478201    
   3.96396494       2.64863706     -0.246999994       36.5159187      -2.70478201    
   3.37107491       3.37107491     -0.246999994       36.5159187      -2.70478201    
   3.88201594       3.88201594     -0.157000005       36.5159187      -2.70478201    
   5.07209921       2.10093188     -0.157000005       29.0468826      -2.69836307    
   4.40452194       1.82441294     -0.246999994       29.0468826      -2.69836307    
   3.96396494       2.64863706     -0.246999994       29.0468826      -2.69836307    
   4.56476784       3.05008101     -0.157000005       29.0468826      -2.69836307    
   5.38451099       1.07104599     -0.157000005       16.2649689      -2.67716599    
   4.67581606      0.930077016     -0.246999994       16.2649689      -2.67716599    
   4.40452194       1.82441294     -0.246999994       16.2649689      -2.67716599    
   5.07209921       2.10093188     -0.157000005       16.2649689      -2.67716599    
   5.48999977       0.00000000     -0.157000005       5.73677015      -2.64281821    
   4.76741982       0.00000000     -0.246999994       5.73677015      -2.64281821    
   4.67581606      0.930077016     -0.246999994       5.73677015      -2.64281821    
   5.38451099       1.07104599     -0.157000005       5.73677015      -2.64281821    
   5.38451099      -1.07104599     -0.157000005       6.10774946      0.611704707    
   4.67581606     -0.930077016     -0.246999994       6.10774946      0.611704707    
   4.76741982       0.00000000     -0.246999994       6.10774946      0.611704707    
   5.48999977       0.00000000     -0.157000005       6.10774946      0.611704707    
   5.07209921      -2.10093188     -0.157000005       16.8291149      0.504497349    
   4.40452194      -1.82441294     -0.246999994       16.8291149      0.504497349    
   4.67581606     -0.930077016     -0.246999994       16.8291149      0.504497349    
   5.38451099      -1.07104599     -0.157000005       16.8291149      0.504497349    
   4.56476784      -3.05008101     -0.157000005       27.6796093      0.526285827    
   3.96396494      -2.64863706     -0.246999994       27.6796093      0.526285827    
   4.40452194      -1.82441294     -0.246999994       27.6796093      0.526285827    
   5.07209921      -2.10093188     -0.157000005       27.6796093      0.526285827    
   3.88201594      -3.88201594     -0.157000005       36.5222244      0.503108740    
   3.37107491      -3.37107491     -0.246999994       36.5222244      0.503108740    
   3.96396494      -2.64863706     -0.246999994       36.5222244      0.503108740    
   4.56476784      -3.05008101     -0.157000005       36.5222244      0.503108740    
   3.05008101      -4.56476784     -0.157000005       48.1539879      0.465607136    
   2.64863706      -3.96396494     -0.246999994       48.1539879      0.465607136    
   3.37107491      -3.37107491     -0.246999994       48.1539879      0.465607136    
   3.88201594      -3.88201594     -0.157000005       48.1539879      0.465607136    
   2.10093188      -5.07209921     -0.157000005       51.0093689      0.500938654    
   1.82441294      -4.40452194     -0.246999994       51.0093689      0.500938654    
   2.64863706      -3.96396494     -0.246999994       51.0093689      0.500938654    
   3.05008101      -4.56476784     -0.157000005       51.0093689      0.500938654    
   1.07104599      -5.38451099     -0.157000005       55.5757179      0.509890854    
  0.930077016      -4.67581606     -0.246999994       55.5757179      0.509890854    
   1.82441294      -4.40452194     -0.246999994       55.5757179      0.509890854    
   2.10093188      -5.07209921     -0.157000005       55.5757179      0.509890854    
   0.00000000      -1.87709999     -0.606999993       49.9806175       1.59453309    
   0.00000000      -1.36500001     -0.606999993       49.9806175       1.59453309    
  0.266297996      -1.33877206     -0.606999993       49.9806175       1.59453309    
  0.366203994      -1.84103203     -0.606999993       49.9806175       1.59453309    
   0.00000000      -1.87709999     -0.606999993       67.2041779      -1.59560883    
   0.00000000      -2.59967995     -0.517000020       67.2041779      -1.59560883    
 -0.507171988      -2.54972792     -0.517000020       67.2041779      -1.59560883    
 -0.366203994      -1.84103203     -0.606999993       67.2041779      -1.59560883    
 -0.366203994      -1.84103203     -0.606999993       47.5440750       1.59582269    
 -0.266297996      -1.33877206     -0.606999993       47.5440750       1.59582269    
   0.00000000      -1.36500001     -0.606999993       47.5440750       1.59582269    
   0.00000000      -1.87709999     -0.606999993       47.5440750       1.59582269    
 -0.366203994      -1.84103203     -0.606999993       64.9035568      -1.59557509    
 -0.507171988      -2.54972792     -0.517000020       64.9035568      -1.59557509    
 -0.994853973      -2.40179110     -0.517000020       64.9035568      -1.59557509    
 -0.718334973      -1.73421395     -0.606999993       64.9035568      -1.59557509    
 -0.718334973      -1.73421395     -0.606999993       44.7438126       1.59657121    
 -0.522363007      -1.26109600     -0.606999993       44.7438126       1.59657121    
 -0.266297996      -1.33877206     -0.606999993       44.7438126       1.59657121    
 -0.366203994      -1.84103203     -0.606999993       44.7438126       1.59657121    
 -0.718334973      -1.73421395     -0.606999993       59.4761124      -1.59584475    
 -0.994853973      -2.40179110     -0.517000020       59.4761124      -1.59584475    
  -1.44430494      -2.16155505     -0.517000020       59.4761124      -1.59584475    
  -1.04286098      -1.56075203     -0.606999993       59.4761124      -1.59584475    
  -1.04286098      -1.56075203     -0.606999993       41.3907509       1.59642267    
 -0.758352995      -1.13495600     -0.606999993       41.3907509       1.59642267    
 -0.522363007      -1.26109600     -0.606999993       41.3907509       1.59642267    
 -0.718334973      -1.73421395     -0.606999993       41.3907509       1.59642267    
  -1.04286098      -1.56075203     -0.606999993       51.4519272      -1.59628439    
  -1.44430494      -2.16155505     -0.517000020       51.4519272      -1.59628439    
  -1.83825099      -1.83825099     -0.517000020       51.4519272      -1.59628439    
  -1.32730997      -1.32730997     -0.606999993       51.4519272      -1.59628439    
  -1.32730997      -1.32730997     -0.606999993       37.0332794       1.59608996    
 -0.965201020     -0.965201020     -0.606999993       37.0332794       1.59608996    
 -0.758352995      -1.13495600     -0.606999993       37.0332794       1.59608996    
  -1.04286098      -1.56075203     -0.606999993       37.0332794       1.59608996    
  -1.32730997      -1.32730997     -0.606999993       41.4580002      -1.59683251    
  -1.83825099      -1.83825099     -0.517000020       41.4580002      -1.59683251    
  -2.16155505      -1.44430494     -0.517000020       41.4580002      -1.59683251    
  -1.56075203      -1.04286098     -0.606999993       41.4580002      -1.59683251    
  -1.56075203      -1.04286098     -0.606999993       31.3250580       1.59564590    
  -1.13495600     -0.758352995     -0.606999993       31.3250580       1.59564590    
 -0.965201020     -0.965201020     -0.606999993       31.3250580       1.59564590    
  -1.32730997      -1.32730997     -0.606999993       31.3250580       1.59564590    
  -1.56075203      -1.04286098     -0.606999993       30.1710949      -1.59743869    
  -2.16155505      -1.44430494     -0.517000020       30.1710949      -1.59743869    
  -2.40179110     -0.994853973     -0.517000020       30.1710949      -1.59743869    
  -1.73421395     -0.718334973     -0.606999993       30.1710949      -1.59743869    
  -1.73421395     -0.718334973     -0.606999993       24.0459766       1.59526622    
  -1.26109600     -0.522363007     -0.606999993       24.0459766       1.59526622    
  -1.13495600     -0.758352995     -0.606999993       24.0459766       1.59526622    
  -1.56075203      -1.04286098     -0.606999993       24.0459766       1.59526622    
  -1.73421395     -0.718334973     -0.606999993       18.3125343      -1.59758401    
  -2.40179110     -0.994853973     -0.517000020       18.3125343      -1.59758401    
  -2.54972792     -0.507171988     -0.517000020       18.3125343      -1.59758401    
  -1.84103203     -0.366203994     -0.606999993       18.3125343      -1.59758401    
  -1.84103203     -0.366203994     -0.606999993       14.7107592       1.59576762    
  -1.33877206     -0.266297996     -0.606999993       14.7107592       1.59576762    
  -1.26109600     -0.522363007     -0.606999993       14.7107592       1.59576762    
  -1.73421395     -0.718334973     -0.606999993       14.7107592       1.59576762    
  -1.84103203     -0.366203994     -0.606999993       6.51559019      -1.59405112    
  -2.54972792     -0.507171988     -0.517000020       6.51559019      -1.59405112    
  -2.59967995       0.00000000     -0.517000020       6.51559019      -1.59405112    
  -1.87709999       0.00000000     -0.606999993       6.51559019      -1.59405112    
  -1.87709999       0.00000000     -0.606999993       3.28267074       1.60861790    
  -1.36500001       0.00000000     -0.606999993       3.28267074       1.60861790    
  -1.33877206     -0.266297996     -0.606999993       3.28267074       1.60861790    
  -1.84103203     -0.366203994     -0.606999993       3.28267074       1.60861790    
  -1.87709999       0.00000000     -0.606999993       4.84387875       1.52960157    
  -2.59967995       0.00000000     -0.517000020       4.84387875       1.52960157    
  -2.54972792      0.507171988     -0.517000020       4.84387875       1.52960157    
  -1.84103203      0.366203994     -0.606999993       4.84387875       1.52960157    
  -1.84103203      0.366203994     -0.606999993       9.61841011      -1.55731857    
  -1.33877206      0.266297996     -0.606999993       9.61841011      -1.55731857    
  -1.36500001       0.00000000     -0.606999993       9.61841011      -1.55731857    
  -1.87709999       0.00000000     -0.606999993       9.61841011      -1.55731857    
  -1.84103203      0.366203994     -0.606999993       15.6746407       1.53635335    
  -2.54972792      0.507171988     -0.517000020       15.6746407       1.53635335    
  -2.40179110      0.994853973     -0.517000020       15.6746407       1.53635335    
  -1.73421395      0.718334973     -0.606999993       15.6746407       1.53635335    
  -1.73421395      0.718334973     -0.606999993       22.8353291      -1.55431116    
  -1.26109600      0.522363007     -0.606999993       22.8353291      -1.55431116    
  -1.33877206      0.266297996     -0.606999993       22.8353291      -1.55431116    
  -1.84103203      0.366203994     -0.606999993       22.8353291      -1.55431116    
  -1.73421395      0.718334973     -0.606999993       26.0197029       1.53793406    
  -2.40179110      0.994853973     -0.517000020       26.0197029       1.53793406    
  -2.16155505       1.44430494     -0.517000020       26.0197029       1.53793406    
  -1.56075203       1.04286098     -0.606999993       26.0197029       1.53793406    
  -1.56075203       1.04286098     -0.606999993       34.9952583      -1.55360901    
  -1.13495600      0.758352995     -0.606999993       34.9952583      -1.55360901    
  -1.26109600      0.522363007     -0.606999993       34.9952583      -1.55360901    
  -1.73421395      0.718334973     -0.606999993       34.9952583      -1.55360901    
  -1.56075203       1.04286098     -0.606999993       35.8908043       1.53932321    
  -2.16155505       1.44430494     -0.517000020       35.8908043       1.53932321    
  -1.83825099       1.83825099     -0.517000020       35.8908043       1.53932321    
  -1.32730997       1.32730997     -0.606999993       35.8908043       1.53932321    
  -1.32730997       1.32730997     -0.606999993       44.7795830      -1.55302846    
 -0.965201020      0.965201020     -0.606999993       44.7795830      -1.55302846    
  -1.13495600      0.758352995     -0.606999993       44.7795830      -1.55302846    
  -1.56075203       1.04286098     -0.606999993       44.7795830      -1.55302846    
  -1.32730997       1.32730997     -0.606999993       45.1671524       1.54074001    
  -1.83825099       1.83825099     -0.517000020       45.1671524       1.54074001    
  -1.44430494       2.16155505     -0.517000020       45.1671524       1.54074001    
  -1.04286098       1.56075203     -0.606999993       45.1671524       1.54074001    
  -1.04286098       1.56075203     -0.606999993       51.2778740      -1.55214703    
 -0.758352995       1.13495600     -0.606999993       51.2778740      -1.55214703    
 -0.965201020      0.965201020     -0.606999993       51.2778740      -1.55214703    
  -1.32730997       1.32730997     -0.606999993       51.2778740      -1.55214703    
  -1.04286098       1.56075203     -0.606999993       53.5643234       1.54213178    
  -1.44430494       2.16155505     -0.517000020       53.5643234       1.54213178    
 -0.994853973       2.40179110     -0.517000020       53.5643234       1.54213178    
 -0.718334973       1.73421395     -0.606999993       53.5643234       1.54213178    
 -0.718334973       1.73421395     -0.606999993       54.2500343      -1.55080962    
 -0.522363007       1.26109600     -0.606999993       54.2500343      -1.55080962    
 -0.758352995       1.13495600     -0.606999993       54.2500343      -1.55080962    
  -1.04286098       1.56075203     -0.606999993       54.2500343      -1.55080962    
 -0.718334973       1.73421395     -0.606999993       60.4923019       1.54335153    
 -0.994853973       2.40179110     -0.517000020       60.4923019       1.54335153    
 -0.507171988       2.54972792     -0.517000020       60.4923019       1.54335153    
 -0.366203994       1.84103203     -0.606999993       60.4923019       1.54335153    
 -0.366203994       1.84103203     -0.606999993       54.0903130      -1.54908025    
 -0.266297996       1.33877206     -0.606999993       54.0903130      -1.54908025    
 -0.522363007       1.26109600     -0.606999993       54.0903130      -1.54908025    
 -0.718334973       1.73421395     -0.606999993       54.0903130      -1.54908025    
 -0.366203994       1.84103203     -0.606999993       65.1722565       1.54435873    
 -0.507171988       2.54972792     -0.517000020       65.1722565       1.54435873    
   0.00000000       2.59967995     -0.517000020       65.1722565       1.54435873    
   0.00000000       1.87709999     -0.606999993       65.1722565       1.54435873    
   0.00000000       1.87709999     -0.606999993       51.7615891      -1.54724216    
   0.00000000       1.36500001     -0.606999993       51.7615891      -1.54724216    
 -0.266297996       1.33877206     -0.606999993       51.7615891      -1.54724216    
 -0.366203994       1.84103203     -0.606999993       51.7615891      -1.54724216    
   0.00000000       1.87709999     -0.606999993       66.8227844       1.54505539    
   0.00000000       2.59967995     -0.517000020       66.8227844       1.54505539    
  0.507171988       2.54972792     -0.517000020       66.8227844       1.54505539    
  0.366203994       1.84103203     -0.606999993       66.8227844       1.54505539    
  0.366203994       1.84103203     -0.606999993       48.2921677      -1.54545486    
  0.266297996       1.33877206     -0.606999993       48.2921677      -1.54545486    
   0.00000000       1.36500001     -0.606999993       48.2921677      -1.54545486    
   0.00000000       1.87709999     -0.606999993       48.2921677      -1.54545486    
  0.366203994       1.84103203     -0.606999993       65.0539246       1.54540563    
  0.507171988       2.54972792     -0.517000020       65.0539246       1.54540563    
  0.994853973       2.40179110     -0.517000020       65.0539246       1.54540563    
  0.718334973       1.73421395     -0.606999993       65.0539246       1.54540563    
  0.718334973       1.73421395     -0.606999993       44.4187279      -1.54412866    
  0.522363007       1.26109600     -0.606999993       44.4187279      -1.54412866    
  0.266297996       1.33877206     -0.606999993       44.4187279      -1.54412866    
  0.366203994       1.84103203     -0.606999993       44.4187279      -1.54412866    
  0.718334973       1.73421395     -0.606999993       59.9775085       1.54536939    
  0.994853973       2.40179110     -0.517000020       59.9775085       1.54536939    
   1.44430494       2.16155505     -0.517000020       59.9775085       1.54536939    
   1.04286098       1.56075203     -0.606999993       59.9775085       1.54536939    
   1.04286098       1.56075203     -0.606999993       40.3141556      -1.54377174    
  0.758352995       1.13495600     -0.606999993       40.3141556      -1.54377174    
  0.522363007       1.26109600     -0.606999993       40.3141556      -1.54377174    
  0.718334973       1.73421395     -0.606999993       40.3141556      -1.54377174    
   1.04286098       1.56075203     -0.606999993       52.1012955       1.54507637    
   1.44430494       2.16155505     -0.517000020       52.1012955       1.54507637    
   1.83825099       1.83825099     -0.517000020       52.1012955       1.54507637    
   1.32730997       1.32730997     -0.606999993       52.1012955       1.54507637    
   1.32730997       1.32730997     -0.606999993       35.6227875      -1.54375458    
  0.965201020      0.965201020     -0.606999993       35.6227875      -1.54375458    
  0.758352995       1.13495600     -0.606999993       35.6227875      -1.54375458    
   1.04286098       1.56075203     -0.606999993       35.6227875      -1.54375458    
   1.32730997       1.32730997     -0.606999993       42.1778030       1.54448831    
   1.83825099       1.83825099     -0.517000020       42.1778030       1.54448831    
   2.16155505       1.44430494     -0.517000020       42.1778030       1.54448831    
   1.56075203       1.04286098     -0.606999993       42.1778030       1.54448831    
   1.56075203       1.04286098     -0.606999993       29.6508293      -1.54374599    
   1.13495600      0.758352995     -0.606999993       29.6508293      -1.54374599    
  0.965201020      0.965201020     -0.606999993       29.6508293      -1.54374599    
   1.32730997       1.32730997     -0.606999993       29.6508293      -1.54374599    
   1.56075203       1.04286098     -0.606999993       31.0140266       1.54386866    
   2.16155505       1.44430494     -0.517000020       31.0140266       1.54386866    
   2.40179110      0.994853973     -0.517000020       31.0140266       1.54386866    
   1.73421395      0.718334973     -0.606999993       31.0140266       1.54386866    
   1.73421395      0.718334973     -0.606999993       21.7888603      -1.54291248    
   1.26109600      0.522363007     -0.606999993       21.7888603      -1.54291248    
   1.13495600      0.758352995     -0.606999993       21.7888603      -1.54291248    
   1.56075203       1.04286098     -0.606999993       21.7888603      -1.54291248    
   1.73421395      0.718334973     -0.606999993       19.3732395       1.54384160    
   2.40179110      0.994853973     -0.517000020       19.3732395       1.54384160    
   2.54972792      0.507171988     -0.517000020       19.3732395       1.54384160    
   1.84103203      0.366203994     -0.606999993       19.3732395       1.54384160    
   1.84103203      0.366203994     -0.606999993       11.8938217      -1.53864419    
   1.33877206      0.266297996     -0.606999993       11.8938217      -1.53864419    
   1.26109600      0.522363007     -0.606999993       11.8938217      -1.53864419    
   1.73421395      0.718334973     -0.606999993       11.8938217      -1.53864419    
   1.84103203      0.366203994     -0.606999993       7.77178621       1.54722726    
   2.54972792      0.507171988     -0.517000020       7.77178621       1.54722726    
   2.59967995       0.00000000     -0.517000020       7.77178621       1.54722726    
   1.87709999       0.00000000     -0.606999993       7.77178621       1.54722726    
   1.87709999       0.00000000     -0.606999993      0.215403244     -0.877676606    
   1.36500001       0.00000000     -0.606999993      0.215403244     -0.877676606    
   1.33877206      0.266297996     -0.606999993      0.215403244     -0.877676606    
   1.84103203      0.366203994     -0.606999993      0.215403244     -0.877676606    
   1.87709999       0.00000000     -0.606999993       3.56259322      -1.61687815    
   2.59967995       0.00000000     -0.517000020       3.56259322      -1.61687815    
   2.54972792     -0.507171988     -0.517000020       3.56259322      -1.61687815    
   1.84103203     -0.366203994     -0.606999993       3.56259322      -1.61687815    
   1.84103203     -0.366203994     -0.606999993       12.6429596       1.57979345    
   1.33877206     -0.266297996     -0.606999993       12.6429596       1.57979345    
   1.36500001       0.00000000     -0.606999993       12.6429596       1.57979345    
   1.87709999       0.00000000     -0.606999993       12.6429596       1.57979345    
   1.84103203     -0.366203994     -0.606999993       14.6478996      -1.60485113    
   2.54972792     -0.507171988     -0.517000020       14.6478996      -1.60485113    
   2.40179110     -0.994853973     -0.517000020       14.6478996      -1.60485113    
   1.73421395     -0.718334973     -0.606999993       14.6478996      -1.60485113    
   1.73421395     -0.718334973     -0.606999993       25.2593021       1.58485568    
   1.26109600     -0.522363007     -0.606999993       25.2593021       1.58485568    
   1.33877206     -0.266297996     -0.606999993       25.2593021       1.58485568    
   1.84103203     -0.366203994     -0.606999993       25.2593021       1.58485568    
   1.73421395     -0.718334973     -0.606999993       25.5132408      -1.60246408    
   2.40179110     -0.994853973     -0.517000020       25.5132408      -1.60246408    
   2.16155505      -1.44430494     -0.517000020       25.5132408      -1.60246408    
   1.56075203      -1.04286098     -0.606999993       25.5132408      -1.60246408    
   1.56075203      -1.04286098     -0.606999993       36.2936745       1.58665788    
   1.13495600     -0.758352995     -0.606999993       36.2936745       1.58665788    
   1.26109600     -0.522363007     -0.606999993       36.2936745       1.58665788    