 VARIABLES="X" "Y" "Z" "abs(p) (Pa)" "angle(p) (rad)"
ZONE N=   2709,E =    2358, F=FEPOINT, ET=QUADRILATERAL
   0.00000000      -5.48999977     -0.157000005       176.788727      -1.09269536    
   0.00000000      -4.76741982     -0.246999994       176.788727      -1.09269536    
  0.930077016      -4.67581606     -0.246999994       176.788727      -1.09269536    
   1.07104599      -5.38451099     -0.157000005       176.788727      -1.09269536    
  -1.07104599      -5.38451099     -0.157000005       169.396545       2.03238082    
 -0.930077016      -4.67581606     -0.246999994       169.396545       2.03238082    
   0.00000000      -4.76741982     -0.246999994       169.396545       2.03238082    
   0.00000000      -5.48999977     -0.157000005       169.396545       2.03238082    
  -2.10093188      -5.07209921     -0.157000005       503.869751       2.04073668    
  -1.82441294      -4.40452194     -0.246999994       503.869751       2.04073668    
 -0.930077016      -4.67581606     -0.246999994       503.869751       2.04073668    
  -1.07104599      -5.38451099     -0.157000005       503.869751       2.04073668    
  -3.05008101      -4.56476784     -0.157000005       812.329102       2.04913211    
  -2.64863706      -3.96396494     -0.246999994       812.329102       2.04913211    
  -1.82441294      -4.40452194     -0.246999994       812.329102       2.04913211    
  -2.10093188      -5.07209921     -0.157000005       812.329102       2.04913211    
  -3.88201594      -3.88201594     -0.157000005       1087.43262       2.05259919    
  -3.37107491      -3.37107491     -0.246999994       1087.43262       2.05259919    
  -2.64863706      -3.96396494     -0.246999994       1087.43262       2.05259919    
  -3.05008101      -4.56476784     -0.157000005       1087.43262       2.05259919    
  -4.56476784      -3.05008101     -0.157000005       1322.10693       2.05178785    
  -3.96396494      -2.64863706     -0.246999994       1322.10693       2.05178785    
  -3.37107491      -3.37107491     -0.246999994       1322.10693       2.05178785    
  -3.88201594      -3.88201594     -0.157000005       1322.10693       2.05178785    
  -5.07209921      -2.10093188     -0.157000005       1517.87000       2.05214000    
  -4.40452194      -1.82441294     -0.246999994       1517.87000       2.05214000    
  -3.96396494      -2.64863706     -0.246999994       1517.87000       2.05214000    
  -4.56476784      -3.05008101     -0.157000005       1517.87000       2.05214000    
  -5.38451099      -1.07104599     -0.157000005       1654.22839       2.05090523    
  -4.67581606     -0.930077016     -0.246999994       1654.22839       2.05090523    
  -4.40452194      -1.82441294     -0.246999994       1654.22839       2.05090523    
  -5.07209921      -2.10093188     -0.157000005       1654.22839       2.05090523    
  -5.48999977       0.00000000     -0.157000005       1718.65613       2.04943967    
  -4.76741982       0.00000000     -0.246999994       1718.65613       2.04943967    
  -4.67581606     -0.930077016     -0.246999994       1718.65613       2.04943967    
  -5.38451099      -1.07104599     -0.157000005       1718.65613       2.04943967    
  -5.38451099       1.07104599     -0.157000005       1721.53748       2.04883695    
  -4.67581606      0.930077016     -0.246999994       1721.53748       2.04883695    
  -4.76741982       0.00000000     -0.246999994       1721.53748       2.04883695    
  -5.48999977       0.00000000     -0.157000005       1721.53748       2.04883695    
  -5.07209921       2.10093188     -0.157000005       1659.43567       2.04824090    
  -4.40452194       1.82441294     -0.246999994       1659.43567       2.04824090    
  -4.67581606      0.930077016     -0.246999994       1659.43567       2.04824090    
  -5.38451099       1.07104599     -0.157000005       1659.43567       2.04824090    
  -4.56476784       3.05008101     -0.157000005       1528.40747       2.04940987    
  -3.96396494       2.64863706     -0.246999994       1528.40747       2.04940987    
  -4.40452194       1.82441294     -0.246999994       1528.40747       2.04940987    
  -5.07209921       2.10093188     -0.157000005       1528.40747       2.04940987    
  -3.88201594       3.88201594     -0.157000005       1340.41309       2.05216432    
  -3.37107491       3.37107491     -0.246999994       1340.41309       2.05216432    
  -3.96396494       2.64863706     -0.246999994       1340.41309       2.05216432    
  -4.56476784       3.05008101     -0.157000005       1340.41309       2.05216432    
  -3.05008101       4.56476784     -0.157000005       1098.29590       2.05189633    
  -2.64863706       3.96396494     -0.246999994       1098.29590       2.05189633    
  -3.37107491       3.37107491     -0.246999994       1098.29590       2.05189633    
  -3.88201594       3.88201594     -0.157000005       1098.29590       2.05189633    
  -2.10093188       5.07209921     -0.157000005       822.300049       2.05139661    
  -1.82441294       4.40452194     -0.246999994       822.300049       2.05139661    
  -2.64863706       3.96396494     -0.246999994       822.300049       2.05139661    
  -3.05008101       4.56476784     -0.157000005       822.300049       2.05139661    
  -1.07104599       5.38451099     -0.157000005       512.401245       2.04655313    
 -0.930077016       4.67581606     -0.246999994       512.401245       2.04655313    
  -1.82441294       4.40452194     -0.246999994       512.401245       2.04655313    
  -2.10093188       5.07209921     -0.157000005       512.401245       2.04655313    
   0.00000000       5.48999977     -0.157000005       177.364426       2.04873157    
   0.00000000       4.76741982     -0.246999994       177.364426       2.04873157    
 -0.930077016       4.67581606     -0.246999994       177.364426       2.04873157    
  -1.07104599       5.38451099     -0.157000005       177.364426       2.04873157    
   1.07104599       5.38451099     -0.157000005       168.747055      -1.10884273    
  0.930077016       4.67581606     -0.246999994       168.747055      -1.10884273    
   0.00000000       4.76741982     -0.246999994       168.747055      -1.10884273    
   0.00000000       5.48999977     -0.157000005       168.747055      -1.10884273    
   2.10093188       5.07209921     -0.157000005       505.377655      -1.09862530    
   1.82441294       4.40452194     -0.246999994       505.377655      -1.09862530    
  0.930077016       4.67581606     -0.246999994       505.377655      -1.09862530    
   1.07104599       5.38451099     -0.157000005       505.377655      -1.09862530    
   3.05008101       4.56476784     -0.157000005       814.627869      -1.09283292    
   2.64863706       3.96396494     -0.246999994       814.627869      -1.09283292    
   1.82441294       4.40452194     -0.246999994       814.627869      -1.09283292    
   2.10093188       5.07209921     -0.157000005       814.627869      -1.09283292    
   3.88201594       3.88201594     -0.157000005       1090.53394      -1.09188664    
   3.37107491       3.37107491     -0.246999994       1090.53394      -1.09188664    
   2.64863706       3.96396494     -0.246999994       1090.53394      -1.09188664    
   3.05008101       4.56476784     -0.157000005       1090.53394      -1.09188664    
   4.56476784       3.05008101     -0.157000005       1331.44507      -1.09173191    
   3.96396494       2.64863706     -0.246999994       1331.44507      -1.09173191    
   3.37107491       3.37107491     -0.246999994       1331.44507      -1.09173191    
   3.88201594       3.88201594     -0.157000005       1331.44507      -1.09173191    
   5.07209921       2.10093188     -0.157000005       1523.38098      -1.09308660    
   4.40452194       1.82441294     -0.246999994       1523.38098      -1.09308660    
   3.96396494       2.64863706     -0.246999994       1523.38098      -1.09308660    
   4.56476784       3.05008101     -0.157000005       1523.38098      -1.09308660    
   5.38451099       1.07104599     -0.157000005       1661.33167      -1.09224308    
   4.67581606      0.930077016     -0.246999994       1661.33167      -1.09224308    
   4.40452194       1.82441294     -0.246999994       1661.33167      -1.09224308    
   5.07209921       2.10093188     -0.157000005       1661.33167      -1.09224308    
   5.48999977       0.00000000     -0.157000005       1726.37878      -1.09103322    
   4.76741982       0.00000000     -0.246999994       1726.37878      -1.09103322    
   4.67581606      0.930077016     -0.246999994       1726.37878      -1.09103322    
   5.38451099       1.07104599     -0.157000005       1726.37878      -1.09103322    
   5.38451099      -1.07104599     -0.157000005       1724.81946      -1.09024644    
   4.67581606     -0.930077016     -0.246999994       1724.81946      -1.09024644    
   4.76741982       0.00000000     -0.246999994       1724.81946      -1.09024644    
   5.48999977       0.00000000     -0.157000005       1724.81946      -1.09024644    
   5.07209921      -2.10093188     -0.157000005       1657.86536      -1.08976793    
   4.40452194      -1.82441294     -0.246999994       1657.86536      -1.08976793    
   4.67581606     -0.930077016     -0.246999994       1657.86536      -1.08976793    
   5.38451099      -1.07104599     -0.157000005       1657.86536      -1.08976793    
   4.56476784      -3.05008101     -0.157000005       1523.32788      -1.08803940    
   3.96396494      -2.64863706     -0.246999994       1523.32788      -1.08803940    
   4.40452194      -1.82441294     -0.246999994       1523.32788      -1.08803940    
   5.07209921      -2.10093188     -0.157000005       1523.32788      -1.08803940    
   3.88201594      -3.88201594     -0.157000005       1331.79395      -1.08665884    
   3.37107491      -3.37107491     -0.246999994       1331.79395      -1.08665884    
   3.96396494      -2.64863706     -0.246999994       1331.79395      -1.08665884    
   4.56476784      -3.05008101     -0.157000005       1331.79395      -1.08665884    
   3.05008101      -4.56476784     -0.157000005       1091.62793      -1.08783793    
   2.64863706      -3.96396494     -0.246999994       1091.62793      -1.08783793    
   3.37107491      -3.37107491     -0.246999994       1091.62793      -1.08783793    
   3.88201594      -3.88201594     -0.157000005       1091.62793      -1.08783793    
   2.10093188      -5.07209921     -0.157000005       818.924316      -1.08943200    
   1.82441294      -4.40452194     -0.246999994       818.924316      -1.08943200    
   2.64863706      -3.96396494     -0.246999994       818.924316      -1.08943200    
   3.05008101      -4.56476784     -0.157000005       818.924316      -1.08943200    
   1.07104599      -5.38451099     -0.157000005       512.152771      -1.09402943    
  0.930077016      -4.67581606     -0.246999994       512.152771      -1.09402943    
   1.82441294      -4.40452194     -0.246999994       512.152771      -1.09402943    
   2.10093188      -5.07209921     -0.157000005       512.152771      -1.09402943    
   0.00000000      -1.87709999     -0.606999993       879.899414      -1.54751182    
   0.00000000      -1.36500001     -0.606999993       879.899414      -1.54751182    
  0.266297996      -1.33877206     -0.606999993       879.899414      -1.54751182    
  0.366203994      -1.84103203     -0.606999993       879.899414      -1.54751182    
   0.00000000      -1.87709999     -0.606999993       484.059204       1.62642741    
   0.00000000      -2.59967995     -0.517000020       484.059204       1.62642741    
 -0.507171988      -2.54972792     -0.517000020       484.059204       1.62642741    
 -0.366203994      -1.84103203     -0.606999993       484.059204       1.62642741    
 -0.366203994      -1.84103203     -0.606999993       784.915710       1.59286678    
 -0.266297996      -1.33877206     -0.606999993       784.915710       1.59286678    
   0.00000000      -1.36500001     -0.606999993       784.915710       1.59286678    
   0.00000000      -1.87709999     -0.606999993       784.915710       1.59286678    
 -0.366203994      -1.84103203     -0.606999993       1463.16699       1.62661231    
 -0.507171988      -2.54972792     -0.517000020       1463.16699       1.62661231    
 -0.994853973      -2.40179110     -0.517000020       1463.16699       1.62661231    
 -0.718334973      -1.73421395     -0.606999993       1463.16699       1.62661231    
 -0.718334973      -1.73421395     -0.606999993       2404.63281       1.59329402    
 -0.522363007      -1.26109600     -0.606999993       2404.63281       1.59329402    
 -0.266297996      -1.33877206     -0.606999993       2404.63281       1.59329402    
 -0.366203994      -1.84103203     -0.606999993       2404.63281       1.59329402    
 -0.718334973      -1.73421395     -0.606999993       2325.03784       1.62742114    
 -0.994853973      -2.40179110     -0.517000020       2325.03784       1.62742114    
  -1.44430494      -2.16155505     -0.517000020       2325.03784       1.62742114    
  -1.04286098      -1.56075203     -0.606999993       2325.03784       1.62742114    
  -1.04286098      -1.56075203     -0.606999993       3899.78320       1.59335864    
 -0.758352995      -1.13495600     -0.606999993       3899.78320       1.59335864    
 -0.522363007      -1.26109600     -0.606999993       3899.78320       1.59335864    
 -0.718334973      -1.73421395     -0.606999993       3899.78320       1.59335864    
  -1.04286098      -1.56075203     -0.606999993       3067.75879       1.62815964    
  -1.44430494      -2.16155505     -0.517000020       3067.75879       1.62815964    
  -1.83825099      -1.83825099     -0.517000020       3067.75879       1.62815964    
  -1.32730997      -1.32730997     -0.606999993       3067.75879       1.62815964    
  -1.32730997      -1.32730997     -0.606999993       5224.67090       1.59339976    
 -0.965201020     -0.965201020     -0.606999993       5224.67090       1.59339976    
 -0.758352995      -1.13495600     -0.606999993       5224.67090       1.59339976    
  -1.04286098      -1.56075203     -0.606999993       5224.67090       1.59339976    
  -1.32730997      -1.32730997     -0.606999993       3711.38696       1.62852681    
  -1.83825099      -1.83825099     -0.517000020       3711.38696       1.62852681    
  -2.16155505      -1.44430494     -0.517000020       3711.38696       1.62852681    
  -1.56075203      -1.04286098     -0.606999993       3711.38696       1.62852681    
  -1.56075203      -1.04286098     -0.606999993       6354.48877       1.59344172    
  -1.13495600     -0.758352995     -0.606999993       6354.48877       1.59344172    
 -0.965201020     -0.965201020     -0.606999993       6354.48877       1.59344172    
  -1.32730997      -1.32730997     -0.606999993       6354.48877       1.59344172    
  -1.56075203      -1.04286098     -0.606999993       4255.94385       1.62846339    
  -2.16155505      -1.44430494     -0.517000020       4255.94385       1.62846339    
  -2.40179110     -0.994853973     -0.517000020       4255.94385       1.62846339    
  -1.73421395     -0.718334973     -0.606999993       4255.94385       1.62846339    
  -1.73421395     -0.718334973     -0.606999993       7265.22363       1.59346986    
  -1.26109600     -0.522363007     -0.606999993       7265.22363       1.59346986    
  -1.13495600     -0.758352995     -0.606999993       7265.22363       1.59346986    
  -1.56075203      -1.04286098     -0.606999993       7265.22363       1.59346986    
  -1.73421395     -0.718334973     -0.606999993       4664.51025       1.62816119    
  -2.40179110     -0.994853973     -0.517000020       4664.51025       1.62816119    
  -2.54972792     -0.507171988     -0.517000020       4664.51025       1.62816119    
  -1.84103203     -0.366203994     -0.606999993       4664.51025       1.62816119    
  -1.84103203     -0.366203994     -0.606999993       7915.61426       1.59348261    
  -1.33877206     -0.266297996     -0.606999993       7915.61426       1.59348261    
  -1.26109600     -0.522363007     -0.606999993       7915.61426       1.59348261    
  -1.73421395     -0.718334973     -0.606999993       7915.61426       1.59348261    
  -1.84103203     -0.366203994     -0.606999993       4889.40137       1.62789595    
  -2.54972792     -0.507171988     -0.517000020       4889.40137       1.62789595    
  -2.59967995       0.00000000     -0.517000020       4889.40137       1.62789595    
  -1.87709999       0.00000000     -0.606999993       4889.40137       1.62789595    
  -1.87709999       0.00000000     -0.606999993       8261.40527       1.59348810    
  -1.36500001       0.00000000     -0.606999993       8261.40527       1.59348810    
  -1.33877206     -0.266297996     -0.606999993       8261.40527       1.59348810    
  -1.84103203     -0.366203994     -0.606999993       8261.40527       1.59348810    
  -1.87709999       0.00000000     -0.606999993       4898.57324       1.62786412    
  -2.59967995       0.00000000     -0.517000020       4898.57324       1.62786412    
  -2.54972792      0.507171988     -0.517000020       4898.57324       1.62786412    
  -1.84103203      0.366203994     -0.606999993       4898.57324       1.62786412    
  -1.84103203      0.366203994     -0.606999993       8272.73828       1.59349597    
  -1.33877206      0.266297996     -0.606999993       8272.73828       1.59349597    
  -1.36500001       0.00000000     -0.606999993       8272.73828       1.59349597    
  -1.87709999       0.00000000     -0.606999993       8272.73828       1.59349597    
  -1.84103203      0.366203994     -0.606999993       4688.35840       1.62809896    
  -2.54972792      0.507171988     -0.517000020       4688.35840       1.62809896    
  -2.40179110      0.994853973     -0.517000020       4688.35840       1.62809896    
  -1.73421395      0.718334973     -0.606999993       4688.35840       1.62809896    
  -1.73421395      0.718334973     -0.606999993       7947.17529       1.59350717    
  -1.26109600      0.522363007     -0.606999993       7947.17529       1.59350717    
  -1.33877206      0.266297996     -0.606999993       7947.17529       1.59350717    
  -1.84103203      0.366203994     -0.606999993       7947.17529       1.59350717    
  -1.73421395      0.718334973     -0.606999993       4285.40137       1.62844408    
  -2.40179110      0.994853973     -0.517000020       4285.40137       1.62844408    
  -2.16155505       1.44430494     -0.517000020       4285.40137       1.62844408    
  -1.56075203       1.04286098     -0.606999993       4285.40137       1.62844408    
  -1.56075203       1.04286098     -0.606999993       7311.42920       1.59351456    
  -1.13495600      0.758352995     -0.606999993       7311.42920       1.59351456    
  -1.26109600      0.522363007     -0.606999993       7311.42920       1.59351456    
  -1.73421395      0.718334973     -0.606999993       7311.42920       1.59351456    
  -1.56075203       1.04286098     -0.606999993       3739.14795       1.62859881    
  -2.16155505       1.44430494     -0.517000020       3739.14795       1.62859881    
  -1.83825099       1.83825099     -0.517000020       3739.14795       1.62859881    
  -1.32730997       1.32730997     -0.606999993       3739.14795       1.62859881    
  -1.32730997       1.32730997     -0.606999993       6409.71191       1.59351110    
 -0.965201020      0.965201020     -0.606999993       6409.71191       1.59351110    
  -1.13495600      0.758352995     -0.606999993       6409.71191       1.59351110    
  -1.56075203       1.04286098     -0.606999993       6409.71191       1.59351110    
  -1.32730997       1.32730997     -0.606999993       3093.90527       1.62829602    
  -1.83825099       1.83825099     -0.517000020       3093.90527       1.62829602    
  -1.44430494       2.16155505     -0.517000020       3093.90527       1.62829602    
  -1.04286098       1.56075203     -0.606999993       3093.90527       1.62829602    
  -1.04286098       1.56075203     -0.606999993       5286.02393       1.59350359    
 -0.758352995       1.13495600     -0.606999993       5286.02393       1.59350359    
 -0.965201020      0.965201020     -0.606999993       5286.02393       1.59350359    
  -1.32730997       1.32730997     -0.606999993       5286.02393       1.59350359    
  -1.04286098       1.56075203     -0.606999993       2355.51660       1.62753034    
  -1.44430494       2.16155505     -0.517000020       2355.51660       1.62753034    
 -0.994853973       2.40179110     -0.517000020       2355.51660       1.62753034    
 -0.718334973       1.73421395     -0.606999993       2355.51660       1.62753034    
 -0.718334973       1.73421395     -0.606999993       3969.21240       1.59351325    
 -0.522363007       1.26109600     -0.606999993       3969.21240       1.59351325    
 -0.758352995       1.13495600     -0.606999993       3969.21240       1.59351325    
  -1.04286098       1.56075203     -0.606999993       3969.21240       1.59351325    
 -0.718334973       1.73421395     -0.606999993       1504.42761       1.62652791    
 -0.994853973       2.40179110     -0.517000020       1504.42761       1.62652791    
 -0.507171988       2.54972792     -0.517000020       1504.42761       1.62652791    
 -0.366203994       1.84103203     -0.606999993       1504.42761       1.62652791    
 -0.366203994       1.84103203     -0.606999993       2486.25317       1.59354341    
 -0.266297996       1.33877206     -0.606999993       2486.25317       1.59354341    
 -0.522363007       1.26109600     -0.606999993       2486.25317       1.59354341    
 -0.718334973       1.73421395     -0.606999993       2486.25317       1.59354341    
 -0.366203994       1.84103203     -0.606999993       539.581970       1.62524199    
 -0.507171988       2.54972792     -0.517000020       539.581970       1.62524199    
   0.00000000       2.59967995     -0.517000020       539.581970       1.62524199    
   0.00000000       1.87709999     -0.606999993       539.581970       1.62524199    
   0.00000000       1.87709999     -0.606999993       880.011658       1.59362888    
   0.00000000       1.36500001     -0.606999993       880.011658       1.59362888    
 -0.266297996       1.33877206     -0.606999993       880.011658       1.59362888    
 -0.366203994       1.84103203     -0.606999993       880.011658       1.59362888    
   0.00000000       1.87709999     -0.606999993       474.419067      -1.51394951    
   0.00000000       2.59967995     -0.517000020       474.419067      -1.51394951    
  0.507171988       2.54972792     -0.517000020       474.419067      -1.51394951    
  0.366203994       1.84103203     -0.606999993       474.419067      -1.51394951    
  0.366203994       1.84103203     -0.606999993       773.502991      -1.54818654    
  0.266297996       1.33877206     -0.606999993       773.502991      -1.54818654    
   0.00000000       1.36500001     -0.606999993       773.502991      -1.54818654    
   0.00000000       1.87709999     -0.606999993       773.502991      -1.54818654    
  0.366203994       1.84103203     -0.606999993       1442.29431      -1.51427102    
  0.507171988       2.54972792     -0.517000020       1442.29431      -1.51427102    
  0.994853973       2.40179110     -0.517000020       1442.29431      -1.51427102    
  0.718334973       1.73421395     -0.606999993       1442.29431      -1.51427102    
  0.718334973       1.73421395     -0.606999993       2384.38403      -1.54812121    
  0.522363007       1.26109600     -0.606999993       2384.38403      -1.54812121    
  0.266297996       1.33877206     -0.606999993       2384.38403      -1.54812121    
  0.366203994       1.84103203     -0.606999993       2384.38403      -1.54812121    
  0.718334973       1.73421395     -0.606999993       2298.72876      -1.51358926    
  0.994853973       2.40179110     -0.517000020       2298.72876      -1.51358926    
   1.44430494       2.16155505     -0.517000020       2298.72876      -1.51358926    
   1.04286098       1.56075203     -0.606999993       2298.72876      -1.51358926    
   1.04286098       1.56075203     -0.606999993       3876.58350      -1.54812598    
  0.758352995       1.13495600     -0.606999993       3876.58350      -1.54812598    
  0.522363007       1.26109600     -0.606999993       3876.58350      -1.54812598    
  0.718334973       1.73421395     -0.606999993       3876.58350      -1.54812598    
   1.04286098       1.56075203     -0.606999993       3044.53784      -1.51297486    
   1.44430494       2.16155505     -0.517000020       3044.53784      -1.51297486    
   1.83825099       1.83825099     -0.517000020       3044.53784      -1.51297486    
   1.32730997       1.32730997     -0.606999993       3044.53784      -1.51297486    
   1.32730997       1.32730997     -0.606999993       5206.22021      -1.54811835    
  0.965201020      0.965201020     -0.606999993       5206.22021      -1.54811835    
  0.758352995       1.13495600     -0.606999993       5206.22021      -1.54811835    
   1.04286098       1.56075203     -0.606999993       5206.22021      -1.54811835    
   1.32730997       1.32730997     -0.606999993       3698.77637      -1.51276064    
   1.83825099       1.83825099     -0.517000020       3698.77637      -1.51276064    
   2.16155505       1.44430494     -0.517000020       3698.77637      -1.51276064    
   1.56075203       1.04286098     -0.606999993       3698.77637      -1.51276064    
   1.56075203       1.04286098     -0.606999993       6345.48730      -1.54809487    
   1.13495600      0.758352995     -0.606999993       6345.48730      -1.54809487    
  0.965201020      0.965201020     -0.606999993       6345.48730      -1.54809487    
   1.32730997       1.32730997     -0.606999993       6345.48730      -1.54809487    
   1.56075203       1.04286098     -0.606999993       4254.95654      -1.51296604    
   2.16155505       1.44430494     -0.517000020       4254.95654      -1.51296604    
   2.40179110      0.994853973     -0.517000020       4254.95654      -1.51296604    
   1.73421395      0.718334973     -0.606999993       4254.95654      -1.51296604    
   1.73421395      0.718334973     -0.606999993       7262.41699      -1.54806519    
   1.26109600      0.522363007     -0.606999993       7262.41699      -1.54806519    
   1.13495600      0.758352995     -0.606999993       7262.41699      -1.54806519    
   1.56075203       1.04286098     -0.606999993       7262.41699      -1.54806519    
   1.73421395      0.718334973     -0.606999993       4668.50537      -1.51334047    
   2.40179110      0.994853973     -0.517000020       4668.50537      -1.51334047    
   2.54972792      0.507171988     -0.517000020       4668.50537      -1.51334047    
   1.84103203      0.366203994     -0.606999993       4668.50537      -1.51334047    
   1.84103203      0.366203994     -0.606999993       7914.88623      -1.54804969    
   1.33877206      0.266297996     -0.606999993       7914.88623      -1.54804969    
   1.26109600      0.522363007     -0.606999993       7914.88623      -1.54804969    
   1.73421395      0.718334973     -0.606999993       7914.88623      -1.54804969    
   1.84103203      0.366203994     -0.606999993       4889.96924      -1.51359999    
   2.54972792      0.507171988     -0.517000020       4889.96924      -1.51359999    
   2.59967995       0.00000000     -0.517000020       4889.96924      -1.51359999    
   1.87709999       0.00000000     -0.606999993       4889.96924      -1.51359999    
   1.87709999       0.00000000     -0.606999993       8258.98730      -1.54804516    
   1.36500001       0.00000000     -0.606999993       8258.98730      -1.54804516    
   1.33877206      0.266297996     -0.606999993       8258.98730      -1.54804516    
   1.84103203      0.366203994     -0.606999993       8258.98730      -1.54804516    
   1.87709999       0.00000000     -0.606999993       4892.38232      -1.51359737    
   2.59967995       0.00000000     -0.517000020       4892.38232      -1.51359737    
   2.54972792     -0.507171988     -0.517000020       4892.38232      -1.51359737    
   1.84103203     -0.366203994     -0.606999993       4892.38232      -1.51359737    
   1.84103203     -0.366203994     -0.606999993       8266.55371      -1.54803753    
   1.33877206     -0.266297996     -0.606999993       8266.55371      -1.54803753    
   1.36500001       0.00000000     -0.606999993       8266.55371      -1.54803753    
   1.87709999       0.00000000     -0.606999993       8266.55371      -1.54803753    
   1.84103203     -0.366203994     -0.606999993       4678.98535      -1.51336598    
   2.54972792     -0.507171988     -0.517000020       4678.98535      -1.51336598    
   2.40179110     -0.994853973     -0.517000020       4678.98535      -1.51336598    
   1.73421395     -0.718334973     -0.606999993       4678.98535      -1.51336598    
   1.73421395     -0.718334973     -0.606999993       7940.00439      -1.54802907    
   1.26109600     -0.522363007     -0.606999993       7940.00439      -1.54802907    
   1.33877206     -0.266297996     -0.606999993       7940.00439      -1.54802907    
   1.84103203     -0.366203994     -0.606999993       7940.00439      -1.54802907    
   1.73421395     -0.718334973     -0.606999993       4281.31445      -1.51310289    
   2.40179110     -0.994853973     -0.517000020       4281.31445      -1.51310289    
   2.16155505      -1.44430494     -0.517000020       4281.31445      -1.51310289    
   1.56075203      -1.04286098     -0.606999993       4281.31445      -1.51310289    
   1.56075203      -1.04286098     -0.606999993       7308.81006      -1.54802799    
   1.13495600     -0.758352995     -0.606999993       7308.81006      -1.54802799    
   1.26109600     -0.522363007     -0.606999993       7308.81006      -1.54802799    