 VARIABLES="X" "Y" "Z" "abs(p) (Pa)" "angle(p) (rad)"
ZONE N=   2709,E =    2358, F=FEPOINT, ET=QUADRILATERAL
   0.00000000      -5.48999977     -0.157000005       4128.82568      -1.50223255    
   0.00000000      -4.76741982     -0.246999994       4128.82568      -1.50223255    
  0.930077016      -4.67581606     -0.246999994       4128.82568      -1.50223255    
   1.07104599      -5.38451099     -0.157000005       4128.82568      -1.50223255    
  -1.07104599      -5.38451099     -0.157000005       4130.38184      -1.50212801    
 -0.930077016      -4.67581606     -0.246999994       4130.38184      -1.50212801    
   0.00000000      -4.76741982     -0.246999994       4130.38184      -1.50212801    
   0.00000000      -5.48999977     -0.157000005       4130.38184      -1.50212801    
  -2.10093188      -5.07209921     -0.157000005       4029.29126      -1.50350893    
  -1.82441294      -4.40452194     -0.246999994       4029.29126      -1.50350893    
 -0.930077016      -4.67581606     -0.246999994       4029.29126      -1.50350893    
  -1.07104599      -5.38451099     -0.157000005       4029.29126      -1.50350893    
  -3.05008101      -4.56476784     -0.157000005       3661.49878      -1.50032532    
  -2.64863706      -3.96396494     -0.246999994       3661.49878      -1.50032532    
  -1.82441294      -4.40452194     -0.246999994       3661.49878      -1.50032532    
  -2.10093188      -5.07209921     -0.157000005       3661.49878      -1.50032532    
  -3.88201594      -3.88201594     -0.157000005       3212.34863      -1.49898064    
  -3.37107491      -3.37107491     -0.246999994       3212.34863      -1.49898064    
  -2.64863706      -3.96396494     -0.246999994       3212.34863      -1.49898064    
  -3.05008101      -4.56476784     -0.157000005       3212.34863      -1.49898064    
  -4.56476784      -3.05008101     -0.157000005       2691.64551      -1.50059986    
  -3.96396494      -2.64863706     -0.246999994       2691.64551      -1.50059986    
  -3.37107491      -3.37107491     -0.246999994       2691.64551      -1.50059986    
  -3.88201594      -3.88201594     -0.157000005       2691.64551      -1.50059986    
  -5.07209921      -2.10093188     -0.157000005       1969.35913      -1.49724281    
  -4.40452194      -1.82441294     -0.246999994       1969.35913      -1.49724281    
  -3.96396494      -2.64863706     -0.246999994       1969.35913      -1.49724281    
  -4.56476784      -3.05008101     -0.157000005       1969.35913      -1.49724281    
  -5.38451099      -1.07104599     -0.157000005       1201.66382      -1.49560320    
  -4.67581606     -0.930077016     -0.246999994       1201.66382      -1.49560320    
  -4.40452194      -1.82441294     -0.246999994       1201.66382      -1.49560320    
  -5.07209921      -2.10093188     -0.157000005       1201.66382      -1.49560320    
  -5.48999977       0.00000000     -0.157000005       401.958313      -1.49627602    
  -4.76741982       0.00000000     -0.246999994       401.958313      -1.49627602    
  -4.67581606     -0.930077016     -0.246999994       401.958313      -1.49627602    
  -5.38451099      -1.07104599     -0.157000005       401.958313      -1.49627602    
  -5.38451099       1.07104599     -0.157000005       425.851440       1.64150822    
  -4.67581606      0.930077016     -0.246999994       425.851440       1.64150822    
  -4.76741982       0.00000000     -0.246999994       425.851440       1.64150822    
  -5.48999977       0.00000000     -0.157000005       425.851440       1.64150822    
  -5.07209921       2.10093188     -0.157000005       1237.44702       1.64141607    
  -4.40452194       1.82441294     -0.246999994       1237.44702       1.64141607    
  -4.67581606      0.930077016     -0.246999994       1237.44702       1.64141607    
  -5.38451099       1.07104599     -0.157000005       1237.44702       1.64141607    
  -4.56476784       3.05008101     -0.157000005       1998.75793       1.64054179    
  -3.96396494       2.64863706     -0.246999994       1998.75793       1.64054179    
  -4.40452194       1.82441294     -0.246999994       1998.75793       1.64054179    
  -5.07209921       2.10093188     -0.157000005       1998.75793       1.64054179    
  -3.88201594       3.88201594     -0.157000005       2646.12109       1.64141500    
  -3.37107491       3.37107491     -0.246999994       2646.12109       1.64141500    
  -3.96396494       2.64863706     -0.246999994       2646.12109       1.64141500    
  -4.56476784       3.05008101     -0.157000005       2646.12109       1.64141500    
  -3.05008101       4.56476784     -0.157000005       3267.65088       1.63809764    
  -2.64863706       3.96396494     -0.246999994       3267.65088       1.63809764    
  -3.37107491       3.37107491     -0.246999994       3267.65088       1.63809764    
  -3.88201594       3.88201594     -0.157000005       3267.65088       1.63809764    
  -2.10093188       5.07209921     -0.157000005       3675.57983       1.63892293    
  -1.82441294       4.40452194     -0.246999994       3675.57983       1.63892293    
  -2.64863706       3.96396494     -0.246999994       3675.57983       1.63892293    
  -3.05008101       4.56476784     -0.157000005       3675.57983       1.63892293    
  -1.07104599       5.38451099     -0.157000005       4040.13916       1.63632131    
 -0.930077016       4.67581606     -0.246999994       4040.13916       1.63632131    
  -1.82441294       4.40452194     -0.246999994       4040.13916       1.63632131    
  -2.10093188       5.07209921     -0.157000005       4040.13916       1.63632131    
   0.00000000       5.48999977     -0.157000005       4141.90283       1.63803339    
   0.00000000       4.76741982     -0.246999994       4141.90283       1.63803339    
 -0.930077016       4.67581606     -0.246999994       4141.90283       1.63803339    
  -1.07104599       5.38451099     -0.157000005       4141.90283       1.63803339    
   1.07104599       5.38451099     -0.157000005       4193.62451       1.63675463    
  0.930077016       4.67581606     -0.246999994       4193.62451       1.63675463    
   0.00000000       4.76741982     -0.246999994       4193.62451       1.63675463    
   0.00000000       5.48999977     -0.157000005       4193.62451       1.63675463    
   2.10093188       5.07209921     -0.157000005       3973.00000       1.64007854    
   1.82441294       4.40452194     -0.246999994       3973.00000       1.64007854    
  0.930077016       4.67581606     -0.246999994       3973.00000       1.64007854    
   1.07104599       5.38451099     -0.157000005       3973.00000       1.64007854    
   3.05008101       4.56476784     -0.157000005       3660.03687       1.64206076    
   2.64863706       3.96396494     -0.246999994       3660.03687       1.64206076    
   1.82441294       4.40452194     -0.246999994       3660.03687       1.64206076    
   2.10093188       5.07209921     -0.157000005       3660.03687       1.64206076    
   3.88201594       3.88201594     -0.157000005       3266.96997       1.64159572    
   3.37107491       3.37107491     -0.246999994       3266.96997       1.64159572    
   2.64863706       3.96396494     -0.246999994       3266.96997       1.64159572    
   3.05008101       4.56476784     -0.157000005       3266.96997       1.64159572    
   4.56476784       3.05008101     -0.157000005       2679.31885       1.64377260    
   3.96396494       2.64863706     -0.246999994       2679.31885       1.64377260    
   3.37107491       3.37107491     -0.246999994       2679.31885       1.64377260    
   3.88201594       3.88201594     -0.157000005       2679.31885       1.64377260    
   5.07209921       2.10093188     -0.157000005       2001.59741       1.64430654    
   4.40452194       1.82441294     -0.246999994       2001.59741       1.64430654    
   3.96396494       2.64863706     -0.246999994       2001.59741       1.64430654    
   4.56476784       3.05008101     -0.157000005       2001.59741       1.64430654    
   5.38451099       1.07104599     -0.157000005       1206.47144       1.64793921    
   4.67581606      0.930077016     -0.246999994       1206.47144       1.64793921    
   4.40452194       1.82441294     -0.246999994       1206.47144       1.64793921    
   5.07209921       2.10093188     -0.157000005       1206.47144       1.64793921    
   5.48999977       0.00000000     -0.157000005       398.178864       1.64881384    
   4.76741982       0.00000000     -0.246999994       398.178864       1.64881384    
   4.67581606      0.930077016     -0.246999994       398.178864       1.64881384    
   5.38451099       1.07104599     -0.157000005       398.178864       1.64881384    
   5.38451099      -1.07104599     -0.157000005       416.025909      -1.49392438    
   4.67581606     -0.930077016     -0.246999994       416.025909      -1.49392438    
   4.76741982       0.00000000     -0.246999994       416.025909      -1.49392438    
   5.48999977       0.00000000     -0.157000005       416.025909      -1.49392438    
   5.07209921      -2.10093188     -0.157000005       1211.57874      -1.49530351    
   4.40452194      -1.82441294     -0.246999994       1211.57874      -1.49530351    
   4.67581606     -0.930077016     -0.246999994       1211.57874      -1.49530351    
   5.38451099      -1.07104599     -0.157000005       1211.57874      -1.49530351    
   4.56476784      -3.05008101     -0.157000005       1960.27429      -1.49706054    
   3.96396494      -2.64863706     -0.246999994       1960.27429      -1.49706054    
   4.40452194      -1.82441294     -0.246999994       1960.27429      -1.49706054    
   5.07209921      -2.10093188     -0.157000005       1960.27429      -1.49706054    
   3.88201594      -3.88201594     -0.157000005       2638.24902      -1.49896133    
   3.37107491      -3.37107491     -0.246999994       2638.24902      -1.49896133    
   3.96396494      -2.64863706     -0.246999994       2638.24902      -1.49896133    
   4.56476784      -3.05008101     -0.157000005       2638.24902      -1.49896133    
   3.05008101      -4.56476784     -0.157000005       3262.24365      -1.50258732    
   2.64863706      -3.96396494     -0.246999994       3262.24365      -1.50258732    
   3.37107491      -3.37107491     -0.246999994       3262.24365      -1.50258732    
   3.88201594      -3.88201594     -0.157000005       3262.24365      -1.50258732    
   2.10093188      -5.07209921     -0.157000005       3666.01538      -1.50151086    
   1.82441294      -4.40452194     -0.246999994       3666.01538      -1.50151086    
   2.64863706      -3.96396494     -0.246999994       3666.01538      -1.50151086    
   3.05008101      -4.56476784     -0.157000005       3666.01538      -1.50151086    
   1.07104599      -5.38451099     -0.157000005       3971.46802      -1.50197816    
  0.930077016      -4.67581606     -0.246999994       3971.46802      -1.50197816    
   1.82441294      -4.40452194     -0.246999994       3971.46802      -1.50197816    
   2.10093188      -5.07209921     -0.157000005       3971.46802      -1.50197816    
   0.00000000      -1.87709999     -0.606999993       4002.06689      -1.55906332    
   0.00000000      -1.36500001     -0.606999993       4002.06689      -1.55906332    
  0.266297996      -1.33877206     -0.606999993       4002.06689      -1.55906332    
  0.366203994      -1.84103203     -0.606999993       4002.06689      -1.55906332    
   0.00000000      -1.87709999     -0.606999993       4073.86133      -1.55754757    
   0.00000000      -2.59967995     -0.517000020       4073.86133      -1.55754757    
 -0.507171988      -2.54972792     -0.517000020       4073.86133      -1.55754757    
 -0.366203994      -1.84103203     -0.606999993       4073.86133      -1.55754757    
 -0.366203994      -1.84103203     -0.606999993       4003.45435      -1.55908275    
 -0.266297996      -1.33877206     -0.606999993       4003.45435      -1.55908275    
   0.00000000      -1.36500001     -0.606999993       4003.45435      -1.55908275    
   0.00000000      -1.87709999     -0.606999993       4003.45435      -1.55908275    
 -0.366203994      -1.84103203     -0.606999993       3907.08154      -1.55746889    
 -0.507171988      -2.54972792     -0.517000020       3907.08154      -1.55746889    
 -0.994853973      -2.40179110     -0.517000020       3907.08154      -1.55746889    
 -0.718334973      -1.73421395     -0.606999993       3907.08154      -1.55746889    
 -0.718334973      -1.73421395     -0.606999993       3846.03223      -1.55903816    
 -0.522363007      -1.26109600     -0.606999993       3846.03223      -1.55903816    
 -0.266297996      -1.33877206     -0.606999993       3846.03223      -1.55903816    
 -0.366203994      -1.84103203     -0.606999993       3846.03223      -1.55903816    
 -0.718334973      -1.73421395     -0.606999993       3592.73657      -1.55733919    
 -0.994853973      -2.40179110     -0.517000020       3592.73657      -1.55733919    
  -1.44430494      -2.16155505     -0.517000020       3592.73657      -1.55733919    
  -1.04286098      -1.56075203     -0.606999993       3592.73657      -1.55733919    
  -1.04286098      -1.56075203     -0.606999993       3541.44409      -1.55899215    
 -0.758352995      -1.13495600     -0.606999993       3541.44409      -1.55899215    
 -0.522363007      -1.26109600     -0.606999993       3541.44409      -1.55899215    
 -0.718334973      -1.73421395     -0.606999993       3541.44409      -1.55899215    
  -1.04286098      -1.56075203     -0.606999993       3150.67139      -1.55721915    
  -1.44430494      -2.16155505     -0.517000020       3150.67139      -1.55721915    
  -1.83825099      -1.83825099     -0.517000020       3150.67139      -1.55721915    
  -1.32730997      -1.32730997     -0.606999993       3150.67139      -1.55721915    
  -1.32730997      -1.32730997     -0.606999993       3104.89722      -1.55892038    
 -0.965201020     -0.965201020     -0.606999993       3104.89722      -1.55892038    
 -0.758352995      -1.13495600     -0.606999993       3104.89722      -1.55892038    
  -1.04286098      -1.56075203     -0.606999993       3104.89722      -1.55892038    
  -1.32730997      -1.32730997     -0.606999993       2592.74072      -1.55716038    
  -1.83825099      -1.83825099     -0.517000020       2592.74072      -1.55716038    
  -2.16155505      -1.44430494     -0.517000020       2592.74072      -1.55716038    
  -1.56075203      -1.04286098     -0.606999993       2592.74072      -1.55716038    
  -1.56075203      -1.04286098     -0.606999993       2551.48389      -1.55888283    
  -1.13495600     -0.758352995     -0.606999993       2551.48389      -1.55888283    
 -0.965201020     -0.965201020     -0.606999993       2551.48389      -1.55888283    
  -1.32730997      -1.32730997     -0.606999993       2551.48389      -1.55888283    
  -1.56075203      -1.04286098     -0.606999993       1930.94043      -1.55714417    
  -2.16155505      -1.44430494     -0.517000020       1930.94043      -1.55714417    
  -2.40179110     -0.994853973     -0.517000020       1930.94043      -1.55714417    
  -1.73421395     -0.718334973     -0.606999993       1930.94043      -1.55714417    
  -1.73421395     -0.718334973     -0.606999993       1898.37427      -1.55884922    
  -1.26109600     -0.522363007     -0.606999993       1898.37427      -1.55884922    
  -1.13495600     -0.758352995     -0.606999993       1898.37427      -1.55884922    
  -1.56075203      -1.04286098     -0.606999993       1898.37427      -1.55884922    
  -1.73421395     -0.718334973     -0.606999993       1188.17188      -1.55713403    
  -2.40179110     -0.994853973     -0.517000020       1188.17188      -1.55713403    
  -2.54972792     -0.507171988     -0.517000020       1188.17188      -1.55713403    
  -1.84103203     -0.366203994     -0.606999993       1188.17188      -1.55713403    
  -1.84103203     -0.366203994     -0.606999993       1168.69800      -1.55876386    
  -1.33877206     -0.266297996     -0.606999993       1168.69800      -1.55876386    
  -1.26109600     -0.522363007     -0.606999993       1168.69800      -1.55876386    
  -1.73421395     -0.718334973     -0.606999993       1168.69800      -1.55876386    
  -1.84103203     -0.366203994     -0.606999993       398.424744      -1.55656695    
  -2.54972792     -0.507171988     -0.517000020       398.424744      -1.55656695    
  -2.59967995       0.00000000     -0.517000020       398.424744      -1.55656695    
  -1.87709999       0.00000000     -0.606999993       398.424744      -1.55656695    
  -1.87709999       0.00000000     -0.606999993       391.962769      -1.55800545    
  -1.36500001       0.00000000     -0.606999993       391.962769      -1.55800545    
  -1.33877206     -0.266297996     -0.606999993       391.962769      -1.55800545    
  -1.84103203     -0.366203994     -0.606999993       391.962769      -1.55800545    
  -1.87709999       0.00000000     -0.606999993       405.225525       1.58297062    
  -2.59967995       0.00000000     -0.517000020       405.225525       1.58297062    
  -2.54972792      0.507171988     -0.517000020       405.225525       1.58297062    
  -1.84103203      0.366203994     -0.606999993       405.225525       1.58297062    
  -1.84103203      0.366203994     -0.606999993       400.271027       1.58108509    
  -1.33877206      0.266297996     -0.606999993       400.271027       1.58108509    
  -1.36500001       0.00000000     -0.606999993       400.271027       1.58108509    
  -1.87709999       0.00000000     -0.606999993       400.271027       1.58108509    
  -1.84103203      0.366203994     -0.606999993       1194.85730       1.58364892    
  -2.54972792      0.507171988     -0.517000020       1194.85730       1.58364892    
  -2.40179110      0.994853973     -0.517000020       1194.85730       1.58364892    
  -1.73421395      0.718334973     -0.606999993       1194.85730       1.58364892    
  -1.73421395      0.718334973     -0.606999993       1177.10437       1.58190346    
  -1.26109600      0.522363007     -0.606999993       1177.10437       1.58190346    
  -1.33877206      0.266297996     -0.606999993       1177.10437       1.58190346    
  -1.84103203      0.366203994     -0.606999993       1177.10437       1.58190346    
  -1.73421395      0.718334973     -0.606999993       1939.06250       1.58384418    
  -2.40179110      0.994853973     -0.517000020       1939.06250       1.58384418    
  -2.16155505       1.44430494     -0.517000020       1939.06250       1.58384418    
  -1.56075203       1.04286098     -0.606999993       1939.06250       1.58384418    
  -1.56075203       1.04286098     -0.606999993       1907.57397       1.58208561    
  -1.13495600      0.758352995     -0.606999993       1907.57397       1.58208561    
  -1.26109600      0.522363007     -0.606999993       1907.57397       1.58208561    
  -1.73421395      0.718334973     -0.606999993       1907.57397       1.58208561    
  -1.56075203       1.04286098     -0.606999993       2603.10620       1.58394814    
  -2.16155505       1.44430494     -0.517000020       2603.10620       1.58394814    
  -1.83825099       1.83825099     -0.517000020       2603.10620       1.58394814    
  -1.32730997       1.32730997     -0.606999993       2603.10620       1.58394814    
  -1.32730997       1.32730997     -0.606999993       2561.99561       1.58217788    
 -0.965201020      0.965201020     -0.606999993       2561.99561       1.58217788    
  -1.13495600      0.758352995     -0.606999993       2561.99561       1.58217788    
  -1.56075203       1.04286098     -0.606999993       2561.99561       1.58217788    
  -1.32730997       1.32730997     -0.606999993       3162.16187       1.58394587    
  -1.83825099       1.83825099     -0.517000020       3162.16187       1.58394587    
  -1.44430494       2.16155505     -0.517000020       3162.16187       1.58394587    
  -1.04286098       1.56075203     -0.606999993       3162.16187       1.58394587    
  -1.04286098       1.56075203     -0.606999993       3116.42871       1.58221936    
 -0.758352995       1.13495600     -0.606999993       3116.42871       1.58221936    
 -0.965201020      0.965201020     -0.606999993       3116.42871       1.58221936    
  -1.32730997       1.32730997     -0.606999993       3116.42871       1.58221936    
  -1.04286098       1.56075203     -0.606999993       3604.03149       1.58389485    
  -1.44430494       2.16155505     -0.517000020       3604.03149       1.58389485    
 -0.994853973       2.40179110     -0.517000020       3604.03149       1.58389485    
 -0.718334973       1.73421395     -0.606999993       3604.03149       1.58389485    
 -0.718334973       1.73421395     -0.606999993       3553.69946       1.58221889    
 -0.522363007       1.26109600     -0.606999993       3553.69946       1.58221889    
 -0.758352995       1.13495600     -0.606999993       3553.69946       1.58221889    
  -1.04286098       1.56075203     -0.606999993       3553.69946       1.58221889    
 -0.718334973       1.73421395     -0.606999993       3917.83203       1.58385932    
 -0.994853973       2.40179110     -0.517000020       3917.83203       1.58385932    
 -0.507171988       2.54972792     -0.517000020       3917.83203       1.58385932    
 -0.366203994       1.84103203     -0.606999993       3917.83203       1.58385932    
 -0.366203994       1.84103203     -0.606999993       3858.99438       1.58221924    
 -0.266297996       1.33877206     -0.606999993       3858.99438       1.58221924    
 -0.522363007       1.26109600     -0.606999993       3858.99438       1.58221924    
 -0.718334973       1.73421395     -0.606999993       3858.99438       1.58221924    
 -0.366203994       1.84103203     -0.606999993       4084.52295       1.58384085    
 -0.507171988       2.54972792     -0.517000020       4084.52295       1.58384085    
   0.00000000       2.59967995     -0.517000020       4084.52295       1.58384085    
   0.00000000       1.87709999     -0.606999993       4084.52295       1.58384085    
   0.00000000       1.87709999     -0.606999993       4017.32471       1.58226097    
   0.00000000       1.36500001     -0.606999993       4017.32471       1.58226097    
 -0.266297996       1.33877206     -0.606999993       4017.32471       1.58226097    
 -0.366203994       1.84103203     -0.606999993       4017.32471       1.58226097    
   0.00000000       1.87709999     -0.606999993       4084.49146       1.58392787    
   0.00000000       2.59967995     -0.517000020       4084.49146       1.58392787    
  0.507171988       2.54972792     -0.517000020       4084.49146       1.58392787    
  0.366203994       1.84103203     -0.606999993       4084.49146       1.58392787    
  0.366203994       1.84103203     -0.606999993       4017.31104       1.58234489    
  0.266297996       1.33877206     -0.606999993       4017.31104       1.58234489    
   0.00000000       1.36500001     -0.606999993       4017.31104       1.58234489    
   0.00000000       1.87709999     -0.606999993       4017.31104       1.58234489    
  0.366203994       1.84103203     -0.606999993       3917.93140       1.58407640    
  0.507171988       2.54972792     -0.517000020       3917.93140       1.58407640    
  0.994853973       2.40179110     -0.517000020       3917.93140       1.58407640    
  0.718334973       1.73421395     -0.606999993       3917.93140       1.58407640    
  0.718334973       1.73421395     -0.606999993       3859.08130       1.58247173    
  0.522363007       1.26109600     -0.606999993       3859.08130       1.58247173    
  0.266297996       1.33877206     -0.606999993       3859.08130       1.58247173    
  0.366203994       1.84103203     -0.606999993       3859.08130       1.58247173    
  0.718334973       1.73421395     -0.606999993       3604.44458       1.58425808    
  0.994853973       2.40179110     -0.517000020       3604.44458       1.58425808    
   1.44430494       2.16155505     -0.517000020       3604.44458       1.58425808    
   1.04286098       1.56075203     -0.606999993       3604.44458       1.58425808    
   1.04286098       1.56075203     -0.606999993       3554.27710       1.58261287    
  0.758352995       1.13495600     -0.606999993       3554.27710       1.58261287    
  0.522363007       1.26109600     -0.606999993       3554.27710       1.58261287    
  0.718334973       1.73421395     -0.606999993       3554.27710       1.58261287    
   1.04286098       1.56075203     -0.606999993       3163.16821       1.58443606    
   1.44430494       2.16155505     -0.517000020       3163.16821       1.58443606    
   1.83825099       1.83825099     -0.517000020       3163.16821       1.58443606    
   1.32730997       1.32730997     -0.606999993       3163.16821       1.58443606    
   1.32730997       1.32730997     -0.606999993       3117.76025       1.58274293    
  0.965201020      0.965201020     -0.606999993       3117.76025       1.58274293    
  0.758352995       1.13495600     -0.606999993       3117.76025       1.58274293    
   1.04286098       1.56075203     -0.606999993       3117.76025       1.58274293    
   1.32730997       1.32730997     -0.606999993       2604.70508       1.58452821    
   1.83825099       1.83825099     -0.517000020       2604.70508       1.58452821    
   2.16155505       1.44430494     -0.517000020       2604.70508       1.58452821    
   1.56075203       1.04286098     -0.606999993       2604.70508       1.58452821    
   1.56075203       1.04286098     -0.606999993       2564.22510       1.58283889    
   1.13495600      0.758352995     -0.606999993       2564.22510       1.58283889    
  0.965201020      0.965201020     -0.606999993       2564.22510       1.58283889    
   1.32730997       1.32730997     -0.606999993       2564.22510       1.58283889    
   1.56075203       1.04286098     -0.606999993       1941.11560       1.58454561    
   2.16155505       1.44430494     -0.517000020       1941.11560       1.58454561    
   2.40179110      0.994853973     -0.517000020       1941.11560       1.58454561    
   1.73421395      0.718334973     -0.606999993       1941.11560       1.58454561    
   1.73421395      0.718334973     -0.606999993       1910.55811       1.58289540    
   1.26109600      0.522363007     -0.606999993       1910.55811       1.58289540    
   1.13495600      0.758352995     -0.606999993       1910.55811       1.58289540    
   1.56075203       1.04286098     -0.606999993       1910.55811       1.58289540    
   1.73421395      0.718334973     -0.606999993       1197.17847       1.58456039    
   2.40179110      0.994853973     -0.517000020       1197.17847       1.58456039    
   2.54972792      0.507171988     -0.517000020       1197.17847       1.58456039    
   1.84103203      0.366203994     -0.606999993       1197.17847       1.58456039    
   1.84103203      0.366203994     -0.606999993       1180.75317       1.58293641    
   1.33877206      0.266297996     -0.606999993       1180.75317       1.58293641    
   1.26109600      0.522363007     -0.606999993       1180.75317       1.58293641    
   1.73421395      0.718334973     -0.606999993       1180.75317       1.58293641    
   1.84103203      0.366203994     -0.606999993       407.882538       1.58481383    
   2.54972792      0.507171988     -0.517000020       407.882538       1.58481383    
   2.59967995       0.00000000     -0.517000020       407.882538       1.58481383    
   1.87709999       0.00000000     -0.606999993       407.882538       1.58481383    
   1.87709999       0.00000000     -0.606999993       404.791687       1.58316970    
   1.36500001       0.00000000     -0.606999993       404.791687       1.58316970    
   1.33877206      0.266297996     -0.606999993       404.791687       1.58316970    
   1.84103203      0.366203994     -0.606999993       404.791687       1.58316970    
   1.87709999       0.00000000     -0.606999993       395.271606      -1.55769992    
   2.59967995       0.00000000     -0.517000020       395.271606      -1.55769992    
   2.54972792     -0.507171988     -0.517000020       395.271606      -1.55769992    
   1.84103203     -0.366203994     -0.606999993       395.271606      -1.55769992    
   1.84103203     -0.366203994     -0.606999993       386.439056      -1.55913544    
   1.33877206     -0.266297996     -0.606999993       386.439056      -1.55913544    
   1.36500001       0.00000000     -0.606999993       386.439056      -1.55913544    
   1.87709999       0.00000000     -0.606999993       386.439056      -1.55913544    
   1.84103203     -0.366203994     -0.606999993       1184.40051      -1.55731797    
   2.54972792     -0.507171988     -0.517000020       1184.40051      -1.55731797    
   2.40179110     -0.994853973     -0.517000020       1184.40051      -1.55731797    
   1.73421395     -0.718334973     -0.606999993       1184.40051      -1.55731797    
   1.73421395     -0.718334973     -0.606999993       1162.20776      -1.55884993    
   1.26109600     -0.522363007     -0.606999993       1162.20776      -1.55884993    
   1.33877206     -0.266297996     -0.606999993       1162.20776      -1.55884993    
   1.84103203     -0.366203994     -0.606999993       1162.20776      -1.55884993    
   1.73421395     -0.718334973     -0.606999993       1926.65271      -1.55719650    
   2.40179110     -0.994853973     -0.517000020       1926.65271      -1.55719650    
   2.16155505      -1.44430494     -0.517000020       1926.65271      -1.55719650    
   1.56075203      -1.04286098     -0.606999993       1926.65271      -1.55719650    
   1.56075203      -1.04286098     -0.606999993       1891.19556      -1.55877268    
   1.13495600     -0.758352995     -0.606999993       1891.19556      -1.55877268    
   1.26109600     -0.522363007     -0.606999993       1891.19556      -1.55877268    