 VARIABLES="X" "Y" "Z" "abs(p) (Pa)" "angle(p) (rad)"
ZONE N=   2709,E =    2358, F=FEPOINT, ET=QUADRILATERAL
   0.00000000      -5.48999977     -0.157000005       827.217896      -1.63153684    
   0.00000000      -4.76741982     -0.246999994       827.217896      -1.63153684    
  0.930077016      -4.67581606     -0.246999994       827.217896      -1.63153684    
   1.07104599      -5.38451099     -0.157000005       827.217896      -1.63153684    
  -1.07104599      -5.38451099     -0.157000005       827.737183      -1.63144732    
 -0.930077016      -4.67581606     -0.246999994       827.737183      -1.63144732    
   0.00000000      -4.76741982     -0.246999994       827.737183      -1.63144732    
   0.00000000      -5.48999977     -0.157000005       827.737183      -1.63144732    
  -2.10093188      -5.07209921     -0.157000005       797.609192      -1.63120365    
  -1.82441294      -4.40452194     -0.246999994       797.609192      -1.63120365    
 -0.930077016      -4.67581606     -0.246999994       797.609192      -1.63120365    
  -1.07104599      -5.38451099     -0.157000005       797.609192      -1.63120365    
  -3.05008101      -4.56476784     -0.157000005       735.818298      -1.63130558    
  -2.64863706      -3.96396494     -0.246999994       735.818298      -1.63130558    
  -1.82441294      -4.40452194     -0.246999994       735.818298      -1.63130558    
  -2.10093188      -5.07209921     -0.157000005       735.818298      -1.63130558    
  -3.88201594      -3.88201594     -0.157000005       649.773743      -1.63099778    
  -3.37107491      -3.37107491     -0.246999994       649.773743      -1.63099778    
  -2.64863706      -3.96396494     -0.246999994       649.773743      -1.63099778    
  -3.05008101      -4.56476784     -0.157000005       649.773743      -1.63099778    
  -4.56476784      -3.05008101     -0.157000005       538.103638      -1.63055480    
  -3.96396494      -2.64863706     -0.246999994       538.103638      -1.63055480    
  -3.37107491      -3.37107491     -0.246999994       538.103638      -1.63055480    
  -3.88201594      -3.88201594     -0.157000005       538.103638      -1.63055480    
  -5.07209921      -2.10093188     -0.157000005       400.506958      -1.63104260    
  -4.40452194      -1.82441294     -0.246999994       400.506958      -1.63104260    
  -3.96396494      -2.64863706     -0.246999994       400.506958      -1.63104260    
  -4.56476784      -3.05008101     -0.157000005       400.506958      -1.63104260    
  -5.38451099      -1.07104599     -0.157000005       247.172241      -1.63209593    
  -4.67581606     -0.930077016     -0.246999994       247.172241      -1.63209593    
  -4.40452194      -1.82441294     -0.246999994       247.172241      -1.63209593    
  -5.07209921      -2.10093188     -0.157000005       247.172241      -1.63209593    
  -5.48999977       0.00000000     -0.157000005       86.8378601      -1.63545644    
  -4.76741982       0.00000000     -0.246999994       86.8378601      -1.63545644    
  -4.67581606     -0.930077016     -0.246999994       86.8378601      -1.63545644    
  -5.38451099      -1.07104599     -0.157000005       86.8378601      -1.63545644    
  -5.38451099       1.07104599     -0.157000005       75.1382217       1.51666152    
  -4.67581606      0.930077016     -0.246999994       75.1382217       1.51666152    
  -4.76741982       0.00000000     -0.246999994       75.1382217       1.51666152    
  -5.48999977       0.00000000     -0.157000005       75.1382217       1.51666152    
  -5.07209921       2.10093188     -0.157000005       236.181549       1.51336873    
  -4.40452194       1.82441294     -0.246999994       236.181549       1.51336873    
  -4.67581606      0.930077016     -0.246999994       236.181549       1.51336873    
  -5.38451099       1.07104599     -0.157000005       236.181549       1.51336873    
  -4.56476784       3.05008101     -0.157000005       391.630890       1.51328301    
  -3.96396494       2.64863706     -0.246999994       391.630890       1.51328301    
  -4.40452194       1.82441294     -0.246999994       391.630890       1.51328301    
  -5.07209921       2.10093188     -0.157000005       391.630890       1.51328301    
  -3.88201594       3.88201594     -0.157000005       532.010254       1.51320398    
  -3.37107491       3.37107491     -0.246999994       532.010254       1.51320398    
  -3.96396494       2.64863706     -0.246999994       532.010254       1.51320398    
  -4.56476784       3.05008101     -0.157000005       532.010254       1.51320398    
  -3.05008101       4.56476784     -0.157000005       649.321472       1.51316547    
  -2.64863706       3.96396494     -0.246999994       649.321472       1.51316547    
  -3.37107491       3.37107491     -0.246999994       649.321472       1.51316547    
  -3.88201594       3.88201594     -0.157000005       649.321472       1.51316547    
  -2.10093188       5.07209921     -0.157000005       737.253296       1.51268709    
  -1.82441294       4.40452194     -0.246999994       737.253296       1.51268709    
  -2.64863706       3.96396494     -0.246999994       737.253296       1.51268709    
  -3.05008101       4.56476784     -0.157000005       737.253296       1.51268709    
  -1.07104599       5.38451099     -0.157000005       800.581360       1.51277590    
 -0.930077016       4.67581606     -0.246999994       800.581360       1.51277590    
  -1.82441294       4.40452194     -0.246999994       800.581360       1.51277590    
  -2.10093188       5.07209921     -0.157000005       800.581360       1.51277590    
   0.00000000       5.48999977     -0.157000005       832.557129       1.51266873    
   0.00000000       4.76741982     -0.246999994       832.557129       1.51266873    
 -0.930077016       4.67581606     -0.246999994       832.557129       1.51266873    
  -1.07104599       5.38451099     -0.157000005       832.557129       1.51266873    
   1.07104599       5.38451099     -0.157000005       833.573242       1.51287305    
  0.930077016       4.67581606     -0.246999994       833.573242       1.51287305    
   0.00000000       4.76741982     -0.246999994       833.573242       1.51287305    
   0.00000000       5.48999977     -0.157000005       833.573242       1.51287305    
   2.10093188       5.07209921     -0.157000005       801.373047       1.51283181    
   1.82441294       4.40452194     -0.246999994       801.373047       1.51283181    
  0.930077016       4.67581606     -0.246999994       801.373047       1.51283181    
   1.07104599       5.38451099     -0.157000005       801.373047       1.51283181    
   3.05008101       4.56476784     -0.157000005       739.476868       1.51303875    
   2.64863706       3.96396494     -0.246999994       739.476868       1.51303875    
   1.82441294       4.40452194     -0.246999994       739.476868       1.51303875    
   2.10093188       5.07209921     -0.157000005       739.476868       1.51303875    
   3.88201594       3.88201594     -0.157000005       652.441589       1.51375568    
   3.37107491       3.37107491     -0.246999994       652.441589       1.51375568    
   2.64863706       3.96396494     -0.246999994       652.441589       1.51375568    
   3.05008101       4.56476784     -0.157000005       652.441589       1.51375568    
   4.56476784       3.05008101     -0.157000005       536.116638       1.51419640    
   3.96396494       2.64863706     -0.246999994       536.116638       1.51419640    
   3.37107491       3.37107491     -0.246999994       536.116638       1.51419640    
   3.88201594       3.88201594     -0.157000005       536.116638       1.51419640    
   5.07209921       2.10093188     -0.157000005       395.857422       1.51461852    
   4.40452194       1.82441294     -0.246999994       395.857422       1.51461852    
   3.96396494       2.64863706     -0.246999994       395.857422       1.51461852    
   4.56476784       3.05008101     -0.157000005       395.857422       1.51461852    
   5.38451099       1.07104599     -0.157000005       240.569595       1.51552272    
   4.67581606      0.930077016     -0.246999994       240.569595       1.51552272    
   4.40452194       1.82441294     -0.246999994       240.569595       1.51552272    
   5.07209921       2.10093188     -0.157000005       240.569595       1.51552272    
   5.48999977       0.00000000     -0.157000005       79.7686005       1.52347207    
   4.76741982       0.00000000     -0.246999994       79.7686005       1.52347207    
   4.67581606      0.930077016     -0.246999994       79.7686005       1.52347207    
   5.38451099       1.07104599     -0.157000005       79.7686005       1.52347207    
   5.38451099      -1.07104599     -0.157000005       82.1252136      -1.64300776    
   4.67581606     -0.930077016     -0.246999994       82.1252136      -1.64300776    
   4.76741982       0.00000000     -0.246999994       82.1252136      -1.64300776    
   5.48999977       0.00000000     -0.157000005       82.1252136      -1.64300776    
   5.07209921      -2.10093188     -0.157000005       242.660767      -1.63447583    
   4.40452194      -1.82441294     -0.246999994       242.660767      -1.63447583    
   4.67581606     -0.930077016     -0.246999994       242.660767      -1.63447583    
   5.38451099      -1.07104599     -0.157000005       242.660767      -1.63447583    
   4.56476784      -3.05008101     -0.157000005       396.289398      -1.63243151    
   3.96396494      -2.64863706     -0.246999994       396.289398      -1.63243151    
   4.40452194      -1.82441294     -0.246999994       396.289398      -1.63243151    
   5.07209921      -2.10093188     -0.157000005       396.289398      -1.63243151    
   3.88201594      -3.88201594     -0.157000005       533.925781      -1.63163483    
   3.37107491      -3.37107491     -0.246999994       533.925781      -1.63163483    
   3.96396494      -2.64863706     -0.246999994       533.925781      -1.63163483    
   4.56476784      -3.05008101     -0.157000005       533.925781      -1.63163483    
   3.05008101      -4.56476784     -0.157000005       647.417542      -1.63141274    
   2.64863706      -3.96396494     -0.246999994       647.417542      -1.63141274    
   3.37107491      -3.37107491     -0.246999994       647.417542      -1.63141274    
   3.88201594      -3.88201594     -0.157000005       647.417542      -1.63141274    
   2.10093188      -5.07209921     -0.157000005       733.619751      -1.63169646    
   1.82441294      -4.40452194     -0.246999994       733.619751      -1.63169646    
   2.64863706      -3.96396494     -0.246999994       733.619751      -1.63169646    
   3.05008101      -4.56476784     -0.157000005       733.619751      -1.63169646    
   1.07104599      -5.38451099     -0.157000005       795.583496      -1.63160849    
  0.930077016      -4.67581606     -0.246999994       795.583496      -1.63160849    
   1.82441294      -4.40452194     -0.246999994       795.583496      -1.63160849    
   2.10093188      -5.07209921     -0.157000005       795.583496      -1.63160849    
   0.00000000      -1.87709999     -0.606999993       5326.91895      -1.57323480    
   0.00000000      -1.36500001     -0.606999993       5326.91895      -1.57323480    
  0.266297996      -1.33877206     -0.606999993       5326.91895      -1.57323480    
  0.366203994      -1.84103203     -0.606999993       5326.91895      -1.57323480    
   0.00000000      -1.87709999     -0.606999993       3177.70020      -1.57758486    
   0.00000000      -2.59967995     -0.517000020       3177.70020      -1.57758486    
 -0.507171988      -2.54972792     -0.517000020       3177.70020      -1.57758486    
 -0.366203994      -1.84103203     -0.606999993       3177.70020      -1.57758486    
 -0.366203994      -1.84103203     -0.606999993       5334.07129      -1.57323205    
 -0.266297996      -1.33877206     -0.606999993       5334.07129      -1.57323205    
   0.00000000      -1.36500001     -0.606999993       5334.07129      -1.57323205    
   0.00000000      -1.87709999     -0.606999993       5334.07129      -1.57323205    
 -0.366203994      -1.84103203     -0.606999993       3079.69189      -1.57755721    
 -0.507171988      -2.54972792     -0.517000020       3079.69189      -1.57755721    
 -0.994853973      -2.40179110     -0.517000020       3079.69189      -1.57755721    
 -0.718334973      -1.73421395     -0.606999993       3079.69189      -1.57755721    
 -0.718334973      -1.73421395     -0.606999993       5151.70996      -1.57323790    
 -0.522363007      -1.26109600     -0.606999993       5151.70996      -1.57323790    
 -0.266297996      -1.33877206     -0.606999993       5151.70996      -1.57323790    
 -0.366203994      -1.84103203     -0.606999993       5151.70996      -1.57323790    
 -0.718334973      -1.73421395     -0.606999993       2874.00806      -1.57752693    
 -0.994853973      -2.40179110     -0.517000020       2874.00806      -1.57752693    
  -1.44430494      -2.16155505     -0.517000020       2874.00806      -1.57752693    
  -1.04286098      -1.56075203     -0.606999993       2874.00806      -1.57752693    
  -1.04286098      -1.56075203     -0.606999993       4777.87109      -1.57325327    
 -0.758352995      -1.13495600     -0.606999993       4777.87109      -1.57325327    
 -0.522363007      -1.26109600     -0.606999993       4777.87109      -1.57325327    
 -0.718334973      -1.73421395     -0.606999993       4777.87109      -1.57325327    
  -1.04286098      -1.56075203     -0.606999993       2550.82031      -1.57751501    
  -1.44430494      -2.16155505     -0.517000020       2550.82031      -1.57751501    
  -1.83825099      -1.83825099     -0.517000020       2550.82031      -1.57751501    
  -1.32730997      -1.32730997     -0.606999993       2550.82031      -1.57751501    
  -1.32730997      -1.32730997     -0.606999993       4213.52881      -1.57327819    
 -0.965201020     -0.965201020     -0.606999993       4213.52881      -1.57327819    
 -0.758352995      -1.13495600     -0.606999993       4213.52881      -1.57327819    
  -1.04286098      -1.56075203     -0.606999993       4213.52881      -1.57327819    
  -1.32730997      -1.32730997     -0.606999993       2105.91577      -1.57755089    
  -1.83825099      -1.83825099     -0.517000020       2105.91577      -1.57755089    
  -2.16155505      -1.44430494     -0.517000020       2105.91577      -1.57755089    
  -1.56075203      -1.04286098     -0.606999993       2105.91577      -1.57755089    
  -1.56075203      -1.04286098     -0.606999993       3472.39868      -1.57331669    
  -1.13495600     -0.758352995     -0.606999993       3472.39868      -1.57331669    
 -0.965201020     -0.965201020     -0.606999993       3472.39868      -1.57331669    
  -1.32730997      -1.32730997     -0.606999993       3472.39868      -1.57331669    
  -1.56075203      -1.04286098     -0.606999993       1557.40894      -1.57767045    
  -2.16155505      -1.44430494     -0.517000020       1557.40894      -1.57767045    
  -2.40179110     -0.994853973     -0.517000020       1557.40894      -1.57767045    
  -1.73421395     -0.718334973     -0.606999993       1557.40894      -1.57767045    
  -1.73421395     -0.718334973     -0.606999993       2587.39673      -1.57338345    
  -1.26109600     -0.522363007     -0.606999993       2587.39673      -1.57338345    
  -1.13495600     -0.758352995     -0.606999993       2587.39673      -1.57338345    
  -1.56075203      -1.04286098     -0.606999993       2587.39673      -1.57338345    
  -1.73421395     -0.718334973     -0.606999993       952.818359      -1.57794917    
  -2.40179110     -0.994853973     -0.517000020       952.818359      -1.57794917    
  -2.54972792     -0.507171988     -0.517000020       952.818359      -1.57794917    
  -1.84103203     -0.366203994     -0.606999993       952.818359      -1.57794917    
  -1.84103203     -0.366203994     -0.606999993       1605.64453      -1.57354677    
  -1.33877206     -0.266297996     -0.606999993       1605.64453      -1.57354677    
  -1.26109600     -0.522363007     -0.606999993       1605.64453      -1.57354677    
  -1.73421395     -0.718334973     -0.606999993       1605.64453      -1.57354677    
  -1.84103203     -0.366203994     -0.606999993       338.147064      -1.57905042    
  -2.54972792     -0.507171988     -0.517000020       338.147064      -1.57905042    
  -2.59967995       0.00000000     -0.517000020       338.147064      -1.57905042    
  -1.87709999       0.00000000     -0.606999993       338.147064      -1.57905042    
  -1.87709999       0.00000000     -0.606999993       574.955872      -1.57435775    
  -1.36500001       0.00000000     -0.606999993       574.955872      -1.57435775    
  -1.33877206     -0.266297996     -0.606999993       574.955872      -1.57435775    
  -1.84103203     -0.366203994     -0.606999993       574.955872      -1.57435775    
  -1.87709999       0.00000000     -0.606999993       268.338043       1.56621325    
  -2.59967995       0.00000000     -0.517000020       268.338043       1.56621325    
  -2.54972792      0.507171988     -0.517000020       268.338043       1.56621325    
  -1.84103203      0.366203994     -0.606999993       268.338043       1.56621325    
  -1.84103203      0.366203994     -0.606999993       467.392853       1.57009327    
  -1.33877206      0.266297996     -0.606999993       467.392853       1.57009327    
  -1.36500001       0.00000000     -0.606999993       467.392853       1.57009327    
  -1.87709999       0.00000000     -0.606999993       467.392853       1.57009327    
  -1.84103203      0.366203994     -0.606999993       874.371216       1.56483448    
  -2.54972792      0.507171988     -0.517000020       874.371216       1.56483448    
  -2.40179110      0.994853973     -0.517000020       874.371216       1.56483448    
  -1.73421395      0.718334973     -0.606999993       874.371216       1.56483448    
  -1.73421395      0.718334973     -0.606999993       1494.79114       1.56901002    
  -1.26109600      0.522363007     -0.606999993       1494.79114       1.56901002    
  -1.33877206      0.266297996     -0.606999993       1494.79114       1.56901002    
  -1.84103203      0.366203994     -0.606999993       1494.79114       1.56901002    
  -1.73421395      0.718334973     -0.606999993       1473.13428       1.56464565    
  -2.40179110      0.994853973     -0.517000020       1473.13428       1.56464565    
  -2.16155505       1.44430494     -0.517000020       1473.13428       1.56464565    
  -1.56075203       1.04286098     -0.606999993       1473.13428       1.56464565    
  -1.56075203       1.04286098     -0.606999993       2475.61401       1.56881022    
  -1.13495600      0.758352995     -0.606999993       2475.61401       1.56881022    
  -1.26109600      0.522363007     -0.606999993       2475.61401       1.56881022    
  -1.73421395      0.718334973     -0.606999993       2475.61401       1.56881022    
  -1.56075203       1.04286098     -0.606999993       2027.61389       1.56459713    
  -2.16155505       1.44430494     -0.517000020       2027.61389       1.56459713    
  -1.83825099       1.83825099     -0.517000020       2027.61389       1.56459713    
  -1.32730997       1.32730997     -0.606999993       2027.61389       1.56459713    
  -1.32730997       1.32730997     -0.606999993       3366.92334       1.56872880    
 -0.965201020      0.965201020     -0.606999993       3366.92334       1.56872880    
  -1.13495600      0.758352995     -0.606999993       3366.92334       1.56872880    
  -1.56075203       1.04286098     -0.606999993       3366.92334       1.56872880    
  -1.32730997       1.32730997     -0.606999993       2488.33179       1.56456780    
  -1.83825099       1.83825099     -0.517000020       2488.33179       1.56456780    
  -1.44430494       2.16155505     -0.517000020       2488.33179       1.56456780    
  -1.04286098       1.56075203     -0.606999993       2488.33179       1.56456780    
  -1.04286098       1.56075203     -0.606999993       4121.14014       1.56869113    
 -0.758352995       1.13495600     -0.606999993       4121.14014       1.56869113    
 -0.965201020      0.965201020     -0.606999993       4121.14014       1.56869113    
  -1.32730997       1.32730997     -0.606999993       4121.14014       1.56869113    
  -1.04286098       1.56075203     -0.606999993       2828.98120       1.56453371    
  -1.44430494       2.16155505     -0.517000020       2828.98120       1.56453371    
 -0.994853973       2.40179110     -0.517000020       2828.98120       1.56453371    
 -0.718334973       1.73421395     -0.606999993       2828.98120       1.56453371    
 -0.718334973       1.73421395     -0.606999993       4703.41211       1.56867516    
 -0.522363007       1.26109600     -0.606999993       4703.41211       1.56867516    
 -0.758352995       1.13495600     -0.606999993       4703.41211       1.56867516    
  -1.04286098       1.56075203     -0.606999993       4703.41211       1.56867516    
 -0.718334973       1.73421395     -0.606999993       3049.22363       1.56450284    
 -0.994853973       2.40179110     -0.517000020       3049.22363       1.56450284    
 -0.507171988       2.54972792     -0.517000020       3049.22363       1.56450284    
 -0.366203994       1.84103203     -0.606999993       3049.22363       1.56450284    
 -0.366203994       1.84103203     -0.606999993       5096.19336       1.56867027    
 -0.266297996       1.33877206     -0.606999993       5096.19336       1.56867027    
 -0.522363007       1.26109600     -0.606999993       5096.19336       1.56867027    
 -0.718334973       1.73421395     -0.606999993       5096.19336       1.56867027    
 -0.366203994       1.84103203     -0.606999993       3158.67261       1.56448913    
 -0.507171988       2.54972792     -0.517000020       3158.67261       1.56448913    
   0.00000000       2.59967995     -0.517000020       3158.67261       1.56448913    
   0.00000000       1.87709999     -0.606999993       3158.67261       1.56448913    
   0.00000000       1.87709999     -0.606999993       5296.22363       1.56867123    
   0.00000000       1.36500001     -0.606999993       5296.22363       1.56867123    
 -0.266297996       1.33877206     -0.606999993       5296.22363       1.56867123    
 -0.366203994       1.84103203     -0.606999993       5296.22363       1.56867123    
   0.00000000       1.87709999     -0.606999993       3163.37500       1.56450331    
   0.00000000       2.59967995     -0.517000020       3163.37500       1.56450331    
  0.507171988       2.54972792     -0.517000020       3163.37500       1.56450331    
  0.366203994       1.84103203     -0.606999993       3163.37500       1.56450331    
  0.366203994       1.84103203     -0.606999993       5304.02148       1.56867576    
  0.266297996       1.33877206     -0.606999993       5304.02148       1.56867576    
   0.00000000       1.36500001     -0.606999993       5304.02148       1.56867576    
   0.00000000       1.87709999     -0.606999993       5304.02148       1.56867576    
  0.366203994       1.84103203     -0.606999993       3063.15967       1.56454587    
  0.507171988       2.54972792     -0.517000020       3063.15967       1.56454587    
  0.994853973       2.40179110     -0.517000020       3063.15967       1.56454587    
  0.718334973       1.73421395     -0.606999993       3063.15967       1.56454587    
  0.718334973       1.73421395     -0.606999993       5119.34424       1.56868422    
  0.522363007       1.26109600     -0.606999993       5119.34424       1.56868422    
  0.266297996       1.33877206     -0.606999993       5119.34424       1.56868422    
  0.366203994       1.84103203     -0.606999993       5119.34424       1.56868422    
  0.718334973       1.73421395     -0.606999993       2851.79370       1.56460881    
  0.994853973       2.40179110     -0.517000020       2851.79370       1.56460881    
   1.44430494       2.16155505     -0.517000020       2851.79370       1.56460881    
   1.04286098       1.56075203     -0.606999993       2851.79370       1.56460881    
   1.04286098       1.56075203     -0.606999993       4740.88477       1.56869864    
  0.758352995       1.13495600     -0.606999993       4740.88477       1.56869864    
  0.522363007       1.26109600     -0.606999993       4740.88477       1.56869864    
  0.718334973       1.73421395     -0.606999993       4740.88477       1.56869864    
   1.04286098       1.56075203     -0.606999993       2519.29785       1.56468129    
   1.44430494       2.16155505     -0.517000020       2519.29785       1.56468129    
   1.83825099       1.83825099     -0.517000020       2519.29785       1.56468129    
   1.32730997       1.32730997     -0.606999993       2519.29785       1.56468129    
   1.32730997       1.32730997     -0.606999993       4171.68213       1.56872642    
  0.965201020      0.965201020     -0.606999993       4171.68213       1.56872642    
  0.758352995       1.13495600     -0.606999993       4171.68213       1.56872642    
   1.04286098       1.56075203     -0.606999993       4171.68213       1.56872642    
   1.32730997       1.32730997     -0.606999993       2065.41626       1.56476486    
   1.83825099       1.83825099     -0.517000020       2065.41626       1.56476486    
   2.16155505       1.44430494     -0.517000020       2065.41626       1.56476486    
   1.56075203       1.04286098     -0.606999993       2065.41626       1.56476486    
   1.56075203       1.04286098     -0.606999993       3428.17432       1.56877911    
   1.13495600      0.758352995     -0.606999993       3428.17432       1.56877911    
  0.965201020      0.965201020     -0.606999993       3428.17432       1.56877911    
   1.32730997       1.32730997     -0.606999993       3428.17432       1.56877911    
   1.56075203       1.04286098     -0.606999993       1515.73035       1.56490040    
   2.16155505       1.44430494     -0.517000020       1515.73035       1.56490040    
   2.40179110      0.994853973     -0.517000020       1515.73035       1.56490040    
   1.73421395      0.718334973     -0.606999993       1515.73035       1.56490040    
   1.73421395      0.718334973     -0.606999993       2543.86768       1.56888103    
   1.26109600      0.522363007     -0.606999993       2543.86768       1.56888103    
   1.13495600      0.758352995     -0.606999993       2543.86768       1.56888103    
   1.56075203       1.04286098     -0.606999993       2543.86768       1.56888103    
   1.73421395      0.718334973     -0.606999993       919.636108       1.56527102    
   2.40179110      0.994853973     -0.517000020       919.636108       1.56527102    
   2.54972792      0.507171988     -0.517000020       919.636108       1.56527102    
   1.84103203      0.366203994     -0.606999993       919.636108       1.56527102    
   1.84103203      0.366203994     -0.606999993       1567.04822       1.56911790    
   1.33877206      0.266297996     -0.606999993       1567.04822       1.56911790    
   1.26109600      0.522363007     -0.606999993       1567.04822       1.56911790    
   1.73421395      0.718334973     -0.606999993       1567.04822       1.56911790    
   1.84103203      0.366203994     -0.606999993       314.496796       1.56730247    
   2.54972792      0.507171988     -0.517000020       314.496796       1.56730247    
   2.59967995       0.00000000     -0.517000020       314.496796       1.56730247    
   1.87709999       0.00000000     -0.606999993       314.496796       1.56730247    
   1.87709999       0.00000000     -0.606999993       541.150757       1.57025254    
   1.36500001       0.00000000     -0.606999993       541.150757       1.57025254    
   1.33877206      0.266297996     -0.606999993       541.150757       1.57025254    
   1.84103203      0.366203994     -0.606999993       541.150757       1.57025254    
   1.87709999       0.00000000     -0.606999993       292.623871      -1.58076894    
   2.59967995       0.00000000     -0.517000020       292.623871      -1.58076894    
   2.54972792     -0.507171988     -0.517000020       292.623871      -1.58076894    
   1.84103203     -0.366203994     -0.606999993       292.623871      -1.58076894    
   1.84103203     -0.366203994     -0.606999993       502.408966      -1.57492197    
   1.33877206     -0.266297996     -0.606999993       502.408966      -1.57492197    
   1.36500001       0.00000000     -0.606999993       502.408966      -1.57492197    
   1.87709999       0.00000000     -0.606999993       502.408966      -1.57492197    
   1.84103203     -0.366203994     -0.606999993       909.389099      -1.57842183    
   2.54972792     -0.507171988     -0.517000020       909.389099      -1.57842183    
   2.40179110     -0.994853973     -0.517000020       909.389099      -1.57842183    
   1.73421395     -0.718334973     -0.606999993       909.389099      -1.57842183    
   1.73421395     -0.718334973     -0.606999993       1537.01404      -1.57367921    
   1.26109600     -0.522363007     -0.606999993       1537.01404      -1.57367921    
   1.33877206     -0.266297996     -0.606999993       1537.01404      -1.57367921    
   1.84103203     -0.366203994     -0.606999993       1537.01404      -1.57367921    
   1.73421395     -0.718334973     -0.606999993       1517.57642      -1.57792068    
   2.40179110     -0.994853973     -0.517000020       1517.57642      -1.57792068    
   2.16155505      -1.44430494     -0.517000020       1517.57642      -1.57792068    
   1.56075203      -1.04286098     -0.606999993       1517.57642      -1.57792068    
   1.56075203      -1.04286098     -0.606999993       2525.33594      -1.57344842    
   1.13495600     -0.758352995     -0.606999993       2525.33594      -1.57344842    
   1.26109600     -0.522363007     -0.606999993       2525.33594      -1.57344842    