 VARIABLES="X" "Y" "Z" "abs(p) (Pa)" "angle(p) (rad)"
ZONE N=   2709,E =    2358, F=FEPOINT, ET=QUADRILATERAL
   0.00000000      -5.48999977     -0.157000005       234.917999      -1.56109393    
   0.00000000      -4.76741982     -0.246999994       234.917999      -1.56109393    
  0.930077016      -4.67581606     -0.246999994       234.917999      -1.56109393    
   1.07104599      -5.38451099     -0.157000005       234.917999      -1.56109393    
  -1.07104599      -5.38451099     -0.157000005       234.640884      -1.56378770    
 -0.930077016      -4.67581606     -0.246999994       234.640884      -1.56378770    
   0.00000000      -4.76741982     -0.246999994       234.640884      -1.56378770    
   0.00000000      -5.48999977     -0.157000005       234.640884      -1.56378770    
  -2.10093188      -5.07209921     -0.157000005       229.369507      -1.55642247    
  -1.82441294      -4.40452194     -0.246999994       229.369507      -1.55642247    
 -0.930077016      -4.67581606     -0.246999994       229.369507      -1.55642247    
  -1.07104599      -5.38451099     -0.157000005       229.369507      -1.55642247    
  -3.05008101      -4.56476784     -0.157000005       203.159012      -1.56362677    
  -2.64863706      -3.96396494     -0.246999994       203.159012      -1.56362677    
  -1.82441294      -4.40452194     -0.246999994       203.159012      -1.56362677    
  -2.10093188      -5.07209921     -0.157000005       203.159012      -1.56362677    
  -3.88201594      -3.88201594     -0.157000005       182.571854      -1.56134403    
  -3.37107491      -3.37107491     -0.246999994       182.571854      -1.56134403    
  -2.64863706      -3.96396494     -0.246999994       182.571854      -1.56134403    
  -3.05008101      -4.56476784     -0.157000005       182.571854      -1.56134403    
  -4.56476784      -3.05008101     -0.157000005       158.019333      -1.55911875    
  -3.96396494      -2.64863706     -0.246999994       158.019333      -1.55911875    
  -3.37107491      -3.37107491     -0.246999994       158.019333      -1.55911875    
  -3.88201594      -3.88201594     -0.157000005       158.019333      -1.55911875    
  -5.07209921      -2.10093188     -0.157000005       114.275101      -1.56615627    
  -4.40452194      -1.82441294     -0.246999994       114.275101      -1.56615627    
  -3.96396494      -2.64863706     -0.246999994       114.275101      -1.56615627    
  -4.56476784      -3.05008101     -0.157000005       114.275101      -1.56615627    
  -5.38451099      -1.07104599     -0.157000005       67.6483307      -1.55583942    
  -4.67581606     -0.930077016     -0.246999994       67.6483307      -1.55583942    
  -4.40452194      -1.82441294     -0.246999994       67.6483307      -1.55583942    
  -5.07209921      -2.10093188     -0.157000005       67.6483307      -1.55583942    
  -5.48999977       0.00000000     -0.157000005       22.5346699      -1.58249843    
  -4.76741982       0.00000000     -0.246999994       22.5346699      -1.58249843    
  -4.67581606     -0.930077016     -0.246999994       22.5346699      -1.58249843    
  -5.38451099      -1.07104599     -0.157000005       22.5346699      -1.58249843    
  -5.38451099       1.07104599     -0.157000005       21.8663349       1.56727946    
  -4.67581606      0.930077016     -0.246999994       21.8663349       1.56727946    
  -4.76741982       0.00000000     -0.246999994       21.8663349       1.56727946    
  -5.48999977       0.00000000     -0.157000005       21.8663349       1.56727946    
  -5.07209921       2.10093188     -0.157000005       67.6781006       1.58800542    
  -4.40452194       1.82441294     -0.246999994       67.6781006       1.58800542    
  -4.67581606      0.930077016     -0.246999994       67.6781006       1.58800542    
  -5.38451099       1.07104599     -0.157000005       67.6781006       1.58800542    
  -4.56476784       3.05008101     -0.157000005       116.872086       1.58236349    
  -3.96396494       2.64863706     -0.246999994       116.872086       1.58236349    
  -4.40452194       1.82441294     -0.246999994       116.872086       1.58236349    
  -5.07209921       2.10093188     -0.157000005       116.872086       1.58236349    
  -3.88201594       3.88201594     -0.157000005       157.135834       1.57817483    
  -3.37107491       3.37107491     -0.246999994       157.135834       1.57817483    
  -3.96396494       2.64863706     -0.246999994       157.135834       1.57817483    
  -4.56476784       3.05008101     -0.157000005       157.135834       1.57817483    
  -3.05008101       4.56476784     -0.157000005       193.669876       1.58500636    
  -2.64863706       3.96396494     -0.246999994       193.669876       1.58500636    
  -3.37107491       3.37107491     -0.246999994       193.669876       1.58500636    
  -3.88201594       3.88201594     -0.157000005       193.669876       1.58500636    
  -2.10093188       5.07209921     -0.157000005       207.953156       1.57786012    
  -1.82441294       4.40452194     -0.246999994       207.953156       1.57786012    
  -2.64863706       3.96396494     -0.246999994       207.953156       1.57786012    
  -3.05008101       4.56476784     -0.157000005       207.953156       1.57786012    
  -1.07104599       5.38451099     -0.157000005       233.388535       1.58592856    
 -0.930077016       4.67581606     -0.246999994       233.388535       1.58592856    
  -1.82441294       4.40452194     -0.246999994       233.388535       1.58592856    
  -2.10093188       5.07209921     -0.157000005       233.388535       1.58592856    
   0.00000000       5.48999977     -0.157000005       239.999115       1.57797396    
   0.00000000       4.76741982     -0.246999994       239.999115       1.57797396    
 -0.930077016       4.67581606     -0.246999994       239.999115       1.57797396    
  -1.07104599       5.38451099     -0.157000005       239.999115       1.57797396    
   1.07104599       5.38451099     -0.157000005       245.060883       1.58412445    
  0.930077016       4.67581606     -0.246999994       245.060883       1.58412445    
   0.00000000       4.76741982     -0.246999994       245.060883       1.58412445    
   0.00000000       5.48999977     -0.157000005       245.060883       1.58412445    
   2.10093188       5.07209921     -0.157000005       228.285309       1.57996380    
   1.82441294       4.40452194     -0.246999994       228.285309       1.57996380    
  0.930077016       4.67581606     -0.246999994       228.285309       1.57996380    
   1.07104599       5.38451099     -0.157000005       228.285309       1.57996380    
   3.05008101       4.56476784     -0.157000005       208.333099       1.57889998    
   2.64863706       3.96396494     -0.246999994       208.333099       1.57889998    
   1.82441294       4.40452194     -0.246999994       208.333099       1.57889998    
   2.10093188       5.07209921     -0.157000005       208.333099       1.57889998    
   3.88201594       3.88201594     -0.157000005       192.594925       1.58483481    
   3.37107491       3.37107491     -0.246999994       192.594925       1.58483481    
   2.64863706       3.96396494     -0.246999994       192.594925       1.58483481    
   3.05008101       4.56476784     -0.157000005       192.594925       1.58483481    
   4.56476784       3.05008101     -0.157000005       159.015762       1.57760203    
   3.96396494       2.64863706     -0.246999994       159.015762       1.57760203    
   3.37107491       3.37107491     -0.246999994       159.015762       1.57760203    
   3.88201594       3.88201594     -0.157000005       159.015762       1.57760203    
   5.07209921       2.10093188     -0.157000005       115.663933       1.58400166    
   4.40452194       1.82441294     -0.246999994       115.663933       1.58400166    
   3.96396494       2.64863706     -0.246999994       115.663933       1.58400166    
   4.56476784       3.05008101     -0.157000005       115.663933       1.58400166    
   5.38451099       1.07104599     -0.157000005       65.7582397       1.57723737    
   4.67581606      0.930077016     -0.246999994       65.7582397       1.57723737    
   4.40452194       1.82441294     -0.246999994       65.7582397       1.57723737    
   5.07209921       2.10093188     -0.157000005       65.7582397       1.57723737    
   5.48999977       0.00000000     -0.157000005       20.9797325       1.58636928    
   4.76741982       0.00000000     -0.246999994       20.9797325       1.58636928    
   4.67581606      0.930077016     -0.246999994       20.9797325       1.58636928    
   5.38451099       1.07104599     -0.157000005       20.9797325       1.58636928    
   5.38451099      -1.07104599     -0.157000005       23.0457706      -1.55867326    
   4.67581606     -0.930077016     -0.246999994       23.0457706      -1.55867326    
   4.76741982       0.00000000     -0.246999994       23.0457706      -1.55867326    
   5.48999977       0.00000000     -0.157000005       23.0457706      -1.55867326    
   5.07209921      -2.10093188     -0.157000005       67.9093857      -1.56248939    
   4.40452194      -1.82441294     -0.246999994       67.9093857      -1.56248939    
   4.67581606     -0.930077016     -0.246999994       67.9093857      -1.56248939    
   5.38451099      -1.07104599     -0.157000005       67.9093857      -1.56248939    
   4.56476784      -3.05008101     -0.157000005       114.970390      -1.56203949    
   3.96396494      -2.64863706     -0.246999994       114.970390      -1.56203949    
   4.40452194      -1.82441294     -0.246999994       114.970390      -1.56203949    
   5.07209921      -2.10093188     -0.157000005       114.970390      -1.56203949    
   3.88201594      -3.88201594     -0.157000005       155.226227      -1.56315863    
   3.37107491      -3.37107491     -0.246999994       155.226227      -1.56315863    
   3.96396494      -2.64863706     -0.246999994       155.226227      -1.56315863    
   4.56476784      -3.05008101     -0.157000005       155.226227      -1.56315863    
   3.05008101      -4.56476784     -0.157000005       186.437729      -1.55796385    
   2.64863706      -3.96396494     -0.246999994       186.437729      -1.55796385    
   3.37107491      -3.37107491     -0.246999994       186.437729      -1.55796385    
   3.88201594      -3.88201594     -0.157000005       186.437729      -1.55796385    
   2.10093188      -5.07209921     -0.157000005       203.327728      -1.56198370    
   1.82441294      -4.40452194     -0.246999994       203.327728      -1.56198370    
   2.64863706      -3.96396494     -0.246999994       203.327728      -1.56198370    
   3.05008101      -4.56476784     -0.157000005       203.327728      -1.56198370    
   1.07104599      -5.38451099     -0.157000005       225.301407      -1.56241512    
  0.930077016      -4.67581606     -0.246999994       225.301407      -1.56241512    
   1.82441294      -4.40452194     -0.246999994       225.301407      -1.56241512    
   2.10093188      -5.07209921     -0.157000005       225.301407      -1.56241512    
   0.00000000      -1.87709999     -0.606999993       11455.0283      -1.57055497    
   0.00000000      -1.36500001     -0.606999993       11455.0283      -1.57055497    
  0.266297996      -1.33877206     -0.606999993       11455.0283      -1.57055497    
  0.366203994      -1.84103203     -0.606999993       11455.0283      -1.57055497    
   0.00000000      -1.87709999     -0.606999993       2260.49268      -1.57128596    
   0.00000000      -2.59967995     -0.517000020       2260.49268      -1.57128596    
 -0.507171988      -2.54972792     -0.517000020       2260.49268      -1.57128596    
 -0.366203994      -1.84103203     -0.606999993       2260.49268      -1.57128596    
 -0.366203994      -1.84103203     -0.606999993       11464.5820      -1.57060647    
 -0.266297996      -1.33877206     -0.606999993       11464.5820      -1.57060647    
   0.00000000      -1.36500001     -0.606999993       11464.5820      -1.57060647    
   0.00000000      -1.87709999     -0.606999993       11464.5820      -1.57060647    
 -0.366203994      -1.84103203     -0.606999993       2265.22705      -1.57204545    
 -0.507171988      -2.54972792     -0.517000020       2265.22705      -1.57204545    
 -0.994853973      -2.40179110     -0.517000020       2265.22705      -1.57204545    
 -0.718334973      -1.73421395     -0.606999993       2265.22705      -1.57204545    
 -0.718334973      -1.73421395     -0.606999993       11125.6719      -1.57095993    
 -0.522363007      -1.26109600     -0.606999993       11125.6719      -1.57095993    
 -0.266297996      -1.33877206     -0.606999993       11125.6719      -1.57095993    
 -0.366203994      -1.84103203     -0.606999993       11125.6719      -1.57095993    
 -0.718334973      -1.73421395     -0.606999993       2209.97803      -1.57323718    
 -0.994853973      -2.40179110     -0.517000020       2209.97803      -1.57323718    
  -1.44430494      -2.16155505     -0.517000020       2209.97803      -1.57323718    
  -1.04286098      -1.56075203     -0.606999993       2209.97803      -1.57323718    
  -1.04286098      -1.56075203     -0.606999993       10388.2754      -1.57150173    
 -0.758352995      -1.13495600     -0.606999993       10388.2754      -1.57150173    
 -0.522363007      -1.26109600     -0.606999993       10388.2754      -1.57150173    
 -0.718334973      -1.73421395     -0.606999993       10388.2754      -1.57150173    
  -1.04286098      -1.56075203     -0.606999993       2021.58569      -1.57446098    
  -1.44430494      -2.16155505     -0.517000020       2021.58569      -1.57446098    
  -1.83825099      -1.83825099     -0.517000020       2021.58569      -1.57446098    
  -1.32730997      -1.32730997     -0.606999993       2021.58569      -1.57446098    
  -1.32730997      -1.32730997     -0.606999993       9200.13574      -1.57206154    
 -0.965201020     -0.965201020     -0.606999993       9200.13574      -1.57206154    
 -0.758352995      -1.13495600     -0.606999993       9200.13574      -1.57206154    
  -1.04286098      -1.56075203     -0.606999993       9200.13574      -1.57206154    
  -1.32730997      -1.32730997     -0.606999993       1658.04553      -1.57528424    
  -1.83825099      -1.83825099     -0.517000020       1658.04553      -1.57528424    
  -2.16155505      -1.44430494     -0.517000020       1658.04553      -1.57528424    
  -1.56075203      -1.04286098     -0.606999993       1658.04553      -1.57528424    
  -1.56075203      -1.04286098     -0.606999993       7567.28564      -1.57247269    
  -1.13495600     -0.758352995     -0.606999993       7567.28564      -1.57247269    
 -0.965201020     -0.965201020     -0.606999993       7567.28564      -1.57247269    
  -1.32730997      -1.32730997     -0.606999993       7567.28564      -1.57247269    
  -1.56075203      -1.04286098     -0.606999993       1148.78149      -1.57539153    
  -2.16155505      -1.44430494     -0.517000020       1148.78149      -1.57539153    
  -2.40179110     -0.994853973     -0.517000020       1148.78149      -1.57539153    
  -1.73421395     -0.718334973     -0.606999993       1148.78149      -1.57539153    
  -1.73421395     -0.718334973     -0.606999993       5576.47998      -1.57261610    
  -1.26109600     -0.522363007     -0.606999993       5576.47998      -1.57261610    
  -1.13495600     -0.758352995     -0.606999993       5576.47998      -1.57261610    
  -1.56075203      -1.04286098     -0.606999993       5576.47998      -1.57261610    
  -1.73421395     -0.718334973     -0.606999993       617.578308      -1.57444561    
  -2.40179110     -0.994853973     -0.517000020       617.578308      -1.57444561    
  -2.54972792     -0.507171988     -0.517000020       617.578308      -1.57444561    
  -1.84103203     -0.366203994     -0.606999993       617.578308      -1.57444561    
  -1.84103203     -0.366203994     -0.606999993       3374.24048      -1.57239342    
  -1.33877206     -0.266297996     -0.606999993       3374.24048      -1.57239342    
  -1.26109600     -0.522363007     -0.606999993       3374.24048      -1.57239342    
  -1.73421395     -0.718334973     -0.606999993       3374.24048      -1.57239342    
  -1.84103203     -0.366203994     -0.606999993       159.304642      -1.57032228    
  -2.54972792     -0.507171988     -0.517000020       159.304642      -1.57032228    
  -2.59967995       0.00000000     -0.517000020       159.304642      -1.57032228    
  -1.87709999       0.00000000     -0.606999993       159.304642      -1.57032228    
  -1.87709999       0.00000000     -0.606999993       1095.65540      -1.57102764    
  -1.36500001       0.00000000     -0.606999993       1095.65540      -1.57102764    
  -1.33877206     -0.266297996     -0.606999993       1095.65540      -1.57102764    
  -1.84103203     -0.366203994     -0.606999993       1095.65540      -1.57102764    
  -1.87709999       0.00000000     -0.606999993       228.409714       1.56433547    
  -2.59967995       0.00000000     -0.517000020       228.409714       1.56433547    
  -2.54972792      0.507171988     -0.517000020       228.409714       1.56433547    
  -1.84103203      0.366203994     -0.606999993       228.409714       1.56433547    
  -1.84103203      0.366203994     -0.606999993       1176.17395       1.56724143    
  -1.33877206      0.266297996     -0.606999993       1176.17395       1.56724143    
  -1.36500001       0.00000000     -0.606999993       1176.17395       1.56724143    
  -1.87709999       0.00000000     -0.606999993       1176.17395       1.56724143    
  -1.84103203      0.366203994     -0.606999993       639.632935       1.56622493    
  -2.54972792      0.507171988     -0.517000020       639.632935       1.56622493    
  -2.40179110      0.994853973     -0.517000020       639.632935       1.56622493    
  -1.73421395      0.718334973     -0.606999993       639.632935       1.56622493    
  -1.73421395      0.718334973     -0.606999993       3406.09644       1.56853867    
  -1.26109600      0.522363007     -0.606999993       3406.09644       1.56853867    
  -1.33877206      0.266297996     -0.606999993       3406.09644       1.56853867    
  -1.84103203      0.366203994     -0.606999993       3406.09644       1.56853867    
  -1.73421395      0.718334973     -0.606999993       1118.74512       1.56644607    
  -2.40179110      0.994853973     -0.517000020       1118.74512       1.56644607    
  -2.16155505       1.44430494     -0.517000020       1118.74512       1.56644607    
  -1.56075203       1.04286098     -0.606999993       1118.74512       1.56644607    
  -1.56075203       1.04286098     -0.606999993       5539.95117       1.56898057    
  -1.13495600      0.758352995     -0.606999993       5539.95117       1.56898057    
  -1.26109600      0.522363007     -0.606999993       5539.95117       1.56898057    
  -1.73421395      0.718334973     -0.606999993       5539.95117       1.56898057    
  -1.56075203       1.04286098     -0.606999993       1608.98303       1.56681061    
  -2.16155505       1.44430494     -0.517000020       1608.98303       1.56681061    
  -1.83825099       1.83825099     -0.517000020       1608.98303       1.56681061    
  -1.32730997       1.32730997     -0.606999993       1608.98303       1.56681061    
  -1.32730997       1.32730997     -0.606999993       7475.66309       1.56937623    
 -0.965201020      0.965201020     -0.606999993       7475.66309       1.56937623    
  -1.13495600      0.758352995     -0.606999993       7475.66309       1.56937623    
  -1.56075203       1.04286098     -0.606999993       7475.66309       1.56937623    
  -1.32730997       1.32730997     -0.606999993       1985.22742       1.56756091    
  -1.83825099       1.83825099     -0.517000020       1985.22742       1.56756091    
  -1.44430494       2.16155505     -0.517000020       1985.22742       1.56756091    
  -1.04286098       1.56075203     -0.606999993       1985.22742       1.56756091    
  -1.04286098       1.56075203     -0.606999993       9080.70703       1.56982923    
 -0.758352995       1.13495600     -0.606999993       9080.70703       1.56982923    
 -0.965201020      0.965201020     -0.606999993       9080.70703       1.56982923    
  -1.32730997       1.32730997     -0.606999993       9080.70703       1.56982923    
  -1.04286098       1.56075203     -0.606999993       2191.59326       1.56854272    
  -1.44430494       2.16155505     -0.517000020       2191.59326       1.56854272    
 -0.994853973       2.40179110     -0.517000020       2191.59326       1.56854272    
 -0.718334973       1.73421395     -0.606999993       2191.59326       1.56854272    
 -0.718334973       1.73421395     -0.606999993       10266.6328       1.57030833    
 -0.522363007       1.26109600     -0.606999993       10266.6328       1.57030833    
 -0.758352995       1.13495600     -0.606999993       10266.6328       1.57030833    
  -1.04286098       1.56075203     -0.606999993       10266.6328       1.57030833    
 -0.718334973       1.73421395     -0.606999993       2259.03296       1.56943750    
 -0.994853973       2.40179110     -0.517000020       2259.03296       1.56943750    
 -0.507171988       2.54972792     -0.517000020       2259.03296       1.56943750    
 -0.366203994       1.84103203     -0.606999993       2259.03296       1.56943750    
 -0.366203994       1.84103203     -0.606999993       11017.2969       1.57071137    
 -0.266297996       1.33877206     -0.606999993       11017.2969       1.57071137    
 -0.522363007       1.26109600     -0.606999993       11017.2969       1.57071137    
 -0.718334973       1.73421395     -0.606999993       11017.2969       1.57071137    
 -0.366203994       1.84103203     -0.606999993       2264.43555       1.56990480    
 -0.507171988       2.54972792     -0.517000020       2264.43555       1.56990480    
   0.00000000       2.59967995     -0.517000020       2264.43555       1.56990480    
   0.00000000       1.87709999     -0.606999993       2264.43555       1.56990480    
   0.00000000       1.87709999     -0.606999993       11374.8066       1.57092357    
   0.00000000       1.36500001     -0.606999993       11374.8066       1.57092357    
 -0.266297996       1.33877206     -0.606999993       11374.8066       1.57092357    
 -0.366203994       1.84103203     -0.606999993       11374.8066       1.57092357    
   0.00000000       1.87709999     -0.606999993       2268.61060       1.56980324    
   0.00000000       2.59967995     -0.517000020       2268.61060       1.56980324    
  0.507171988       2.54972792     -0.517000020       2268.61060       1.56980324    
  0.366203994       1.84103203     -0.606999993       2268.61060       1.56980324    
  0.366203994       1.84103203     -0.606999993       11380.0098       1.57087719    
  0.266297996       1.33877206     -0.606999993       11380.0098       1.57087719    
   0.00000000       1.36500001     -0.606999993       11380.0098       1.57087719    
   0.00000000       1.87709999     -0.606999993       11380.0098       1.57087719    
  0.366203994       1.84103203     -0.606999993       2270.23804       1.56916511    
  0.507171988       2.54972792     -0.517000020       2270.23804       1.56916511    
  0.994853973       2.40179110     -0.517000020       2270.23804       1.56916511    
  0.718334973       1.73421395     -0.606999993       2270.23804       1.56916511    
  0.718334973       1.73421395     -0.606999993       11029.8887       1.57058430    
  0.522363007       1.26109600     -0.606999993       11029.8887       1.57058430    
  0.266297996       1.33877206     -0.606999993       11029.8887       1.57058430    
  0.366203994       1.84103203     -0.606999993       11029.8887       1.57058430    
  0.718334973       1.73421395     -0.606999993       2206.04932       1.56818759    
  0.994853973       2.40179110     -0.517000020       2206.04932       1.56818759    
   1.44430494       2.16155505     -0.517000020       2206.04932       1.56818759    
   1.04286098       1.56075203     -0.606999993       2206.04932       1.56818759    
   1.04286098       1.56075203     -0.606999993       10278.3994       1.57013571    
  0.758352995       1.13495600     -0.606999993       10278.3994       1.57013571    
  0.522363007       1.26109600     -0.606999993       10278.3994       1.57013571    
  0.718334973       1.73421395     -0.606999993       10278.3994       1.57013571    
   1.04286098       1.56075203     -0.606999993       1998.44128       1.56721997    
   1.44430494       2.16155505     -0.517000020       1998.44128       1.56721997    
   1.83825099       1.83825099     -0.517000020       1998.44128       1.56721997    
   1.32730997       1.32730997     -0.606999993       1998.44128       1.56721997    
   1.32730997       1.32730997     -0.606999993       9081.66895       1.56965935    
  0.965201020      0.965201020     -0.606999993       9081.66895       1.56965935    
  0.758352995       1.13495600     -0.606999993       9081.66895       1.56965935    
   1.04286098       1.56075203     -0.606999993       9081.66895       1.56965935    
   1.32730997       1.32730997     -0.606999993       1616.19788       1.56659293    
   1.83825099       1.83825099     -0.517000020       1616.19788       1.56659293    
   2.16155505       1.44430494     -0.517000020       1616.19788       1.56659293    
   1.56075203       1.04286098     -0.606999993       1616.19788       1.56659293    
   1.56075203       1.04286098     -0.606999993       7456.94873       1.56926870    
   1.13495600      0.758352995     -0.606999993       7456.94873       1.56926870    
  0.965201020      0.965201020     -0.606999993       7456.94873       1.56926870    
   1.32730997       1.32730997     -0.606999993       7456.94873       1.56926870    
   1.56075203       1.04286098     -0.606999993       1116.73242       1.56651092    
   2.16155505       1.44430494     -0.517000020       1116.73242       1.56651092    
   2.40179110      0.994853973     -0.517000020       1116.73242       1.56651092    
   1.73421395      0.718334973     -0.606999993       1116.73242       1.56651092    
   1.73421395      0.718334973     -0.606999993       5496.21826       1.56901312    
   1.26109600      0.522363007     -0.606999993       5496.21826       1.56901312    
   1.13495600      0.758352995     -0.606999993       5496.21826       1.56901312    
   1.56075203       1.04286098     -0.606999993       5496.21826       1.56901312    
   1.73421395      0.718334973     -0.606999993       628.437256       1.56698549    
   2.40179110      0.994853973     -0.517000020       628.437256       1.56698549    
   2.54972792      0.507171988     -0.517000020       628.437256       1.56698549    
   1.84103203      0.366203994     -0.606999993       628.437256       1.56698549    
   1.84103203      0.366203994     -0.606999993       3340.03467       1.56885886    
   1.33877206      0.266297996     -0.606999993       3340.03467       1.56885886    
   1.26109600      0.522363007     -0.606999993       3340.03467       1.56885886    
   1.73421395      0.718334973     -0.606999993       3340.03467       1.56885886    
   1.84103203      0.366203994     -0.606999993       211.661896       1.56770158    
   2.54972792      0.507171988     -0.517000020       211.661896       1.56770158    
   2.59967995       0.00000000     -0.517000020       211.661896       1.56770158    
   1.87709999       0.00000000     -0.606999993       211.661896       1.56770158    
   1.87709999       0.00000000     -0.606999993       1097.32532       1.56863582    
   1.36500001       0.00000000     -0.606999993       1097.32532       1.56863582    
   1.33877206      0.266297996     -0.606999993       1097.32532       1.56863582    
   1.84103203      0.366203994     -0.606999993       1097.32532       1.56863582    
   1.87709999       0.00000000     -0.606999993       176.175919      -1.57518744    
   2.59967995       0.00000000     -0.517000020       176.175919      -1.57518744    
   2.54972792     -0.507171988     -0.517000020       176.175919      -1.57518744    
   1.84103203     -0.366203994     -0.606999993       176.175919      -1.57518744    
   1.84103203     -0.366203994     -0.606999993       1174.67041      -1.57258689    
   1.33877206     -0.266297996     -0.606999993       1174.67041      -1.57258689    
   1.36500001       0.00000000     -0.606999993       1174.67041      -1.57258689    
   1.87709999       0.00000000     -0.606999993       1174.67041      -1.57258689    
   1.84103203     -0.366203994     -0.606999993       628.801331      -1.57534826    
   2.54972792     -0.507171988     -0.517000020       628.801331      -1.57534826    
   2.40179110     -0.994853973     -0.517000020       628.801331      -1.57534826    
   1.73421395     -0.718334973     -0.606999993       628.801331      -1.57534826    
   1.73421395     -0.718334973     -0.606999993       3440.79102      -1.57274365    
   1.26109600     -0.522363007     -0.606999993       3440.79102      -1.57274365    
   1.33877206     -0.266297996     -0.606999993       3440.79102      -1.57274365    
   1.84103203     -0.366203994     -0.606999993       3440.79102      -1.57274365    
   1.73421395     -0.718334973     -0.606999993       1150.19592      -1.57553554    
   2.40179110     -0.994853973     -0.517000020       1150.19592      -1.57553554    
   2.16155505      -1.44430494     -0.517000020       1150.19592      -1.57553554    
   1.56075203      -1.04286098     -0.606999993       1150.19592      -1.57553554    
   1.56075203      -1.04286098     -0.606999993       5620.82129      -1.57266414    
   1.13495600     -0.758352995     -0.606999993       5620.82129      -1.57266414    
   1.26109600     -0.522363007     -0.606999993       5620.82129      -1.57266414    