 VARIABLES="X" "Y" "Z" "abs(p) (Pa)" "angle(p) (rad)"
ZONE N=   2709,E =    2358, F=FEPOINT, ET=QUADRILATERAL
   0.00000000      -5.48999977     -0.157000005       6688.79688      -2.52225256    
   0.00000000      -4.76741982     -0.246999994       6688.79688      -2.52225256    
  0.930077016      -4.67581606     -0.246999994       6688.79688      -2.52225256    
   1.07104599      -5.38451099     -0.157000005       6688.79688      -2.52225256    
  -1.07104599      -5.38451099     -0.157000005       6555.29199       2.39195275    
 -0.930077016      -4.67581606     -0.246999994       6555.29199       2.39195275    
   0.00000000      -4.76741982     -0.246999994       6555.29199       2.39195275    
   0.00000000      -5.48999977     -0.157000005       6555.29199       2.39195275    
  -2.10093188      -5.07209921     -0.157000005       6507.16992       1.02036488    
  -1.82441294      -4.40452194     -0.246999994       6507.16992       1.02036488    
 -0.930077016      -4.67581606     -0.246999994       6507.16992       1.02036488    
  -1.07104599      -5.38451099     -0.157000005       6507.16992       1.02036488    
  -3.05008101      -4.56476784     -0.157000005       6298.85693     -0.240051895    
  -2.64863706      -3.96396494     -0.246999994       6298.85693     -0.240051895    
  -1.82441294      -4.40452194     -0.246999994       6298.85693     -0.240051895    
  -2.10093188      -5.07209921     -0.157000005       6298.85693     -0.240051895    
  -3.88201594      -3.88201594     -0.157000005       6125.32812      -1.40058279    
  -3.37107491      -3.37107491     -0.246999994       6125.32812      -1.40058279    
  -2.64863706      -3.96396494     -0.246999994       6125.32812      -1.40058279    
  -3.05008101      -4.56476784     -0.157000005       6125.32812      -1.40058279    
  -4.56476784      -3.05008101     -0.157000005       6250.86377      -2.37063766    
  -3.96396494      -2.64863706     -0.246999994       6250.86377      -2.37063766    
  -3.37107491      -3.37107491     -0.246999994       6250.86377      -2.37063766    
  -3.88201594      -3.88201594     -0.157000005       6250.86377      -2.37063766    
  -5.07209921      -2.10093188     -0.157000005       5947.90039      -3.13691592    
  -4.40452194      -1.82441294     -0.246999994       5947.90039      -3.13691592    
  -3.96396494      -2.64863706     -0.246999994       5947.90039      -3.13691592    
  -4.56476784      -3.05008101     -0.157000005       5947.90039      -3.13691592    
  -5.38451099      -1.07104599     -0.157000005       5922.23340       2.60166907    
  -4.67581606     -0.930077016     -0.246999994       5922.23340       2.60166907    
  -4.40452194      -1.82441294     -0.246999994       5922.23340       2.60166907    
  -5.07209921      -2.10093188     -0.157000005       5922.23340       2.60166907    
  -5.48999977       0.00000000     -0.157000005       6067.39453       2.33424711    
  -4.76741982       0.00000000     -0.246999994       6067.39453       2.33424711    
  -4.67581606     -0.930077016     -0.246999994       6067.39453       2.33424711    
  -5.38451099      -1.07104599     -0.157000005       6067.39453       2.33424711    
  -5.38451099       1.07104599     -0.157000005       6075.13135       2.33672571    
  -4.67581606      0.930077016     -0.246999994       6075.13135       2.33672571    
  -4.76741982       0.00000000     -0.246999994       6075.13135       2.33672571    
  -5.48999977       0.00000000     -0.157000005       6075.13135       2.33672571    
  -5.07209921       2.10093188     -0.157000005       6099.85449       2.59756827    
  -4.40452194       1.82441294     -0.246999994       6099.85449       2.59756827    
  -4.67581606      0.930077016     -0.246999994       6099.85449       2.59756827    
  -5.38451099       1.07104599     -0.157000005       6099.85449       2.59756827    
  -4.56476784       3.05008101     -0.157000005       6126.12402       3.13245392    
  -3.96396494       2.64863706     -0.246999994       6126.12402       3.13245392    
  -4.40452194       1.82441294     -0.246999994       6126.12402       3.13245392    
  -5.07209921       2.10093188     -0.157000005       6126.12402       3.13245392    
  -3.88201594       3.88201594     -0.157000005       6111.65137      -2.37281084    
  -3.37107491       3.37107491     -0.246999994       6111.65137      -2.37281084    
  -3.96396494       2.64863706     -0.246999994       6111.65137      -2.37281084    
  -4.56476784       3.05008101     -0.157000005       6111.65137      -2.37281084    
  -3.05008101       4.56476784     -0.157000005       6288.34229      -1.39770389    
  -2.64863706       3.96396494     -0.246999994       6288.34229      -1.39770389    
  -3.37107491       3.37107491     -0.246999994       6288.34229      -1.39770389    
  -3.88201594       3.88201594     -0.157000005       6288.34229      -1.39770389    
  -2.10093188       5.07209921     -0.157000005       6260.66016     -0.238670215    
  -1.82441294       4.40452194     -0.246999994       6260.66016     -0.238670215    
  -2.64863706       3.96396494     -0.246999994       6260.66016     -0.238670215    
  -3.05008101       4.56476784     -0.157000005       6260.66016     -0.238670215    
  -1.07104599       5.38451099     -0.157000005       6467.60791       1.03559935    
 -0.930077016       4.67581606     -0.246999994       6467.60791       1.03559935    
  -1.82441294       4.40452194     -0.246999994       6467.60791       1.03559935    
  -2.10093188       5.07209921     -0.157000005       6467.60791       1.03559935    
   0.00000000       5.48999977     -0.157000005       6490.92041       2.39842558    
   0.00000000       4.76741982     -0.246999994       6490.92041       2.39842558    
 -0.930077016       4.67581606     -0.246999994       6490.92041       2.39842558    
  -1.07104599       5.38451099     -0.157000005       6490.92041       2.39842558    
   1.07104599       5.38451099     -0.157000005       6739.18066      -2.50137973    
  0.930077016       4.67581606     -0.246999994       6739.18066      -2.50137973    
   0.00000000       4.76741982     -0.246999994       6739.18066      -2.50137973    
   0.00000000       5.48999977     -0.157000005       6739.18066      -2.50137973    
   2.10093188       5.07209921     -0.157000005       6972.17529      -1.13905418    
   1.82441294       4.40452194     -0.246999994       6972.17529      -1.13905418    
  0.930077016       4.67581606     -0.246999994       6972.17529      -1.13905418    
   1.07104599       5.38451099     -0.157000005       6972.17529      -1.13905418    
   3.05008101       4.56476784     -0.157000005       7243.99219      0.127635330    
   2.64863706       3.96396494     -0.246999994       7243.99219      0.127635330    
   1.82441294       4.40452194     -0.246999994       7243.99219      0.127635330    
   2.10093188       5.07209921     -0.157000005       7243.99219      0.127635330    
   3.88201594       3.88201594     -0.157000005       7641.15186       1.34977138    
   3.37107491       3.37107491     -0.246999994       7641.15186       1.34977138    
   2.64863706       3.96396494     -0.246999994       7641.15186       1.34977138    
   3.05008101       4.56476784     -0.157000005       7641.15186       1.34977138    
   4.56476784       3.05008101     -0.157000005       8061.82227       2.34427762    
   3.96396494       2.64863706     -0.246999994       8061.82227       2.34427762    
   3.37107491       3.37107491     -0.246999994       8061.82227       2.34427762    
   3.88201594       3.88201594     -0.157000005       8061.82227       2.34427762    
   5.07209921       2.10093188     -0.157000005       7853.40771      -3.07506514    
   4.40452194       1.82441294     -0.246999994       7853.40771      -3.07506514    
   3.96396494       2.64863706     -0.246999994       7853.40771      -3.07506514    
   4.56476784       3.05008101     -0.157000005       7853.40771      -3.07506514    
   5.38451099       1.07104599     -0.157000005       7862.23535      -2.49174571    
   4.67581606      0.930077016     -0.246999994       7862.23535      -2.49174571    
   4.40452194       1.82441294     -0.246999994       7862.23535      -2.49174571    
   5.07209921       2.10093188     -0.157000005       7862.23535      -2.49174571    
   5.48999977       0.00000000     -0.157000005       7245.08350      -2.29847145    
   4.76741982       0.00000000     -0.246999994       7245.08350      -2.29847145    
   4.67581606      0.930077016     -0.246999994       7245.08350      -2.29847145    
   5.38451099       1.07104599     -0.157000005       7245.08350      -2.29847145    
   5.38451099      -1.07104599     -0.157000005       7231.61768      -2.30745721    
   4.67581606     -0.930077016     -0.246999994       7231.61768      -2.30745721    
   4.76741982       0.00000000     -0.246999994       7231.61768      -2.30745721    
   5.48999977       0.00000000     -0.157000005       7231.61768      -2.30745721    
   5.07209921      -2.10093188     -0.157000005       7858.01221      -2.49699163    
   4.40452194      -1.82441294     -0.246999994       7858.01221      -2.49699163    
   4.67581606     -0.930077016     -0.246999994       7858.01221      -2.49699163    
   5.38451099      -1.07104599     -0.157000005       7858.01221      -2.49699163    
   4.56476784      -3.05008101     -0.157000005       7861.19775      -3.05926585    
   3.96396494      -2.64863706     -0.246999994       7861.19775      -3.05926585    
   4.40452194      -1.82441294     -0.246999994       7861.19775      -3.05926585    
   5.07209921      -2.10093188     -0.157000005       7861.19775      -3.05926585    
   3.88201594      -3.88201594     -0.157000005       8081.59717       2.34984064    
   3.37107491      -3.37107491     -0.246999994       8081.59717       2.34984064    
   3.96396494      -2.64863706     -0.246999994       8081.59717       2.34984064    
   4.56476784      -3.05008101     -0.157000005       8081.59717       2.34984064    
   3.05008101      -4.56476784     -0.157000005       7739.23096       1.36038864    
   2.64863706      -3.96396494     -0.246999994       7739.23096       1.36038864    
   3.37107491      -3.37107491     -0.246999994       7739.23096       1.36038864    
   3.88201594      -3.88201594     -0.157000005       7739.23096       1.36038864    
   2.10093188      -5.07209921     -0.157000005       7306.17920      0.132738918    
   1.82441294      -4.40452194     -0.246999994       7306.17920      0.132738918    
   2.64863706      -3.96396494     -0.246999994       7306.17920      0.132738918    
   3.05008101      -4.56476784     -0.157000005       7306.17920      0.132738918    
   1.07104599      -5.38451099     -0.157000005       7043.47217      -1.13593280    
  0.930077016      -4.67581606     -0.246999994       7043.47217      -1.13593280    
   1.82441294      -4.40452194     -0.246999994       7043.47217      -1.13593280    
   2.10093188      -5.07209921     -0.157000005       7043.47217      -1.13593280    
   0.00000000      -1.87709999     -0.606999993       4251.69873      -2.91081262    
   0.00000000      -1.36500001     -0.606999993       4251.69873      -2.91081262    
  0.266297996      -1.33877206     -0.606999993       4251.69873      -2.91081262    
  0.366203994      -1.84103203     -0.606999993       4251.69873      -2.91081262    
   0.00000000      -1.87709999     -0.606999993       4562.21729       2.83263302    
   0.00000000      -2.59967995     -0.517000020       4562.21729       2.83263302    
 -0.507171988      -2.54972792     -0.517000020       4562.21729       2.83263302    
 -0.366203994      -1.84103203     -0.606999993       4562.21729       2.83263302    
 -0.366203994      -1.84103203     -0.606999993       4240.79736       2.91990423    
 -0.266297996      -1.33877206     -0.606999993       4240.79736       2.91990423    
   0.00000000      -1.36500001     -0.606999993       4240.79736       2.91990423    
   0.00000000      -1.87709999     -0.606999993       4240.79736       2.91990423    
 -0.366203994      -1.84103203     -0.606999993       4566.55566       2.22300577    
 -0.507171988      -2.54972792     -0.517000020       4566.55566       2.22300577    
 -0.994853973      -2.40179110     -0.517000020       4566.55566       2.22300577    
 -0.718334973      -1.73421395     -0.606999993       4566.55566       2.22300577    
 -0.718334973      -1.73421395     -0.606999993       4242.84619       2.47508407    
 -0.522363007      -1.26109600     -0.606999993       4242.84619       2.47508407    
 -0.266297996      -1.33877206     -0.606999993       4242.84619       2.47508407    
 -0.366203994      -1.84103203     -0.606999993       4242.84619       2.47508407    
 -0.718334973      -1.73421395     -0.606999993       4578.16113       1.64955592    
 -0.994853973      -2.40179110     -0.517000020       4578.16113       1.64955592    
  -1.44430494      -2.16155505     -0.517000020       4578.16113       1.64955592    
  -1.04286098      -1.56075203     -0.606999993       4578.16113       1.64955592    
  -1.04286098      -1.56075203     -0.606999993       4255.28369       2.05713773    
 -0.758352995      -1.13495600     -0.606999993       4255.28369       2.05713773    
 -0.522363007      -1.26109600     -0.606999993       4255.28369       2.05713773    
 -0.718334973      -1.73421395     -0.606999993       4255.28369       2.05713773    
  -1.04286098      -1.56075203     -0.606999993       4591.20068       1.13438380    
  -1.44430494      -2.16155505     -0.517000020       4591.20068       1.13438380    
  -1.83825099      -1.83825099     -0.517000020       4591.20068       1.13438380    
  -1.32730997      -1.32730997     -0.606999993       4591.20068       1.13438380    
  -1.32730997      -1.32730997     -0.606999993       4270.69629       1.68252683    
 -0.965201020     -0.965201020     -0.606999993       4270.69629       1.68252683    
 -0.758352995      -1.13495600     -0.606999993       4270.69629       1.68252683    
  -1.04286098      -1.56075203     -0.606999993       4270.69629       1.68252683    
  -1.32730997      -1.32730997     -0.606999993       4602.75098      0.696599960    
  -1.83825099      -1.83825099     -0.517000020       4602.75098      0.696599960    
  -2.16155505      -1.44430494     -0.517000020       4602.75098      0.696599960    
  -1.56075203      -1.04286098     -0.606999993       4602.75098      0.696599960    
  -1.56075203      -1.04286098     -0.606999993       4283.82617       1.36504030    
  -1.13495600     -0.758352995     -0.606999993       4283.82617       1.36504030    
 -0.965201020     -0.965201020     -0.606999993       4283.82617       1.36504030    
  -1.32730997      -1.32730997     -0.606999993       4283.82617       1.36504030    
  -1.56075203      -1.04286098     -0.606999993       4612.35791      0.352536321    
  -2.16155505      -1.44430494     -0.517000020       4612.35791      0.352536321    
  -2.40179110     -0.994853973     -0.517000020       4612.35791      0.352536321    
  -1.73421395     -0.718334973     -0.606999993       4612.35791      0.352536321    
  -1.73421395     -0.718334973     -0.606999993       4292.70850       1.11595297    
  -1.26109600     -0.522363007     -0.606999993       4292.70850       1.11595297    
  -1.13495600     -0.758352995     -0.606999993       4292.70850       1.11595297    
  -1.56075203      -1.04286098     -0.606999993       4292.70850       1.11595297    
  -1.73421395     -0.718334973     -0.606999993       4619.40527      0.115339413    
  -2.40179110     -0.994853973     -0.517000020       4619.40527      0.115339413    
  -2.54972792     -0.507171988     -0.517000020       4619.40527      0.115339413    
  -1.84103203     -0.366203994     -0.606999993       4619.40527      0.115339413    
  -1.84103203     -0.366203994     -0.606999993       4297.52344      0.944334567    
  -1.33877206     -0.266297996     -0.606999993       4297.52344      0.944334567    
  -1.26109600     -0.522363007     -0.606999993       4297.52344      0.944334567    
  -1.73421395     -0.718334973     -0.606999993       4297.52344      0.944334567    
  -1.84103203     -0.366203994     -0.606999993       4622.93115      -5.69497887E-03
  -2.54972792     -0.507171988     -0.517000020       4622.93115      -5.69497887E-03
  -2.59967995       0.00000000     -0.517000020       4622.93115      -5.69497887E-03
  -1.87709999       0.00000000     -0.606999993       4622.93115      -5.69497887E-03
  -1.87709999       0.00000000     -0.606999993       4299.29834      0.856789649    
  -1.36500001       0.00000000     -0.606999993       4299.29834      0.856789649    
  -1.33877206     -0.266297996     -0.606999993       4299.29834      0.856789649    
  -1.84103203     -0.366203994     -0.606999993       4299.29834      0.856789649    
  -1.87709999       0.00000000     -0.606999993       4622.61426      -5.63301891E-03
  -2.59967995       0.00000000     -0.517000020       4622.61426      -5.63301891E-03
  -2.54972792      0.507171988     -0.517000020       4622.61426      -5.63301891E-03
  -1.84103203      0.366203994     -0.606999993       4622.61426      -5.63301891E-03
  -1.84103203      0.366203994     -0.606999993       4299.17578      0.856835604    
  -1.33877206      0.266297996     -0.606999993       4299.17578      0.856835604    
  -1.36500001       0.00000000     -0.606999993       4299.17578      0.856835604    
  -1.87709999       0.00000000     -0.606999993       4299.17578      0.856835604    
  -1.84103203      0.366203994     -0.606999993       4618.57568      0.115513533    
  -2.54972792      0.507171988     -0.517000020       4618.57568      0.115513533    
  -2.40179110      0.994853973     -0.517000020       4618.57568      0.115513533    
  -1.73421395      0.718334973     -0.606999993       4618.57568      0.115513533    
  -1.73421395      0.718334973     -0.606999993       4297.30322      0.944463432    
  -1.26109600      0.522363007     -0.606999993       4297.30322      0.944463432    
  -1.33877206      0.266297996     -0.606999993       4297.30322      0.944463432    
  -1.84103203      0.366203994     -0.606999993       4297.30322      0.944463432    
  -1.73421395      0.718334973     -0.606999993       4611.42529      0.352825195    
  -2.40179110      0.994853973     -0.517000020       4611.42529      0.352825195    
  -2.16155505       1.44430494     -0.517000020       4611.42529      0.352825195    
  -1.56075203       1.04286098     -0.606999993       4611.42529      0.352825195    
  -1.56075203       1.04286098     -0.606999993       4292.74268       1.11616743    
  -1.13495600      0.758352995     -0.606999993       4292.74268       1.11616743    
  -1.26109600      0.522363007     -0.606999993       4292.74268       1.11616743    
  -1.73421395      0.718334973     -0.606999993       4292.74268       1.11616743    
  -1.56075203       1.04286098     -0.606999993       4602.03906      0.696957707    
  -2.16155505       1.44430494     -0.517000020       4602.03906      0.696957707    
  -1.83825099       1.83825099     -0.517000020       4602.03906      0.696957707    
  -1.32730997       1.32730997     -0.606999993       4602.03906      0.696957707    
  -1.32730997       1.32730997     -0.606999993       4284.18311       1.36535990    
 -0.965201020      0.965201020     -0.606999993       4284.18311       1.36535990    
  -1.13495600      0.758352995     -0.606999993       4284.18311       1.36535990    
  -1.56075203       1.04286098     -0.606999993       4284.18311       1.36535990    
  -1.32730997       1.32730997     -0.606999993       4590.81250       1.13475168    
  -1.83825099       1.83825099     -0.517000020       4590.81250       1.13475168    
  -1.44430494       2.16155505     -0.517000020       4590.81250       1.13475168    
  -1.04286098       1.56075203     -0.606999993       4590.81250       1.13475168    
  -1.04286098       1.56075203     -0.606999993       4270.93555       1.68290722    
 -0.758352995       1.13495600     -0.606999993       4270.93555       1.68290722    
 -0.965201020      0.965201020     -0.606999993       4270.93555       1.68290722    
  -1.32730997       1.32730997     -0.606999993       4270.93555       1.68290722    
  -1.04286098       1.56075203     -0.606999993       4578.02148       1.64989340    
  -1.44430494       2.16155505     -0.517000020       4578.02148       1.64989340    
 -0.994853973       2.40179110     -0.517000020       4578.02148       1.64989340    
 -0.718334973       1.73421395     -0.606999993       4578.02148       1.64989340    
 -0.718334973       1.73421395     -0.606999993       4255.08057       2.05751419    
 -0.522363007       1.26109600     -0.606999993       4255.08057       2.05751419    
 -0.758352995       1.13495600     -0.606999993       4255.08057       2.05751419    
  -1.04286098       1.56075203     -0.606999993       4255.08057       2.05751419    
 -0.718334973       1.73421395     -0.606999993       4566.68799       2.22331858    
 -0.994853973       2.40179110     -0.517000020       4566.68799       2.22331858    
 -0.507171988       2.54972792     -0.517000020       4566.68799       2.22331858    
 -0.366203994       1.84103203     -0.606999993       4566.68799       2.22331858    
 -0.366203994       1.84103203     -0.606999993       4242.90723       2.47549176    
 -0.266297996       1.33877206     -0.606999993       4242.90723       2.47549176    
 -0.522363007       1.26109600     -0.606999993       4242.90723       2.47549176    
 -0.718334973       1.73421395     -0.606999993       4242.90723       2.47549176    
 -0.366203994       1.84103203     -0.606999993       4562.75928       2.83293152    
 -0.507171988       2.54972792     -0.517000020       4562.75928       2.83293152    
   0.00000000       2.59967995     -0.517000020       4562.75928       2.83293152    
   0.00000000       1.87709999     -0.606999993       4562.75928       2.83293152    
   0.00000000       1.87709999     -0.606999993       4241.59961       2.92025709    
   0.00000000       1.36500001     -0.606999993       4241.59961       2.92025709    
 -0.266297996       1.33877206     -0.606999993       4241.59961       2.92025709    
 -0.366203994       1.84103203     -0.606999993       4241.59961       2.92025709    
   0.00000000       1.87709999     -0.606999993       4568.91553      -2.82920313    
   0.00000000       2.59967995     -0.517000020       4568.91553      -2.82920313    
  0.507171988       2.54972792     -0.517000020       4568.91553      -2.82920313    
  0.366203994       1.84103203     -0.606999993       4568.91553      -2.82920313    
  0.366203994       1.84103203     -0.606999993       4253.46924      -2.91047335    
  0.266297996       1.33877206     -0.606999993       4253.46924      -2.91047335    
   0.00000000       1.36500001     -0.606999993       4253.46924      -2.91047335    
   0.00000000       1.87709999     -0.606999993       4253.46924      -2.91047335    
  0.366203994       1.84103203     -0.606999993       4579.97363      -2.22182536    
  0.507171988       2.54972792     -0.517000020       4579.97363      -2.22182536    
  0.994853973       2.40179110     -0.517000020       4579.97363      -2.22182536    
  0.718334973       1.73421395     -0.606999993       4579.97363      -2.22182536    
  0.718334973       1.73421395     -0.606999993       4272.22412      -2.46958351    
  0.522363007       1.26109600     -0.606999993       4272.22412      -2.46958351    
  0.266297996       1.33877206     -0.606999993       4272.22412      -2.46958351    
  0.366203994       1.84103203     -0.606999993       4272.22412      -2.46958351    
  0.718334973       1.73421395     -0.606999993       4587.47656      -1.65129566    
  0.994853973       2.40179110     -0.517000020       4587.47656      -1.65129566    
   1.44430494       2.16155505     -0.517000020       4587.47656      -1.65129566    
   1.04286098       1.56075203     -0.606999993       4587.47656      -1.65129566    
   1.04286098       1.56075203     -0.606999993       4287.83301      -2.05729461    
  0.758352995       1.13495600     -0.606999993       4287.83301      -2.05729461    
  0.522363007       1.26109600     -0.606999993       4287.83301      -2.05729461    
  0.718334973       1.73421395     -0.606999993       4287.83301      -2.05729461    
   1.04286098       1.56075203     -0.606999993       4587.58154      -1.13827014    
   1.44430494       2.16155505     -0.517000020       4587.58154      -1.13827014    
   1.83825099       1.83825099     -0.517000020       4587.58154      -1.13827014    
   1.32730997       1.32730997     -0.606999993       4587.58154      -1.13827014    
   1.32730997       1.32730997     -0.606999993       4293.19336      -1.68801117    
  0.965201020      0.965201020     -0.606999993       4293.19336      -1.68801117    
  0.758352995       1.13495600     -0.606999993       4293.19336      -1.68801117    
   1.04286098       1.56075203     -0.606999993       4293.19336      -1.68801117    
   1.32730997       1.32730997     -0.606999993       4582.93262     -0.701398253    
   1.83825099       1.83825099     -0.517000020       4582.93262     -0.701398253    
   2.16155505       1.44430494     -0.517000020       4582.93262     -0.701398253    
   1.56075203       1.04286098     -0.606999993       4582.93262     -0.701398253    
   1.56075203       1.04286098     -0.606999993       4288.44727      -1.37406325    
   1.13495600      0.758352995     -0.606999993       4288.44727      -1.37406325    
  0.965201020      0.965201020     -0.606999993       4288.44727      -1.37406325    
   1.32730997       1.32730997     -0.606999993       4288.44727      -1.37406325    
   1.56075203       1.04286098     -0.606999993       4578.17871     -0.357367367    
   2.16155505       1.44430494     -0.517000020       4578.17871     -0.357367367    
   2.40179110      0.994853973     -0.517000020       4578.17871     -0.357367367    
   1.73421395      0.718334973     -0.606999993       4578.17871     -0.357367367    
   1.73421395      0.718334973     -0.606999993       4278.28516      -1.12660551    
   1.26109600      0.522363007     -0.606999993       4278.28516      -1.12660551    
   1.13495600      0.758352995     -0.606999993       4278.28516      -1.12660551    
   1.56075203       1.04286098     -0.606999993       4278.28516      -1.12660551    
   1.73421395      0.718334973     -0.606999993       4575.33203     -0.119917795    
   2.40179110      0.994853973     -0.517000020       4575.33203     -0.119917795    
   2.54972792      0.507171988     -0.517000020       4575.33203     -0.119917795    
   1.84103203      0.366203994     -0.606999993       4575.33203     -0.119917795    
   1.84103203      0.366203994     -0.606999993       4268.46094     -0.955430090    
   1.33877206      0.266297996     -0.606999993       4268.46094     -0.955430090    
   1.26109600      0.522363007     -0.606999993       4268.46094     -0.955430090    
   1.73421395      0.718334973     -0.606999993       4268.46094     -0.955430090    
   1.84103203      0.366203994     -0.606999993       4574.03857       1.28006074E-03
   2.54972792      0.507171988     -0.517000020       4574.03857       1.28006074E-03
   2.59967995       0.00000000     -0.517000020       4574.03857       1.28006074E-03
   1.87709999       0.00000000     -0.606999993       4574.03857       1.28006074E-03
   1.87709999       0.00000000     -0.606999993       4263.04492     -0.867949307    
   1.36500001       0.00000000     -0.606999993       4263.04492     -0.867949307    
   1.33877206      0.266297996     -0.606999993       4263.04492     -0.867949307    
   1.84103203      0.366203994     -0.606999993       4263.04492     -0.867949307    
   1.87709999       0.00000000     -0.606999993       4573.99463       1.25690282E-03
   2.59967995       0.00000000     -0.517000020       4573.99463       1.25690282E-03
   2.54972792     -0.507171988     -0.517000020       4573.99463       1.25690282E-03
   1.84103203     -0.366203994     -0.606999993       4573.99463       1.25690282E-03
   1.84103203     -0.366203994     -0.606999993       4263.37500     -0.867979884    
   1.33877206     -0.266297996     -0.606999993       4263.37500     -0.867979884    
   1.36500001       0.00000000     -0.606999993       4263.37500     -0.867979884    
   1.87709999       0.00000000     -0.606999993       4263.37500     -0.867979884    
   1.84103203     -0.366203994     -0.606999993       4575.28809     -0.119978122    
   2.54972792     -0.507171988     -0.517000020       4575.28809     -0.119978122    
   2.40179110     -0.994853973     -0.517000020       4575.28809     -0.119978122    
   1.73421395     -0.718334973     -0.606999993       4575.28809     -0.119978122    
   1.73421395     -0.718334973     -0.606999993       4268.88086     -0.955415726    
   1.26109600     -0.522363007     -0.606999993       4268.88086     -0.955415726    
   1.33877206     -0.266297996     -0.606999993       4268.88086     -0.955415726    
   1.84103203     -0.366203994     -0.606999993       4268.88086     -0.955415726    
   1.73421395     -0.718334973     -0.606999993       4578.23193     -0.357414186    
   2.40179110     -0.994853973     -0.517000020       4578.23193     -0.357414186    
   2.16155505      -1.44430494     -0.517000020       4578.23193     -0.357414186    
   1.56075203      -1.04286098     -0.606999993       4578.23193     -0.357414186    
   1.56075203      -1.04286098     -0.606999993       4278.25781      -1.12643397    
   1.13495600     -0.758352995     -0.606999993       4278.25781      -1.12643397    
   1.26109600     -0.522363007     -0.606999993       4278.25781      -1.12643397    