 VARIABLES="X" "Y" "Z" "abs(p) (Pa)" "angle(p) (rad)"
ZONE N=   2709,E =    2358, F=FEPOINT, ET=QUADRILATERAL
   0.00000000      -5.48999977     -0.157000005       47.1189041     -0.890727282    
   0.00000000      -4.76741982     -0.246999994       47.1189041     -0.890727282    
  0.930077016      -4.67581606     -0.246999994       47.1189041     -0.890727282    
   1.07104599      -5.38451099     -0.157000005       47.1189041     -0.890727282    
  -1.07104599      -5.38451099     -0.157000005       45.8528290       2.21083999    
 -0.930077016      -4.67581606     -0.246999994       45.8528290       2.21083999    
   0.00000000      -4.76741982     -0.246999994       45.8528290       2.21083999    
   0.00000000      -5.48999977     -0.157000005       45.8528290       2.21083999    
  -2.10093188      -5.07209921     -0.157000005       135.511551       2.22782755    
  -1.82441294      -4.40452194     -0.246999994       135.511551       2.22782755    
 -0.930077016      -4.67581606     -0.246999994       135.511551       2.22782755    
  -1.07104599      -5.38451099     -0.157000005       135.511551       2.22782755    
  -3.05008101      -4.56476784     -0.157000005       222.649750       2.22706199    
  -2.64863706      -3.96396494     -0.246999994       222.649750       2.22706199    
  -1.82441294      -4.40452194     -0.246999994       222.649750       2.22706199    
  -2.10093188      -5.07209921     -0.157000005       222.649750       2.22706199    
  -3.88201594      -3.88201594     -0.157000005       299.236664       2.22885752    
  -3.37107491      -3.37107491     -0.246999994       299.236664       2.22885752    
  -2.64863706      -3.96396494     -0.246999994       299.236664       2.22885752    
  -3.05008101      -4.56476784     -0.157000005       299.236664       2.22885752    
  -4.56476784      -3.05008101     -0.157000005       359.916656       2.23435950    
  -3.96396494      -2.64863706     -0.246999994       359.916656       2.23435950    
  -3.37107491      -3.37107491     -0.246999994       359.916656       2.23435950    
  -3.88201594      -3.88201594     -0.157000005       359.916656       2.23435950    
  -5.07209921      -2.10093188     -0.157000005       416.175659       2.23053527    
  -4.40452194      -1.82441294     -0.246999994       416.175659       2.23053527    
  -3.96396494      -2.64863706     -0.246999994       416.175659       2.23053527    
  -4.56476784      -3.05008101     -0.157000005       416.175659       2.23053527    
  -5.38451099      -1.07104599     -0.157000005       452.476624       2.23062634    
  -4.67581606     -0.930077016     -0.246999994       452.476624       2.23062634    
  -4.40452194      -1.82441294     -0.246999994       452.476624       2.23062634    
  -5.07209921      -2.10093188     -0.157000005       452.476624       2.23062634    
  -5.48999977       0.00000000     -0.157000005       465.161102       2.23513770    
  -4.76741982       0.00000000     -0.246999994       465.161102       2.23513770    
  -4.67581606     -0.930077016     -0.246999994       465.161102       2.23513770    
  -5.38451099      -1.07104599     -0.157000005       465.161102       2.23513770    
  -5.38451099       1.07104599     -0.157000005       464.590881       2.23612642    
  -4.67581606      0.930077016     -0.246999994       464.590881       2.23612642    
  -4.76741982       0.00000000     -0.246999994       464.590881       2.23612642    
  -5.48999977       0.00000000     -0.157000005       464.590881       2.23612642    
  -5.07209921       2.10093188     -0.157000005       446.938660       2.23656511    
  -4.40452194       1.82441294     -0.246999994       446.938660       2.23656511    
  -4.67581606      0.930077016     -0.246999994       446.938660       2.23656511    
  -5.38451099       1.07104599     -0.157000005       446.938660       2.23656511    
  -4.56476784       3.05008101     -0.157000005       412.491241       2.23657012    
  -3.96396494       2.64863706     -0.246999994       412.491241       2.23657012    
  -4.40452194       1.82441294     -0.246999994       412.491241       2.23657012    
  -5.07209921       2.10093188     -0.157000005       412.491241       2.23657012    
  -3.88201594       3.88201594     -0.157000005       365.749695       2.23305559    
  -3.37107491       3.37107491     -0.246999994       365.749695       2.23305559    
  -3.96396494       2.64863706     -0.246999994       365.749695       2.23305559    
  -4.56476784       3.05008101     -0.157000005       365.749695       2.23305559    
  -3.05008101       4.56476784     -0.157000005       297.503601       2.23692703    
  -2.64863706       3.96396494     -0.246999994       297.503601       2.23692703    
  -3.37107491       3.37107491     -0.246999994       297.503601       2.23692703    
  -3.88201594       3.88201594     -0.157000005       297.503601       2.23692703    
  -2.10093188       5.07209921     -0.157000005       223.243164       2.23483515    
  -1.82441294       4.40452194     -0.246999994       223.243164       2.23483515    
  -2.64863706       3.96396494     -0.246999994       223.243164       2.23483515    
  -3.05008101       4.56476784     -0.157000005       223.243164       2.23483515    
  -1.07104599       5.38451099     -0.157000005       136.421097       2.24084449    
 -0.930077016       4.67581606     -0.246999994       136.421097       2.24084449    
  -1.82441294       4.40452194     -0.246999994       136.421097       2.24084449    
  -2.10093188       5.07209921     -0.157000005       136.421097       2.24084449    
   0.00000000       5.48999977     -0.157000005       46.6971245       2.25006557    
   0.00000000       4.76741982     -0.246999994       46.6971245       2.25006557    
 -0.930077016       4.67581606     -0.246999994       46.6971245       2.25006557    
  -1.07104599       5.38451099     -0.157000005       46.6971245       2.25006557    
   1.07104599       5.38451099     -0.157000005       45.5302429     -0.925102174    
  0.930077016       4.67581606     -0.246999994       45.5302429     -0.925102174    
   0.00000000       4.76741982     -0.246999994       45.5302429     -0.925102174    
   0.00000000       5.48999977     -0.157000005       45.5302429     -0.925102174    
   2.10093188       5.07209921     -0.157000005       137.108429     -0.916294158    
   1.82441294       4.40452194     -0.246999994       137.108429     -0.916294158    
  0.930077016       4.67581606     -0.246999994       137.108429     -0.916294158    
   1.07104599       5.38451099     -0.157000005       137.108429     -0.916294158    
   3.05008101       4.56476784     -0.157000005       222.379684     -0.913291752    
   2.64863706       3.96396494     -0.246999994       222.379684     -0.913291752    
   1.82441294       4.40452194     -0.246999994       222.379684     -0.913291752    
   2.10093188       5.07209921     -0.157000005       222.379684     -0.913291752    
   3.88201594       3.88201594     -0.157000005       295.495911     -0.907811701    
   3.37107491       3.37107491     -0.246999994       295.495911     -0.907811701    
   2.64863706       3.96396494     -0.246999994       295.495911     -0.907811701    
   3.05008101       4.56476784     -0.157000005       295.495911     -0.907811701    
   4.56476784       3.05008101     -0.157000005       361.018738     -0.907822967    
   3.96396494       2.64863706     -0.246999994       361.018738     -0.907822967    
   3.37107491       3.37107491     -0.246999994       361.018738     -0.907822967    
   3.88201594       3.88201594     -0.157000005       361.018738     -0.907822967    
   5.07209921       2.10093188     -0.157000005       411.177765     -0.906369567    
   4.40452194       1.82441294     -0.246999994       411.177765     -0.906369567    
   3.96396494       2.64863706     -0.246999994       411.177765     -0.906369567    
   4.56476784       3.05008101     -0.157000005       411.177765     -0.906369567    
   5.38451099       1.07104599     -0.157000005       452.697571     -0.910530508    
   4.67581606      0.930077016     -0.246999994       452.697571     -0.910530508    
   4.40452194       1.82441294     -0.246999994       452.697571     -0.910530508    
   5.07209921       2.10093188     -0.157000005       452.697571     -0.910530508    
   5.48999977       0.00000000     -0.157000005       472.241516     -0.911063075    
   4.76741982       0.00000000     -0.246999994       472.241516     -0.911063075    
   4.67581606      0.930077016     -0.246999994       472.241516     -0.911063075    
   5.38451099       1.07104599     -0.157000005       472.241516     -0.911063075    
   5.38451099      -1.07104599     -0.157000005       472.669373     -0.910875738    
   4.67581606     -0.930077016     -0.246999994       472.669373     -0.910875738    
   4.76741982       0.00000000     -0.246999994       472.669373     -0.910875738    
   5.48999977       0.00000000     -0.157000005       472.669373     -0.910875738    
   5.07209921      -2.10093188     -0.157000005       454.738708     -0.910524487    
   4.40452194      -1.82441294     -0.246999994       454.738708     -0.910524487    
   4.67581606     -0.930077016     -0.246999994       454.738708     -0.910524487    
   5.38451099      -1.07104599     -0.157000005       454.738708     -0.910524487    
   4.56476784      -3.05008101     -0.157000005       419.170929     -0.910120726    
   3.96396494      -2.64863706     -0.246999994       419.170929     -0.910120726    
   4.40452194      -1.82441294     -0.246999994       419.170929     -0.910120726    
   5.07209921      -2.10093188     -0.157000005       419.170929     -0.910120726    
   3.88201594      -3.88201594     -0.157000005       367.120361     -0.909294367    
   3.37107491      -3.37107491     -0.246999994       367.120361     -0.909294367    
   3.96396494      -2.64863706     -0.246999994       367.120361     -0.909294367    
   4.56476784      -3.05008101     -0.157000005       367.120361     -0.909294367    
   3.05008101      -4.56476784     -0.157000005       298.050934     -0.904630423    
   2.64863706      -3.96396494     -0.246999994       298.050934     -0.904630423    
   3.37107491      -3.37107491     -0.246999994       298.050934     -0.904630423    
   3.88201594      -3.88201594     -0.157000005       298.050934     -0.904630423    
   2.10093188      -5.07209921     -0.157000005       223.856888     -0.906764984    
   1.82441294      -4.40452194     -0.246999994       223.856888     -0.906764984    
   2.64863706      -3.96396494     -0.246999994       223.856888     -0.906764984    
   3.05008101      -4.56476784     -0.157000005       223.856888     -0.906764984    
   1.07104599      -5.38451099     -0.157000005       138.420105     -0.904506028    
  0.930077016      -4.67581606     -0.246999994       138.420105     -0.904506028    
   1.82441294      -4.40452194     -0.246999994       138.420105     -0.904506028    
   2.10093188      -5.07209921     -0.157000005       138.420105     -0.904506028    
   0.00000000      -1.87709999     -0.606999993       91.4187927       1.49231267    
   0.00000000      -1.36500001     -0.606999993       91.4187927       1.49231267    
  0.266297996      -1.33877206     -0.606999993       91.4187927       1.49231267    
  0.366203994      -1.84103203     -0.606999993       91.4187927       1.49231267    
   0.00000000      -1.87709999     -0.606999993       31.1339397      -1.85560274    
   0.00000000      -2.59967995     -0.517000020       31.1339397      -1.85560274    
 -0.507171988      -2.54972792     -0.517000020       31.1339397      -1.85560274    
 -0.366203994      -1.84103203     -0.606999993       31.1339397      -1.85560274    
 -0.366203994      -1.84103203     -0.606999993       90.8349991      -1.63662219    
 -0.266297996      -1.33877206     -0.606999993       90.8349991      -1.63662219    
   0.00000000      -1.36500001     -0.606999993       90.8349991      -1.63662219    
   0.00000000      -1.87709999     -0.606999993       90.8349991      -1.63662219    
 -0.366203994      -1.84103203     -0.606999993       95.0811920      -1.85497093    
 -0.507171988      -2.54972792     -0.517000020       95.0811920      -1.85497093    
 -0.994853973      -2.40179110     -0.517000020       95.0811920      -1.85497093    
 -0.718334973      -1.73421395     -0.606999993       95.0811920      -1.85497093    
 -0.718334973      -1.73421395     -0.606999993       269.705688      -1.64041626    
 -0.522363007      -1.26109600     -0.606999993       269.705688      -1.64041626    
 -0.266297996      -1.33877206     -0.606999993       269.705688      -1.64041626    
 -0.366203994      -1.84103203     -0.606999993       269.705688      -1.64041626    
 -0.718334973      -1.73421395     -0.606999993       155.827835      -1.85055280    
 -0.994853973      -2.40179110     -0.517000020       155.827835      -1.85055280    
  -1.44430494      -2.16155505     -0.517000020       155.827835      -1.85055280    
  -1.04286098      -1.56075203     -0.606999993       155.827835      -1.85055280    
  -1.04286098      -1.56075203     -0.606999993       438.589630      -1.64053822    
 -0.758352995      -1.13495600     -0.606999993       438.589630      -1.64053822    
 -0.522363007      -1.26109600     -0.606999993       438.589630      -1.64053822    
 -0.718334973      -1.73421395     -0.606999993       438.589630      -1.64053822    
  -1.04286098      -1.56075203     -0.606999993       211.207291      -1.84678984    
  -1.44430494      -2.16155505     -0.517000020       211.207291      -1.84678984    
  -1.83825099      -1.83825099     -0.517000020       211.207291      -1.84678984    
  -1.32730997      -1.32730997     -0.606999993       211.207291      -1.84678984    
  -1.32730997      -1.32730997     -0.606999993       591.004517      -1.64032257    
 -0.965201020     -0.965201020     -0.606999993       591.004517      -1.64032257    
 -0.758352995      -1.13495600     -0.606999993       591.004517      -1.64032257    
  -1.04286098      -1.56075203     -0.606999993       591.004517      -1.64032257    
  -1.32730997      -1.32730997     -0.606999993       258.843536      -1.84504509    
  -1.83825099      -1.83825099     -0.517000020       258.843536      -1.84504509    
  -2.16155505      -1.44430494     -0.517000020       258.843536      -1.84504509    
  -1.56075203      -1.04286098     -0.606999993       258.843536      -1.84504509    
  -1.56075203      -1.04286098     -0.606999993       721.065002      -1.64025378    
  -1.13495600     -0.758352995     -0.606999993       721.065002      -1.64025378    
 -0.965201020     -0.965201020     -0.606999993       721.065002      -1.64025378    
  -1.32730997      -1.32730997     -0.606999993       721.065002      -1.64025378    
  -1.56075203      -1.04286098     -0.606999993       296.266113      -1.84523976    
  -2.16155505      -1.44430494     -0.517000020       296.266113      -1.84523976    
  -2.40179110     -0.994853973     -0.517000020       296.266113      -1.84523976    
  -1.73421395     -0.718334973     -0.606999993       296.266113      -1.84523976    
  -1.73421395     -0.718334973     -0.606999993       823.742981      -1.64037788    
  -1.26109600     -0.522363007     -0.606999993       823.742981      -1.64037788    
  -1.13495600     -0.758352995     -0.606999993       823.742981      -1.64037788    
  -1.56075203      -1.04286098     -0.606999993       823.742981      -1.64037788    
  -1.73421395     -0.718334973     -0.606999993       321.623474      -1.84632301    
  -2.40179110     -0.994853973     -0.517000020       321.623474      -1.84632301    
  -2.54972792     -0.507171988     -0.517000020       321.623474      -1.84632301    
  -1.84103203     -0.366203994     -0.606999993       321.623474      -1.84632301    
  -1.84103203     -0.366203994     -0.606999993       894.599060      -1.64059663    
  -1.33877206     -0.266297996     -0.606999993       894.599060      -1.64059663    
  -1.26109600     -0.522363007     -0.606999993       894.599060      -1.64059663    
  -1.73421395     -0.718334973     -0.606999993       894.599060      -1.64059663    
  -1.84103203     -0.366203994     -0.606999993       334.415283      -1.84714520    
  -2.54972792     -0.507171988     -0.517000020       334.415283      -1.84714520    
  -2.59967995       0.00000000     -0.517000020       334.415283      -1.84714520    
  -1.87709999       0.00000000     -0.606999993       334.415283      -1.84714520    
  -1.87709999       0.00000000     -0.606999993       930.954468      -1.64076626    
  -1.36500001       0.00000000     -0.606999993       930.954468      -1.64076626    
  -1.33877206     -0.266297996     -0.606999993       930.954468      -1.64076626    
  -1.84103203     -0.366203994     -0.606999993       930.954468      -1.64076626    
  -1.87709999       0.00000000     -0.606999993       334.946686      -1.84697831    
  -2.59967995       0.00000000     -0.517000020       334.946686      -1.84697831    
  -2.54972792      0.507171988     -0.517000020       334.946686      -1.84697831    
  -1.84103203      0.366203994     -0.606999993       334.946686      -1.84697831    
  -1.84103203      0.366203994     -0.606999993       931.796814      -1.64078796    
  -1.33877206      0.266297996     -0.606999993       931.796814      -1.64078796    
  -1.36500001       0.00000000     -0.606999993       931.796814      -1.64078796    
  -1.87709999       0.00000000     -0.606999993       931.796814      -1.64078796    
  -1.84103203      0.366203994     -0.606999993       323.305664      -1.84572780    
  -2.54972792      0.507171988     -0.517000020       323.305664      -1.84572780    
  -2.40179110      0.994853973     -0.517000020       323.305664      -1.84572780    
  -1.73421395      0.718334973     -0.606999993       323.305664      -1.84572780    
  -1.73421395      0.718334973     -0.606999993       897.160950      -1.64064777    
  -1.26109600      0.522363007     -0.606999993       897.160950      -1.64064777    
  -1.33877206      0.266297996     -0.606999993       897.160950      -1.64064777    
  -1.84103203      0.366203994     -0.606999993       897.160950      -1.64064777    
  -1.73421395      0.718334973     -0.606999993       299.202423      -1.84392512    
  -2.40179110      0.994853973     -0.517000020       299.202423      -1.84392512    
  -2.16155505       1.44430494     -0.517000020       299.202423      -1.84392512    
  -1.56075203       1.04286098     -0.606999993       299.202423      -1.84392512    
  -1.56075203       1.04286098     -0.606999993       827.977051      -1.64043832    
  -1.13495600      0.758352995     -0.606999993       827.977051      -1.64043832    
  -1.26109600      0.522363007     -0.606999993       827.977051      -1.64043832    
  -1.73421395      0.718334973     -0.606999993       827.977051      -1.64043832    
  -1.56075203       1.04286098     -0.606999993       262.855377      -1.84267187    
  -2.16155505       1.44430494     -0.517000020       262.855377      -1.84267187    
  -1.83825099       1.83825099     -0.517000020       262.855377      -1.84267187    
  -1.32730997       1.32730997     -0.606999993       262.855377      -1.84267187    
  -1.32730997       1.32730997     -0.606999993       726.507935      -1.64033151    
 -0.965201020      0.965201020     -0.606999993       726.507935      -1.64033151    
  -1.13495600      0.758352995     -0.606999993       726.507935      -1.64033151    
  -1.56075203       1.04286098     -0.606999993       726.507935      -1.64033151    
  -1.32730997       1.32730997     -0.606999993       215.835693      -1.84311354    
  -1.83825099       1.83825099     -0.517000020       215.835693      -1.84311354    
  -1.44430494       2.16155505     -0.517000020       215.835693      -1.84311354    
  -1.04286098       1.56075203     -0.606999993       215.835693      -1.84311354    
  -1.04286098       1.56075203     -0.606999993       596.771851      -1.64050996    
 -0.758352995       1.13495600     -0.606999993       596.771851      -1.64050996    
 -0.965201020      0.965201020     -0.606999993       596.771851      -1.64050996    
  -1.32730997       1.32730997     -0.606999993       596.771851      -1.64050996    
  -1.04286098       1.56075203     -0.606999993       160.613220      -1.84542167    
  -1.44430494       2.16155505     -0.517000020       160.613220      -1.84542167    
 -0.994853973       2.40179110     -0.517000020       160.613220      -1.84542167    
 -0.718334973       1.73421395     -0.606999993       160.613220      -1.84542167    
 -0.718334973       1.73421395     -0.606999993       443.949127      -1.64107072    
 -0.522363007       1.26109600     -0.606999993       443.949127      -1.64107072    
 -0.758352995       1.13495600     -0.606999993       443.949127      -1.64107072    
  -1.04286098       1.56075203     -0.606999993       443.949127      -1.64107072    
 -0.718334973       1.73421395     -0.606999993       99.6691437      -1.84797800    
 -0.994853973       2.40179110     -0.517000020       99.6691437      -1.84797800    
 -0.507171988       2.54972792     -0.517000020       99.6691437      -1.84797800    
 -0.366203994       1.84103203     -0.606999993       99.6691437      -1.84797800    
 -0.366203994       1.84103203     -0.606999993       274.314911      -1.64191735    
 -0.266297996       1.33877206     -0.606999993       274.314911      -1.64191735    
 -0.522363007       1.26109600     -0.606999993       274.314911      -1.64191735    
 -0.718334973       1.73421395     -0.606999993       274.314911      -1.64191735    
 -0.366203994       1.84103203     -0.606999993       35.2884827      -1.84316099    
 -0.507171988       2.54972792     -0.517000020       35.2884827      -1.84316099    
   0.00000000       2.59967995     -0.517000020       35.2884827      -1.84316099    
   0.00000000       1.87709999     -0.606999993       35.2884827      -1.84316099    
   0.00000000       1.87709999     -0.606999993       94.3027039      -1.64356577    
   0.00000000       1.36500001     -0.606999993       94.3027039      -1.64356577    
 -0.266297996       1.33877206     -0.606999993       94.3027039      -1.64356577    
 -0.366203994       1.84103203     -0.606999993       94.3027039      -1.64356577    
   0.00000000       1.87709999     -0.606999993       30.3688354       1.27361298    
   0.00000000       2.59967995     -0.517000020       30.3688354       1.27361298    
  0.507171988       2.54972792     -0.517000020       30.3688354       1.27361298    
  0.366203994       1.84103203     -0.606999993       30.3688354       1.27361298    
  0.366203994       1.84103203     -0.606999993       89.2217789       1.50169873    
  0.266297996       1.33877206     -0.606999993       89.2217789       1.50169873    
   0.00000000       1.36500001     -0.606999993       89.2217789       1.50169873    
   0.00000000       1.87709999     -0.606999993       89.2217789       1.50169873    
  0.366203994       1.84103203     -0.606999993       95.0143661       1.28593135    
  0.507171988       2.54972792     -0.517000020       95.0143661       1.28593135    
  0.994853973       2.40179110     -0.517000020       95.0143661       1.28593135    
  0.718334973       1.73421395     -0.606999993       95.0143661       1.28593135    
  0.718334973       1.73421395     -0.606999993       269.496094       1.50083387    
  0.522363007       1.26109600     -0.606999993       269.496094       1.50083387    
  0.266297996       1.33877206     -0.606999993       269.496094       1.50083387    
  0.366203994       1.84103203     -0.606999993       269.496094       1.50083387    
  0.718334973       1.73421395     -0.606999993       156.411514       1.29203808    
  0.994853973       2.40179110     -0.517000020       156.411514       1.29203808    
   1.44430494       2.16155505     -0.517000020       156.411514       1.29203808    
   1.04286098       1.56075203     -0.606999993       156.411514       1.29203808    
   1.04286098       1.56075203     -0.606999993       439.716736       1.50117016    
  0.758352995       1.13495600     -0.606999993       439.716736       1.50117016    
  0.522363007       1.26109600     -0.606999993       439.716736       1.50117016    
  0.718334973       1.73421395     -0.606999993       439.716736       1.50117016    
   1.04286098       1.56075203     -0.606999993       212.256149       1.29586327    
   1.44430494       2.16155505     -0.517000020       212.256149       1.29586327    
   1.83825099       1.83825099     -0.517000020       212.256149       1.29586327    
   1.32730997       1.32730997     -0.606999993       212.256149       1.29586327    
   1.32730997       1.32730997     -0.606999993       593.262451       1.50145543    
  0.965201020      0.965201020     -0.606999993       593.262451       1.50145543    
  0.758352995       1.13495600     -0.606999993       593.262451       1.50145543    
   1.04286098       1.56075203     -0.606999993       593.262451       1.50145543    
   1.32730997       1.32730997     -0.606999993       259.966400       1.29702067    
   1.83825099       1.83825099     -0.517000020       259.966400       1.29702067    
   2.16155505       1.44430494     -0.517000020       259.966400       1.29702067    
   1.56075203       1.04286098     -0.606999993       259.966400       1.29702067    
   1.56075203       1.04286098     -0.606999993       723.787781       1.50143754    
   1.13495600      0.758352995     -0.606999993       723.787781       1.50143754    
  0.965201020      0.965201020     -0.606999993       723.787781       1.50143754    
   1.32730997       1.32730997     -0.606999993       723.787781       1.50143754    
   1.56075203       1.04286098     -0.606999993       296.947906       1.29600048    
   2.16155505       1.44430494     -0.517000020       296.947906       1.29600048    
   2.40179110      0.994853973     -0.517000020       296.947906       1.29600048    
   1.73421395      0.718334973     -0.606999993       296.947906       1.29600048    
   1.73421395      0.718334973     -0.606999993       825.619263       1.50111938    
   1.26109600      0.522363007     -0.606999993       825.619263       1.50111938    
   1.13495600      0.758352995     -0.606999993       825.619263       1.50111938    
   1.56075203       1.04286098     -0.606999993       825.619263       1.50111938    
   1.73421395      0.718334973     -0.606999993       321.624542       1.29420161    
   2.40179110      0.994853973     -0.517000020       321.624542       1.29420161    
   2.54972792      0.507171988     -0.517000020       321.624542       1.29420161    
   1.84103203      0.366203994     -0.606999993       321.624542       1.29420161    
   1.84103203      0.366203994     -0.606999993       895.192017       1.50072658    
   1.33877206      0.266297996     -0.606999993       895.192017       1.50072658    
   1.26109600      0.522363007     -0.606999993       895.192017       1.50072658    
   1.73421395      0.718334973     -0.606999993       895.192017       1.50072658    
   1.84103203      0.366203994     -0.606999993       333.879761       1.29293895    
   2.54972792      0.507171988     -0.517000020       333.879761       1.29293895    
   2.59967995       0.00000000     -0.517000020       333.879761       1.29293895    
   1.87709999       0.00000000     -0.606999993       333.879761       1.29293895    
   1.87709999       0.00000000     -0.606999993       930.404724       1.50043046    
   1.36500001       0.00000000     -0.606999993       930.404724       1.50043046    
   1.33877206      0.266297996     -0.606999993       930.404724       1.50043046    
   1.84103203      0.366203994     -0.606999993       930.404724       1.50043046    
   1.87709999       0.00000000     -0.606999993       334.027283       1.29280996    
   2.59967995       0.00000000     -0.517000020       334.027283       1.29280996    
   2.54972792     -0.507171988     -0.517000020       334.027283       1.29280996    
   1.84103203     -0.366203994     -0.606999993       334.027283       1.29280996    
   1.84103203     -0.366203994     -0.606999993       930.142761       1.50029600    
   1.33877206     -0.266297996     -0.606999993       930.142761       1.50029600    
   1.36500001       0.00000000     -0.606999993       930.142761       1.50029600    
   1.87709999       0.00000000     -0.606999993       930.142761       1.50029600    
   1.84103203     -0.366203994     -0.606999993       321.926758       1.29367971    
   2.54972792     -0.507171988     -0.517000020       321.926758       1.29367971    
   2.40179110     -0.994853973     -0.517000020       321.926758       1.29367971    
   1.73421395     -0.718334973     -0.606999993       321.926758       1.29367971    
   1.73421395     -0.718334973     -0.606999993       894.398865       1.50029922    
   1.26109600     -0.522363007     -0.606999993       894.398865       1.50029922    
   1.33877206     -0.266297996     -0.606999993       894.398865       1.50029922    
   1.84103203     -0.366203994     -0.606999993       894.398865       1.50029922    
   1.73421395     -0.718334973     -0.606999993       297.192657       1.29475784    
   2.40179110     -0.994853973     -0.517000020       297.192657       1.29475784    
   2.16155505      -1.44430494     -0.517000020       297.192657       1.29475784    
   1.56075203      -1.04286098     -0.606999993       297.192657       1.29475784    
   1.56075203      -1.04286098     -0.606999993       824.177917       1.50032389    
   1.13495600     -0.758352995     -0.606999993       824.177917       1.50032389    
   1.26109600     -0.522363007     -0.606999993       824.177917       1.50032389    