 VARIABLES="X" "Y" "Z" "abs(p) (Pa)" "angle(p) (rad)"
ZONE N=   2709,E =    2358, F=FEPOINT, ET=QUADRILATERAL
   0.00000000      -5.48999977     -0.157000005       3.30034232       1.74755597    
   0.00000000      -4.76741982     -0.246999994       3.30034232       1.74755597    
  0.930077016      -4.67581606     -0.246999994       3.30034232       1.74755597    
   1.07104599      -5.38451099     -0.157000005       3.30034232       1.74755597    
  -1.07104599      -5.38451099     -0.157000005       2.92695022       1.57587254    
 -0.930077016      -4.67581606     -0.246999994       2.92695022       1.57587254    
   0.00000000      -4.76741982     -0.246999994       2.92695022       1.57587254    
   0.00000000      -5.48999977     -0.157000005       2.92695022       1.57587254    
  -2.10093188      -5.07209921     -0.157000005       5.91809559       1.76088500    
  -1.82441294      -4.40452194     -0.246999994       5.91809559       1.76088500    
 -0.930077016      -4.67581606     -0.246999994       5.91809559       1.76088500    
  -1.07104599      -5.38451099     -0.157000005       5.91809559       1.76088500    
  -3.05008101      -4.56476784     -0.157000005       2.81566978       1.55527520    
  -2.64863706      -3.96396494     -0.246999994       2.81566978       1.55527520    
  -1.82441294      -4.40452194     -0.246999994       2.81566978       1.55527520    
  -2.10093188      -5.07209921     -0.157000005       2.81566978       1.55527520    
  -3.88201594      -3.88201594     -0.157000005       3.52155304       1.81904197    
  -3.37107491      -3.37107491     -0.246999994       3.52155304       1.81904197    
  -2.64863706      -3.96396494     -0.246999994       3.52155304       1.81904197    
  -3.05008101      -4.56476784     -0.157000005       3.52155304       1.81904197    
  -4.56476784      -3.05008101     -0.157000005       1.78921521     -0.347343653    
  -3.96396494      -2.64863706     -0.246999994       1.78921521     -0.347343653    
  -3.37107491      -3.37107491     -0.246999994       1.78921521     -0.347343653    
  -3.88201594      -3.88201594     -0.157000005       1.78921521     -0.347343653    
  -5.07209921      -2.10093188     -0.157000005       3.07641029       2.23657489    
  -4.40452194      -1.82441294     -0.246999994       3.07641029       2.23657489    
  -3.96396494      -2.64863706     -0.246999994       3.07641029       2.23657489    
  -4.56476784      -3.05008101     -0.157000005       3.07641029       2.23657489    
  -5.38451099      -1.07104599     -0.157000005       4.08701563       1.45705807    
  -4.67581606     -0.930077016     -0.246999994       4.08701563       1.45705807    
  -4.40452194      -1.82441294     -0.246999994       4.08701563       1.45705807    
  -5.07209921      -2.10093188     -0.157000005       4.08701563       1.45705807    
  -5.48999977       0.00000000     -0.157000005       4.74025297       1.80096102    
  -4.76741982       0.00000000     -0.246999994       4.74025297       1.80096102    
  -4.67581606     -0.930077016     -0.246999994       4.74025297       1.80096102    
  -5.38451099      -1.07104599     -0.157000005       4.74025297       1.80096102    
  -5.38451099       1.07104599     -0.157000005       6.32320786       1.65106094    
  -4.67581606      0.930077016     -0.246999994       6.32320786       1.65106094    
  -4.76741982       0.00000000     -0.246999994       6.32320786       1.65106094    
  -5.48999977       0.00000000     -0.157000005       6.32320786       1.65106094    
  -5.07209921       2.10093188     -0.157000005       5.04703045       1.68169463    
  -4.40452194       1.82441294     -0.246999994       5.04703045       1.68169463    
  -4.67581606      0.930077016     -0.246999994       5.04703045       1.68169463    
  -5.38451099       1.07104599     -0.157000005       5.04703045       1.68169463    
  -4.56476784       3.05008101     -0.157000005       6.13555956       1.72782540    
  -3.96396494       2.64863706     -0.246999994       6.13555956       1.72782540    
  -4.40452194       1.82441294     -0.246999994       6.13555956       1.72782540    
  -5.07209921       2.10093188     -0.157000005       6.13555956       1.72782540    
  -3.88201594       3.88201594     -0.157000005       2.92668343       1.56407952    
  -3.37107491       3.37107491     -0.246999994       2.92668343       1.56407952    
  -3.96396494       2.64863706     -0.246999994       2.92668343       1.56407952    
  -4.56476784       3.05008101     -0.157000005       2.92668343       1.56407952    
  -3.05008101       4.56476784     -0.157000005       5.85545731       1.76895428    
  -2.64863706       3.96396494     -0.246999994       5.85545731       1.76895428    
  -3.37107491       3.37107491     -0.246999994       5.85545731       1.76895428    
  -3.88201594       3.88201594     -0.157000005       5.85545731       1.76895428    
  -2.10093188       5.07209921     -0.157000005       3.11907148       1.54316568    
  -1.82441294       4.40452194     -0.246999994       3.11907148       1.54316568    
  -2.64863706       3.96396494     -0.246999994       3.11907148       1.54316568    
  -3.05008101       4.56476784     -0.157000005       3.11907148       1.54316568    
  -1.07104599       5.38451099     -0.157000005       5.64844513       1.77034676    
 -0.930077016       4.67581606     -0.246999994       5.64844513       1.77034676    
  -1.82441294       4.40452194     -0.246999994       5.64844513       1.77034676    
  -2.10093188       5.07209921     -0.157000005       5.64844513       1.77034676    
   0.00000000       5.48999977     -0.157000005       3.25830626       1.57691455    
   0.00000000       4.76741982     -0.246999994       3.25830626       1.57691455    
 -0.930077016       4.67581606     -0.246999994       3.25830626       1.57691455    
  -1.07104599       5.38451099     -0.157000005       3.25830626       1.57691455    
   1.07104599       5.38451099     -0.157000005       5.45325613       1.73738098    
  0.930077016       4.67581606     -0.246999994       5.45325613       1.73738098    
   0.00000000       4.76741982     -0.246999994       5.45325613       1.73738098    
   0.00000000       5.48999977     -0.157000005       5.45325613       1.73738098    
   2.10093188       5.07209921     -0.157000005       3.47765517       1.67175472    
   1.82441294       4.40452194     -0.246999994       3.47765517       1.67175472    
  0.930077016       4.67581606     -0.246999994       3.47765517       1.67175472    
   1.07104599       5.38451099     -0.157000005       3.47765517       1.67175472    
   3.05008101       4.56476784     -0.157000005       2.83060384       1.63575804    
   2.64863706       3.96396494     -0.246999994       2.83060384       1.63575804    
   1.82441294       4.40452194     -0.246999994       2.83060384       1.63575804    
   2.10093188       5.07209921     -0.157000005       2.83060384       1.63575804    
   3.88201594       3.88201594     -0.157000005       5.97000504       1.74157870    
   3.37107491       3.37107491     -0.246999994       5.97000504       1.74157870    
   2.64863706       3.96396494     -0.246999994       5.97000504       1.74157870    
   3.05008101       4.56476784     -0.157000005       5.97000504       1.74157870    
   4.56476784       3.05008101     -0.157000005       3.49899006       1.45705128    
   3.96396494       2.64863706     -0.246999994       3.49899006       1.45705128    
   3.37107491       3.37107491     -0.246999994       3.49899006       1.45705128    
   3.88201594       3.88201594     -0.157000005       3.49899006       1.45705128    
   5.07209921       2.10093188     -0.157000005       5.62731886       1.90686512    
   4.40452194       1.82441294     -0.246999994       5.62731886       1.90686512    
   3.96396494       2.64863706     -0.246999994       5.62731886       1.90686512    
   4.56476784       3.05008101     -0.157000005       5.62731886       1.90686512    
   5.38451099       1.07104599     -0.157000005       3.75638676       1.51295257    
   4.67581606      0.930077016     -0.246999994       3.75638676       1.51295257    
   4.40452194       1.82441294     -0.246999994       3.75638676       1.51295257    
   5.07209921       2.10093188     -0.157000005       3.75638676       1.51295257    
   5.48999977       0.00000000     -0.157000005       2.78798914       1.83094120    
   4.76741982       0.00000000     -0.246999994       2.78798914       1.83094120    
   4.67581606      0.930077016     -0.246999994       2.78798914       1.83094120    
   5.38451099       1.07104599     -0.157000005       2.78798914       1.83094120    
   5.38451099      -1.07104599     -0.157000005       3.56669235       1.62434256    
   4.67581606     -0.930077016     -0.246999994       3.56669235       1.62434256    
   4.76741982       0.00000000     -0.246999994       3.56669235       1.62434256    
   5.48999977       0.00000000     -0.157000005       3.56669235       1.62434256    
   5.07209921      -2.10093188     -0.157000005       2.84852982       1.73143625    
   4.40452194      -1.82441294     -0.246999994       2.84852982       1.73143625    
   4.67581606     -0.930077016     -0.246999994       2.84852982       1.73143625    
   5.38451099      -1.07104599     -0.157000005       2.84852982       1.73143625    
   4.56476784      -3.05008101     -0.157000005       3.46537948       1.68072629    
   3.96396494      -2.64863706     -0.246999994       3.46537948       1.68072629    
   4.40452194      -1.82441294     -0.246999994       3.46537948       1.68072629    
   5.07209921      -2.10093188     -0.157000005       3.46537948       1.68072629    
   3.88201594      -3.88201594     -0.157000005       2.87841296       1.66373312    
   3.37107491      -3.37107491     -0.246999994       2.87841296       1.66373312    
   3.96396494      -2.64863706     -0.246999994       2.87841296       1.66373312    
   4.56476784      -3.05008101     -0.157000005       2.87841296       1.66373312    
   3.05008101      -4.56476784     -0.157000005       5.77110958       1.70515406    
   2.64863706      -3.96396494     -0.246999994       5.77110958       1.70515406    
   3.37107491      -3.37107491     -0.246999994       5.77110958       1.70515406    
   3.88201594      -3.88201594     -0.157000005       5.77110958       1.70515406    
   2.10093188      -5.07209921     -0.157000005       3.14999032       1.68757379    
   1.82441294      -4.40452194     -0.246999994       3.14999032       1.68757379    
   2.64863706      -3.96396494     -0.246999994       3.14999032       1.68757379    
   3.05008101      -4.56476784     -0.157000005       3.14999032       1.68757379    
   1.07104599      -5.38451099     -0.157000005       3.17328715       1.66029358    
  0.930077016      -4.67581606     -0.246999994       3.17328715       1.66029358    
   1.82441294      -4.40452194     -0.246999994       3.17328715       1.66029358    
   2.10093188      -5.07209921     -0.157000005       3.17328715       1.66029358    
   0.00000000      -1.87709999     -0.606999993       3.80627847      -1.56410348    
   0.00000000      -1.36500001     -0.606999993       3.80627847      -1.56410348    
  0.266297996      -1.33877206     -0.606999993       3.80627847      -1.56410348    
  0.366203994      -1.84103203     -0.606999993       3.80627847      -1.56410348    
   0.00000000      -1.87709999     -0.606999993      0.423308820       1.55524254    
   0.00000000      -2.59967995     -0.517000020      0.423308820       1.55524254    
 -0.507171988      -2.54972792     -0.517000020      0.423308820       1.55524254    
 -0.366203994      -1.84103203     -0.606999993      0.423308820       1.55524254    
 -0.366203994      -1.84103203     -0.606999993       3.76408172      -1.56465757    
 -0.266297996      -1.33877206     -0.606999993       3.76408172      -1.56465757    
   0.00000000      -1.36500001     -0.606999993       3.76408172      -1.56465757    
   0.00000000      -1.87709999     -0.606999993       3.76408172      -1.56465757    
 -0.366203994      -1.84103203     -0.606999993      0.428455710       1.56102490    
 -0.507171988      -2.54972792     -0.517000020      0.428455710       1.56102490    
 -0.994853973      -2.40179110     -0.517000020      0.428455710       1.56102490    
 -0.718334973      -1.73421395     -0.606999993      0.428455710       1.56102490    
 -0.718334973      -1.73421395     -0.606999993       3.76776099      -1.56529260    
 -0.522363007      -1.26109600     -0.606999993       3.76776099      -1.56529260    
 -0.266297996      -1.33877206     -0.606999993       3.76776099      -1.56529260    
 -0.366203994      -1.84103203     -0.606999993       3.76776099      -1.56529260    
 -0.718334973      -1.73421395     -0.606999993      0.405454278       1.56641638    
 -0.994853973      -2.40179110     -0.517000020      0.405454278       1.56641638    
  -1.44430494      -2.16155505     -0.517000020      0.405454278       1.56641638    
  -1.04286098      -1.56075203     -0.606999993      0.405454278       1.56641638    
  -1.04286098      -1.56075203     -0.606999993       3.82792783      -1.56631589    
 -0.758352995      -1.13495600     -0.606999993       3.82792783      -1.56631589    
 -0.522363007      -1.26109600     -0.606999993       3.82792783      -1.56631589    
 -0.718334973      -1.73421395     -0.606999993       3.82792783      -1.56631589    
  -1.04286098      -1.56075203     -0.606999993      0.364516169       1.56893134    
  -1.44430494      -2.16155505     -0.517000020      0.364516169       1.56893134    
  -1.83825099      -1.83825099     -0.517000020      0.364516169       1.56893134    
  -1.32730997      -1.32730997     -0.606999993      0.364516169       1.56893134    
  -1.32730997      -1.32730997     -0.606999993       3.91906595      -1.56692135    
 -0.965201020     -0.965201020     -0.606999993       3.91906595      -1.56692135    
 -0.758352995      -1.13495600     -0.606999993       3.91906595      -1.56692135    
  -1.04286098      -1.56075203     -0.606999993       3.91906595      -1.56692135    
  -1.32730997      -1.32730997     -0.606999993      0.320151389       1.56935227    
  -1.83825099      -1.83825099     -0.517000020      0.320151389       1.56935227    
  -2.16155505      -1.44430494     -0.517000020      0.320151389       1.56935227    
  -1.56075203      -1.04286098     -0.606999993      0.320151389       1.56935227    
  -1.56075203      -1.04286098     -0.606999993       4.00326490      -1.56732190    
  -1.13495600     -0.758352995     -0.606999993       4.00326490      -1.56732190    
 -0.965201020     -0.965201020     -0.606999993       4.00326490      -1.56732190    
  -1.32730997      -1.32730997     -0.606999993       4.00326490      -1.56732190    
  -1.56075203      -1.04286098     -0.606999993      0.297099739       1.56612015    
  -2.16155505      -1.44430494     -0.517000020      0.297099739       1.56612015    
  -2.40179110     -0.994853973     -0.517000020      0.297099739       1.56612015    
  -1.73421395     -0.718334973     -0.606999993      0.297099739       1.56612015    
  -1.73421395     -0.718334973     -0.606999993       4.02236891      -1.56700075    
  -1.26109600     -0.522363007     -0.606999993       4.02236891      -1.56700075    
  -1.13495600     -0.758352995     -0.606999993       4.02236891      -1.56700075    
  -1.56075203      -1.04286098     -0.606999993       4.02236891      -1.56700075    
  -1.73421395     -0.718334973     -0.606999993      0.297064871       1.55228627    
  -2.40179110     -0.994853973     -0.517000020      0.297064871       1.55228627    
  -2.54972792     -0.507171988     -0.517000020      0.297064871       1.55228627    
  -1.84103203     -0.366203994     -0.606999993      0.297064871       1.55228627    
  -1.84103203     -0.366203994     -0.606999993       3.99268866      -1.56617904    
  -1.33877206     -0.266297996     -0.606999993       3.99268866      -1.56617904    
  -1.26109600     -0.522363007     -0.606999993       3.99268866      -1.56617904    
  -1.73421395     -0.718334973     -0.606999993       3.99268866      -1.56617904    
  -1.84103203     -0.366203994     -0.606999993      0.311217129       1.53697610    
  -2.54972792     -0.507171988     -0.517000020      0.311217129       1.53697610    
  -2.59967995       0.00000000     -0.517000020      0.311217129       1.53697610    
  -1.87709999       0.00000000     -0.606999993      0.311217129       1.53697610    
  -1.87709999       0.00000000     -0.606999993       3.93809438      -1.56515241    
  -1.36500001       0.00000000     -0.606999993       3.93809438      -1.56515241    
  -1.33877206     -0.266297996     -0.606999993       3.93809438      -1.56515241    
  -1.84103203     -0.366203994     -0.606999993       3.93809438      -1.56515241    
  -1.87709999       0.00000000     -0.606999993      0.328277081       1.52760887    
  -2.59967995       0.00000000     -0.517000020      0.328277081       1.52760887    
  -2.54972792      0.507171988     -0.517000020      0.328277081       1.52760887    
  -1.84103203      0.366203994     -0.606999993      0.328277081       1.52760887    
  -1.84103203      0.366203994     -0.606999993       3.88019633      -1.56416857    
  -1.33877206      0.266297996     -0.606999993       3.88019633      -1.56416857    
  -1.36500001       0.00000000     -0.606999993       3.88019633      -1.56416857    
  -1.87709999       0.00000000     -0.606999993       3.88019633      -1.56416857    
  -1.84103203      0.366203994     -0.606999993      0.340425193       1.52484763    
  -2.54972792      0.507171988     -0.517000020      0.340425193       1.52484763    
  -2.40179110      0.994853973     -0.517000020      0.340425193       1.52484763    
  -1.73421395      0.718334973     -0.606999993      0.340425193       1.52484763    
  -1.73421395      0.718334973     -0.606999993       3.83724356      -1.56375670    
  -1.26109600      0.522363007     -0.606999993       3.83724356      -1.56375670    
  -1.33877206      0.266297996     -0.606999993       3.83724356      -1.56375670    
  -1.84103203      0.366203994     -0.606999993       3.83724356      -1.56375670    
  -1.73421395      0.718334973     -0.606999993      0.343691349       1.52623749    
  -2.40179110      0.994853973     -0.517000020      0.343691349       1.52623749    
  -2.16155505       1.44430494     -0.517000020      0.343691349       1.52623749    
  -1.56075203       1.04286098     -0.606999993      0.343691349       1.52623749    
  -1.56075203       1.04286098     -0.606999993       3.82257080      -1.56378520    
  -1.13495600      0.758352995     -0.606999993       3.82257080      -1.56378520    
  -1.26109600      0.522363007     -0.606999993       3.82257080      -1.56378520    
  -1.73421395      0.718334973     -0.606999993       3.82257080      -1.56378520    
  -1.56075203       1.04286098     -0.606999993      0.338607341       1.52721858    
  -2.16155505       1.44430494     -0.517000020      0.338607341       1.52721858    
  -1.83825099       1.83825099     -0.517000020      0.338607341       1.52721858    
  -1.32730997       1.32730997     -0.606999993      0.338607341       1.52721858    
  -1.32730997       1.32730997     -0.606999993       3.83863521      -1.56423557    
 -0.965201020      0.965201020     -0.606999993       3.83863521      -1.56423557    
  -1.13495600      0.758352995     -0.606999993       3.83863521      -1.56423557    
  -1.56075203       1.04286098     -0.606999993       3.83863521      -1.56423557    
  -1.32730997       1.32730997     -0.606999993      0.321571171       1.53062963    
  -1.83825099       1.83825099     -0.517000020      0.321571171       1.53062963    
  -1.44430494       2.16155505     -0.517000020      0.321571171       1.53062963    
  -1.04286098       1.56075203     -0.606999993      0.321571171       1.53062963    
  -1.04286098       1.56075203     -0.606999993       3.87858725      -1.56499684    
 -0.758352995       1.13495600     -0.606999993       3.87858725      -1.56499684    
 -0.965201020      0.965201020     -0.606999993       3.87858725      -1.56499684    
  -1.32730997       1.32730997     -0.606999993       3.87858725      -1.56499684    
  -1.04286098       1.56075203     -0.606999993      0.299914598       1.53262043    
  -1.44430494       2.16155505     -0.517000020      0.299914598       1.53262043    
 -0.994853973       2.40179110     -0.517000020      0.299914598       1.53262043    
 -0.718334973       1.73421395     -0.606999993      0.299914598       1.53262043    
 -0.718334973       1.73421395     -0.606999993       3.92932606      -1.56574631    
 -0.522363007       1.26109600     -0.606999993       3.92932606      -1.56574631    
 -0.758352995       1.13495600     -0.606999993       3.92932606      -1.56574631    
  -1.04286098       1.56075203     -0.606999993       3.92932606      -1.56574631    
 -0.718334973       1.73421395     -0.606999993      0.280340165       1.53620303    
 -0.994853973       2.40179110     -0.517000020      0.280340165       1.53620303    
 -0.507171988       2.54972792     -0.517000020      0.280340165       1.53620303    
 -0.366203994       1.84103203     -0.606999993      0.280340165       1.53620303    
 -0.366203994       1.84103203     -0.606999993       3.96942353      -1.56631529    
 -0.266297996       1.33877206     -0.606999993       3.96942353      -1.56631529    
 -0.522363007       1.26109600     -0.606999993       3.96942353      -1.56631529    
 -0.718334973       1.73421395     -0.606999993       3.96942353      -1.56631529    
 -0.366203994       1.84103203     -0.606999993      0.273072153       1.53771377    
 -0.507171988       2.54972792     -0.517000020      0.273072153       1.53771377    
   0.00000000       2.59967995     -0.517000020      0.273072153       1.53771377    
   0.00000000       1.87709999     -0.606999993      0.273072153       1.53771377    
   0.00000000       1.87709999     -0.606999993       3.98831272      -1.56638288    
   0.00000000       1.36500001     -0.606999993       3.98831272      -1.56638288    
 -0.266297996       1.33877206     -0.606999993       3.98831272      -1.56638288    
 -0.366203994       1.84103203     -0.606999993       3.98831272      -1.56638288    
   0.00000000       1.87709999     -0.606999993      0.284291297       1.54084289    
   0.00000000       2.59967995     -0.517000020      0.284291297       1.54084289    
  0.507171988       2.54972792     -0.517000020      0.284291297       1.54084289    
  0.366203994       1.84103203     -0.606999993      0.284291297       1.54084289    
  0.366203994       1.84103203     -0.606999993       3.97388959      -1.56623101    
  0.266297996       1.33877206     -0.606999993       3.97388959      -1.56623101    
   0.00000000       1.36500001     -0.606999993       3.97388959      -1.56623101    
   0.00000000       1.87709999     -0.606999993       3.97388959      -1.56623101    
  0.366203994       1.84103203     -0.606999993      0.306936830       1.53986919    
  0.507171988       2.54972792     -0.517000020      0.306936830       1.53986919    
  0.994853973       2.40179110     -0.517000020      0.306936830       1.53986919    
  0.718334973       1.73421395     -0.606999993      0.306936830       1.53986919    
  0.718334973       1.73421395     -0.606999993       3.93587208      -1.56554484    
  0.522363007       1.26109600     -0.606999993       3.93587208      -1.56554484    
  0.266297996       1.33877206     -0.606999993       3.93587208      -1.56554484    
  0.366203994       1.84103203     -0.606999993       3.93587208      -1.56554484    
  0.718334973       1.73421395     -0.606999993      0.328283787       1.53673899    
  0.994853973       2.40179110     -0.517000020      0.328283787       1.53673899    
   1.44430494       2.16155505     -0.517000020      0.328283787       1.53673899    
   1.04286098       1.56075203     -0.606999993      0.328283787       1.53673899    
   1.04286098       1.56075203     -0.606999993       3.90027022      -1.56484210    
  0.758352995       1.13495600     -0.606999993       3.90027022      -1.56484210    
  0.522363007       1.26109600     -0.606999993       3.90027022      -1.56484210    
  0.718334973       1.73421395     -0.606999993       3.90027022      -1.56484210    
   1.04286098       1.56075203     -0.606999993      0.339182198       1.53379822    
   1.44430494       2.16155505     -0.517000020      0.339182198       1.53379822    
   1.83825099       1.83825099     -0.517000020      0.339182198       1.53379822    
   1.32730997       1.32730997     -0.606999993      0.339182198       1.53379822    
   1.32730997       1.32730997     -0.606999993       3.87795186      -1.56407607    
  0.965201020      0.965201020     -0.606999993       3.87795186      -1.56407607    
  0.758352995       1.13495600     -0.606999993       3.87795186      -1.56407607    
   1.04286098       1.56075203     -0.606999993       3.87795186      -1.56407607    
   1.32730997       1.32730997     -0.606999993      0.339075685       1.53243136    
   1.83825099       1.83825099     -0.517000020      0.339075685       1.53243136    
   2.16155505       1.44430494     -0.517000020      0.339075685       1.53243136    
   1.56075203       1.04286098     -0.606999993      0.339075685       1.53243136    
   1.56075203       1.04286098     -0.606999993       3.87464046      -1.56376171    
   1.13495600      0.758352995     -0.606999993       3.87464046      -1.56376171    
  0.965201020      0.965201020     -0.606999993       3.87464046      -1.56376171    
   1.32730997       1.32730997     -0.606999993       3.87464046      -1.56376171    
   1.56075203       1.04286098     -0.606999993      0.351443559       1.53697646    
   2.16155505       1.44430494     -0.517000020      0.351443559       1.53697646    
   2.40179110      0.994853973     -0.517000020      0.351443559       1.53697646    
   1.73421395      0.718334973     -0.606999993      0.351443559       1.53697646    
   1.73421395      0.718334973     -0.606999993       3.86313629      -1.56384170    
   1.26109600      0.522363007     -0.606999993       3.86313629      -1.56384170    
   1.13495600      0.758352995     -0.606999993       3.86313629      -1.56384170    
   1.56075203       1.04286098     -0.606999993       3.86313629      -1.56384170    
   1.73421395      0.718334973     -0.606999993      0.378206044       1.54304945    
   2.40179110      0.994853973     -0.517000020      0.378206044       1.54304945    
   2.54972792      0.507171988     -0.517000020      0.378206044       1.54304945    
   1.84103203      0.366203994     -0.606999993      0.378206044       1.54304945    
   1.84103203      0.366203994     -0.606999993       3.82343745      -1.56430674    
   1.33877206      0.266297996     -0.606999993       3.82343745      -1.56430674    
   1.26109600      0.522363007     -0.606999993       3.82343745      -1.56430674    
   1.73421395      0.718334973     -0.606999993       3.82343745      -1.56430674    
   1.84103203      0.366203994     -0.606999993      0.398563623       1.55137277    
   2.54972792      0.507171988     -0.517000020      0.398563623       1.55137277    
   2.59967995       0.00000000     -0.517000020      0.398563623       1.55137277    
   1.87709999       0.00000000     -0.606999993      0.398563623       1.55137277    
   1.87709999       0.00000000     -0.606999993       3.80453920      -1.56511819    
   1.36500001       0.00000000     -0.606999993       3.80453920      -1.56511819    
   1.33877206      0.266297996     -0.606999993       3.80453920      -1.56511819    
   1.84103203      0.366203994     -0.606999993       3.80453920      -1.56511819    
   1.87709999       0.00000000     -0.606999993      0.391650766       1.55881739    
   2.59967995       0.00000000     -0.517000020      0.391650766       1.55881739    
   2.54972792     -0.507171988     -0.517000020      0.391650766       1.55881739    
   1.84103203     -0.366203994     -0.606999993      0.391650766       1.55881739    
   1.84103203     -0.366203994     -0.606999993       3.83161902      -1.56591177    
   1.33877206     -0.266297996     -0.606999993       3.83161902      -1.56591177    
   1.36500001       0.00000000     -0.606999993       3.83161902      -1.56591177    
   1.87709999       0.00000000     -0.606999993       3.83161902      -1.56591177    
   1.84103203     -0.366203994     -0.606999993      0.358282894       1.56178856    
   2.54972792     -0.507171988     -0.517000020      0.358282894       1.56178856    
   2.40179110     -0.994853973     -0.517000020      0.358282894       1.56178856    
   1.73421395     -0.718334973     -0.606999993      0.358282894       1.56178856    
   1.73421395     -0.718334973     -0.606999993       3.89392114      -1.56636322    
   1.26109600     -0.522363007     -0.606999993       3.89392114      -1.56636322    
   1.33877206     -0.266297996     -0.606999993       3.89392114      -1.56636322    
   1.84103203     -0.366203994     -0.606999993       3.89392114      -1.56636322    
   1.73421395     -0.718334973     -0.606999993      0.317900032       1.56051469    
   2.40179110     -0.994853973     -0.517000020      0.317900032       1.56051469    
   2.16155505      -1.44430494     -0.517000020      0.317900032       1.56051469    
   1.56075203      -1.04286098     -0.606999993      0.317900032       1.56051469    
   1.56075203      -1.04286098     -0.606999993       3.96123815      -1.56636512    
   1.13495600     -0.758352995     -0.606999993       3.96123815      -1.56636512    
   1.26109600     -0.522363007     -0.606999993       3.96123815      -1.56636512    