 VARIABLES="X" "Y" "Z" "abs(p) (Pa)" "angle(p) (rad)"
ZONE N=   2709,E =    2358, F=FEPOINT, ET=QUADRILATERAL
   0.00000000      -5.48999977     -0.157000005       4511.33203      -1.26154864    
   0.00000000      -4.76741982     -0.246999994       4511.33203      -1.26154864    
  0.930077016      -4.67581606     -0.246999994       4511.33203      -1.26154864    
   1.07104599      -5.38451099     -0.157000005       4511.33203      -1.26154864    
  -1.07104599      -5.38451099     -0.157000005       4514.63037      -1.26194167    
 -0.930077016      -4.67581606     -0.246999994       4514.63037      -1.26194167    
   0.00000000      -4.76741982     -0.246999994       4514.63037      -1.26194167    
   0.00000000      -5.48999977     -0.157000005       4514.63037      -1.26194167    
  -2.10093188      -5.07209921     -0.157000005       4373.04492      -1.26620674    
  -1.82441294      -4.40452194     -0.246999994       4373.04492      -1.26620674    
 -0.930077016      -4.67581606     -0.246999994       4373.04492      -1.26620674    
  -1.07104599      -5.38451099     -0.157000005       4373.04492      -1.26620674    
  -3.05008101      -4.56476784     -0.157000005       4003.84229      -1.26235032    
  -2.64863706      -3.96396494     -0.246999994       4003.84229      -1.26235032    
  -1.82441294      -4.40452194     -0.246999994       4003.84229      -1.26235032    
  -2.10093188      -5.07209921     -0.157000005       4003.84229      -1.26235032    
  -3.88201594      -3.88201594     -0.157000005       3510.78052      -1.26243258    
  -3.37107491      -3.37107491     -0.246999994       3510.78052      -1.26243258    
  -2.64863706      -3.96396494     -0.246999994       3510.78052      -1.26243258    
  -3.05008101      -4.56476784     -0.157000005       3510.78052      -1.26243258    
  -4.56476784      -3.05008101     -0.157000005       2910.98926      -1.26826441    
  -3.96396494      -2.64863706     -0.246999994       2910.98926      -1.26826441    
  -3.37107491      -3.37107491     -0.246999994       2910.98926      -1.26826441    
  -3.88201594      -3.88201594     -0.157000005       2910.98926      -1.26826441    
  -5.07209921      -2.10093188     -0.157000005       2145.83252      -1.26378441    
  -4.40452194      -1.82441294     -0.246999994       2145.83252      -1.26378441    
  -3.96396494      -2.64863706     -0.246999994       2145.83252      -1.26378441    
  -4.56476784      -3.05008101     -0.157000005       2145.83252      -1.26378441    
  -5.38451099      -1.07104599     -0.157000005       1315.45544      -1.26173496    
  -4.67581606     -0.930077016     -0.246999994       1315.45544      -1.26173496    
  -4.40452194      -1.82441294     -0.246999994       1315.45544      -1.26173496    
  -5.07209921      -2.10093188     -0.157000005       1315.45544      -1.26173496    
  -5.48999977       0.00000000     -0.157000005       442.053375      -1.26169860    
  -4.76741982       0.00000000     -0.246999994       442.053375      -1.26169860    
  -4.67581606     -0.930077016     -0.246999994       442.053375      -1.26169860    
  -5.38451099      -1.07104599     -0.157000005       442.053375      -1.26169860    
  -5.38451099       1.07104599     -0.157000005       456.027222       1.86946642    
  -4.67581606      0.930077016     -0.246999994       456.027222       1.86946642    
  -4.76741982       0.00000000     -0.246999994       456.027222       1.86946642    
  -5.48999977       0.00000000     -0.157000005       456.027222       1.86946642    
  -5.07209921       2.10093188     -0.157000005       1337.62976       1.87273860    
  -4.40452194       1.82441294     -0.246999994       1337.62976       1.87273860    
  -4.67581606      0.930077016     -0.246999994       1337.62976       1.87273860    
  -5.38451099       1.07104599     -0.157000005       1337.62976       1.87273860    
  -4.56476784       3.05008101     -0.157000005       2165.83936       1.87418592    
  -3.96396494       2.64863706     -0.246999994       2165.83936       1.87418592    
  -4.40452194       1.82441294     -0.246999994       2165.83936       1.87418592    
  -5.07209921       2.10093188     -0.157000005       2165.83936       1.87418592    
  -3.88201594       3.88201594     -0.157000005       2890.81055       1.87889326    
  -3.37107491       3.37107491     -0.246999994       2890.81055       1.87889326    
  -3.96396494       2.64863706     -0.246999994       2890.81055       1.87889326    
  -4.56476784       3.05008101     -0.157000005       2890.81055       1.87889326    
  -3.05008101       4.56476784     -0.157000005       3542.65991       1.87541187    
  -2.64863706       3.96396494     -0.246999994       3542.65991       1.87541187    
  -3.37107491       3.37107491     -0.246999994       3542.65991       1.87541187    
  -3.88201594       3.88201594     -0.157000005       3542.65991       1.87541187    
  -2.10093188       5.07209921     -0.157000005       4013.19019       1.87938011    
  -1.82441294       4.40452194     -0.246999994       4013.19019       1.87938011    
  -2.64863706       3.96396494     -0.246999994       4013.19019       1.87938011    
  -3.05008101       4.56476784     -0.157000005       4013.19019       1.87938011    
  -1.07104599       5.38451099     -0.157000005       4380.68604       1.87586403    
 -0.930077016       4.67581606     -0.246999994       4380.68604       1.87586403    
  -1.82441294       4.40452194     -0.246999994       4380.68604       1.87586403    
  -2.10093188       5.07209921     -0.157000005       4380.68604       1.87586403    
   0.00000000       5.48999977     -0.157000005       4526.29053       1.87972760    
   0.00000000       4.76741982     -0.246999994       4526.29053       1.87972760    
 -0.930077016       4.67581606     -0.246999994       4526.29053       1.87972760    
  -1.07104599       5.38451099     -0.157000005       4526.29053       1.87972760    
   1.07104599       5.38451099     -0.157000005       4553.93164       1.87622666    
  0.930077016       4.67581606     -0.246999994       4553.93164       1.87622666    
   0.00000000       4.76741982     -0.246999994       4553.93164       1.87622666    
   0.00000000       5.48999977     -0.157000005       4553.93164       1.87622666    
   2.10093188       5.07209921     -0.157000005       4349.04053       1.88032162    
   1.82441294       4.40452194     -0.246999994       4349.04053       1.88032162    
  0.930077016       4.67581606     -0.246999994       4349.04053       1.88032162    
   1.07104599       5.38451099     -0.157000005       4349.04053       1.88032162    
   3.05008101       4.56476784     -0.157000005       4008.09204       1.88049793    
   2.64863706       3.96396494     -0.246999994       4008.09204       1.88049793    
   1.82441294       4.40452194     -0.246999994       4008.09204       1.88049793    
   2.10093188       5.07209921     -0.157000005       4008.09204       1.88049793    
   3.88201594       3.88201594     -0.157000005       3544.56030       1.87560284    
   3.37107491       3.37107491     -0.246999994       3544.56030       1.87560284    
   2.64863706       3.96396494     -0.246999994       3544.56030       1.87560284    
   3.05008101       4.56476784     -0.157000005       3544.56030       1.87560284    
   4.56476784       3.05008101     -0.157000005       2909.61353       1.87582362    
   3.96396494       2.64863706     -0.246999994       2909.61353       1.87582362    
   3.37107491       3.37107491     -0.246999994       2909.61353       1.87582362    
   3.88201594       3.88201594     -0.157000005       2909.61353       1.87582362    
   5.07209921       2.10093188     -0.157000005       2167.90161       1.87460554    
   4.40452194       1.82441294     -0.246999994       2167.90161       1.87460554    
   3.96396494       2.64863706     -0.246999994       2167.90161       1.87460554    
   4.56476784       3.05008101     -0.157000005       2167.90161       1.87460554    
   5.38451099       1.07104599     -0.157000005       1322.93152       1.88080132    
   4.67581606      0.930077016     -0.246999994       1322.93152       1.88080132    
   4.40452194       1.82441294     -0.246999994       1322.93152       1.88080132    
   5.07209921       2.10093188     -0.157000005       1322.93152       1.88080132    
   5.48999977       0.00000000     -0.157000005       444.903503       1.88848507    
   4.76741982       0.00000000     -0.246999994       444.903503       1.88848507    
   4.67581606      0.930077016     -0.246999994       444.903503       1.88848507    
   5.38451099       1.07104599     -0.157000005       444.903503       1.88848507    
   5.38451099      -1.07104599     -0.157000005       445.897858      -1.27095735    
   4.67581606     -0.930077016     -0.246999994       445.897858      -1.27095735    
   4.76741982       0.00000000     -0.246999994       445.897858      -1.27095735    
   5.48999977       0.00000000     -0.157000005       445.897858      -1.27095735    
   5.07209921      -2.10093188     -0.157000005       1318.95386      -1.26464975    
   4.40452194      -1.82441294     -0.246999994       1318.95386      -1.26464975    
   4.67581606     -0.930077016     -0.246999994       1318.95386      -1.26464975    
   5.38451099      -1.07104599     -0.157000005       1318.95386      -1.26464975    
   4.56476784      -3.05008101     -0.157000005       2141.35693      -1.26330936    
   3.96396494      -2.64863706     -0.246999994       2141.35693      -1.26330936    
   4.40452194      -1.82441294     -0.246999994       2141.35693      -1.26330936    
   5.07209921      -2.10093188     -0.157000005       2141.35693      -1.26330936    
   3.88201594      -3.88201594     -0.157000005       2883.44287      -1.26322103    
   3.37107491      -3.37107491     -0.246999994       2883.44287      -1.26322103    
   3.96396494      -2.64863706     -0.246999994       2883.44287      -1.26322103    
   4.56476784      -3.05008101     -0.157000005       2883.44287      -1.26322103    
   3.05008101      -4.56476784     -0.157000005       3536.97827      -1.26705170    
   2.64863706      -3.96396494     -0.246999994       3536.97827      -1.26705170    
   3.37107491      -3.37107491     -0.246999994       3536.97827      -1.26705170    
   3.88201594      -3.88201594     -0.157000005       3536.97827      -1.26705170    
   2.10093188      -5.07209921     -0.157000005       4003.50244      -1.26249957    
   1.82441294      -4.40452194     -0.246999994       4003.50244      -1.26249957    
   2.64863706      -3.96396494     -0.246999994       4003.50244      -1.26249957    
   3.05008101      -4.56476784     -0.157000005       4003.50244      -1.26249957    
   1.07104599      -5.38451099     -0.157000005       4338.48047      -1.26167607    
  0.930077016      -4.67581606     -0.246999994       4338.48047      -1.26167607    
   1.82441294      -4.40452194     -0.246999994       4338.48047      -1.26167607    
   2.10093188      -5.07209921     -0.157000005       4338.48047      -1.26167607    
   0.00000000      -1.87709999     -0.606999993       3193.72803      -1.47249985    
   0.00000000      -1.36500001     -0.606999993       3193.72803      -1.47249985    
  0.266297996      -1.33877206     -0.606999993       3193.72803      -1.47249985    
  0.366203994      -1.84103203     -0.606999993       3193.72803      -1.47249985    
   0.00000000      -1.87709999     -0.606999993       3861.55371      -1.45810747    
   0.00000000      -2.59967995     -0.517000020       3861.55371      -1.45810747    
 -0.507171988      -2.54972792     -0.517000020       3861.55371      -1.45810747    
 -0.366203994      -1.84103203     -0.606999993       3861.55371      -1.45810747    
 -0.366203994      -1.84103203     -0.606999993       3195.56445      -1.47247183    
 -0.266297996      -1.33877206     -0.606999993       3195.56445      -1.47247183    
   0.00000000      -1.36500001     -0.606999993       3195.56445      -1.47247183    
   0.00000000      -1.87709999     -0.606999993       3195.56445      -1.47247183    
 -0.366203994      -1.84103203     -0.606999993       3704.01489      -1.45763004    
 -0.507171988      -2.54972792     -0.517000020       3704.01489      -1.45763004    
 -0.994853973      -2.40179110     -0.517000020       3704.01489      -1.45763004    
 -0.718334973      -1.73421395     -0.606999993       3704.01489      -1.45763004    
 -0.718334973      -1.73421395     -0.606999993       3070.38257      -1.47206151    
 -0.522363007      -1.26109600     -0.606999993       3070.38257      -1.47206151    
 -0.266297996      -1.33877206     -0.606999993       3070.38257      -1.47206151    
 -0.366203994      -1.84103203     -0.606999993       3070.38257      -1.47206151    
 -0.718334973      -1.73421395     -0.606999993       3406.81860      -1.45695972    
 -0.994853973      -2.40179110     -0.517000020       3406.81860      -1.45695972    
  -1.44430494      -2.16155505     -0.517000020       3406.81860      -1.45695972    
  -1.04286098      -1.56075203     -0.606999993       3406.81860      -1.45695972    
  -1.04286098      -1.56075203     -0.606999993       2827.93628      -1.47148085    
 -0.758352995      -1.13495600     -0.606999993       2827.93628      -1.47148085    
 -0.522363007      -1.26109600     -0.606999993       2827.93628      -1.47148085    
 -0.718334973      -1.73421395     -0.606999993       2827.93628      -1.47148085    
  -1.04286098      -1.56075203     -0.606999993       2988.30566      -1.45648789    
  -1.44430494      -2.16155505     -0.517000020       2988.30566      -1.45648789    
  -1.83825099      -1.83825099     -0.517000020       2988.30566      -1.45648789    
  -1.32730997      -1.32730997     -0.606999993       2988.30566      -1.45648789    
  -1.32730997      -1.32730997     -0.606999993       2480.60645      -1.47102821    
 -0.965201020     -0.965201020     -0.606999993       2480.60645      -1.47102821    
 -0.758352995      -1.13495600     -0.606999993       2480.60645      -1.47102821    
  -1.04286098      -1.56075203     -0.606999993       2480.60645      -1.47102821    
  -1.32730997      -1.32730997     -0.606999993       2459.27783      -1.45653856    
  -1.83825099      -1.83825099     -0.517000020       2459.27783      -1.45653856    
  -2.16155505      -1.44430494     -0.517000020       2459.27783      -1.45653856    
  -1.56075203      -1.04286098     -0.606999993       2459.27783      -1.45653856    
  -1.56075203      -1.04286098     -0.606999993       2039.76819      -1.47093511    
  -1.13495600     -0.758352995     -0.606999993       2039.76819      -1.47093511    
 -0.965201020     -0.965201020     -0.606999993       2039.76819      -1.47093511    
  -1.32730997      -1.32730997     -0.606999993       2039.76819      -1.47093511    
  -1.56075203      -1.04286098     -0.606999993       1831.03333      -1.45724070    
  -2.16155505      -1.44430494     -0.517000020       1831.03333      -1.45724070    
  -2.40179110     -0.994853973     -0.517000020       1831.03333      -1.45724070    
  -1.73421395     -0.718334973     -0.606999993       1831.03333      -1.45724070    
  -1.73421395     -0.718334973     -0.606999993       1518.36731      -1.47121835    
  -1.26109600     -0.522363007     -0.606999993       1518.36731      -1.47121835    
  -1.13495600     -0.758352995     -0.606999993       1518.36731      -1.47121835    
  -1.56075203      -1.04286098     -0.606999993       1518.36731      -1.47121835    
  -1.73421395     -0.718334973     -0.606999993       1125.94141      -1.45820081    
  -2.40179110     -0.994853973     -0.517000020       1125.94141      -1.45820081    
  -2.54972792     -0.507171988     -0.517000020       1125.94141      -1.45820081    
  -1.84103203     -0.366203994     -0.606999993       1125.94141      -1.45820081    
  -1.84103203     -0.366203994     -0.606999993       935.172119      -1.47151387    
  -1.33877206     -0.266297996     -0.606999993       935.172119      -1.47151387    
  -1.26109600     -0.522363007     -0.606999993       935.172119      -1.47151387    
  -1.73421395     -0.718334973     -0.606999993       935.172119      -1.47151387    
  -1.84103203     -0.366203994     -0.606999993       376.966614      -1.45838344    
  -2.54972792     -0.507171988     -0.517000020       376.966614      -1.45838344    
  -2.59967995       0.00000000     -0.517000020       376.966614      -1.45838344    
  -1.87709999       0.00000000     -0.606999993       376.966614      -1.45838344    
  -1.87709999       0.00000000     -0.606999993       314.428314      -1.47000158    
  -1.36500001       0.00000000     -0.606999993       314.428314      -1.47000158    
  -1.33877206     -0.266297996     -0.606999993       314.428314      -1.47000158    
  -1.84103203     -0.366203994     -0.606999993       314.428314      -1.47000158    
  -1.87709999       0.00000000     -0.606999993       384.729279       1.68072867    
  -2.59967995       0.00000000     -0.517000020       384.729279       1.68072867    
  -2.54972792      0.507171988     -0.517000020       384.729279       1.68072867    
  -1.84103203      0.366203994     -0.606999993       384.729279       1.68072867    
  -1.84103203      0.366203994     -0.606999993       318.572296       1.66509879    
  -1.33877206      0.266297996     -0.606999993       318.572296       1.66509879    
  -1.36500001       0.00000000     -0.606999993       318.572296       1.66509879    
  -1.87709999       0.00000000     -0.606999993       318.572296       1.66509879    
  -1.84103203      0.366203994     -0.606999993       1133.54932       1.68207932    
  -2.54972792      0.507171988     -0.517000020       1133.54932       1.68207932    
  -2.40179110      0.994853973     -0.517000020       1133.54932       1.68207932    
  -1.73421395      0.718334973     -0.606999993       1133.54932       1.68207932    
  -1.73421395      0.718334973     -0.606999993       939.509277       1.66752398    
  -1.26109600      0.522363007     -0.606999993       939.509277       1.66752398    
  -1.33877206      0.266297996     -0.606999993       939.509277       1.66752398    
  -1.84103203      0.366203994     -0.606999993       939.509277       1.66752398    
  -1.73421395      0.718334973     -0.606999993       1840.09766       1.68326378    
  -2.40179110      0.994853973     -0.517000020       1840.09766       1.68326378    
  -2.16155505       1.44430494     -0.517000020       1840.09766       1.68326378    
  -1.56075203       1.04286098     -0.606999993       1840.09766       1.68326378    
  -1.56075203       1.04286098     -0.606999993       1523.73743       1.66855538    
  -1.13495600      0.758352995     -0.606999993       1523.73743       1.66855538    
  -1.26109600      0.522363007     -0.606999993       1523.73743       1.66855538    
  -1.73421395      0.718334973     -0.606999993       1523.73743       1.66855538    
  -1.56075203       1.04286098     -0.606999993       2470.91675       1.68426871    
  -2.16155505       1.44430494     -0.517000020       2470.91675       1.68426871    
  -1.83825099       1.83825099     -0.517000020       2470.91675       1.68426871    
  -1.32730997       1.32730997     -0.606999993       2470.91675       1.68426871    
  -1.32730997       1.32730997     -0.606999993       2047.10474       1.66928256    
 -0.965201020      0.965201020     -0.606999993       2047.10474       1.66928256    
  -1.13495600      0.758352995     -0.606999993       2047.10474       1.66928256    
  -1.56075203       1.04286098     -0.606999993       2047.10474       1.66928256    
  -1.32730997       1.32730997     -0.606999993       3001.66187       1.68466043    
  -1.83825099       1.83825099     -0.517000020       3001.66187       1.68466043    
  -1.44430494       2.16155505     -0.517000020       3001.66187       1.68466043    
  -1.04286098       1.56075203     -0.606999993       3001.66187       1.68466043    
  -1.04286098       1.56075203     -0.606999993       2490.27832       1.66957676    
 -0.758352995       1.13495600     -0.606999993       2490.27832       1.66957676    
 -0.965201020      0.965201020     -0.606999993       2490.27832       1.66957676    
  -1.32730997       1.32730997     -0.606999993       2490.27832       1.66957676    
  -1.04286098       1.56075203     -0.606999993       3420.56909       1.68444133    
  -1.44430494       2.16155505     -0.517000020       3420.56909       1.68444133    
 -0.994853973       2.40179110     -0.517000020       3420.56909       1.68444133    
 -0.718334973       1.73421395     -0.606999993       3420.56909       1.68444133    
 -0.718334973       1.73421395     -0.606999993       2839.80786       1.66945207    
 -0.522363007       1.26109600     -0.606999993       2839.80786       1.66945207    
 -0.758352995       1.13495600     -0.606999993       2839.80786       1.66945207    
  -1.04286098       1.56075203     -0.606999993       2839.80786       1.66945207    
 -0.718334973       1.73421395     -0.606999993       3717.82837       1.68393207    
 -0.994853973       2.40179110     -0.517000020       3717.82837       1.68393207    
 -0.507171988       2.54972792     -0.517000020       3717.82837       1.68393207    
 -0.366203994       1.84103203     -0.606999993       3717.82837       1.68393207    
 -0.366203994       1.84103203     -0.606999993       3084.38745       1.66910100    
 -0.266297996       1.33877206     -0.606999993       3084.38745       1.66910100    
 -0.522363007       1.26109600     -0.606999993       3084.38745       1.66910100    
 -0.718334973       1.73421395     -0.606999993       3084.38745       1.66910100    
 -0.366203994       1.84103203     -0.606999993       3875.79712       1.68352675    
 -0.507171988       2.54972792     -0.517000020       3875.79712       1.68352675    
   0.00000000       2.59967995     -0.517000020       3875.79712       1.68352675    
   0.00000000       1.87709999     -0.606999993       3875.79712       1.68352675    
   0.00000000       1.87709999     -0.606999993       3211.73267       1.66883743    
   0.00000000       1.36500001     -0.606999993       3211.73267       1.66883743    
 -0.266297996       1.33877206     -0.606999993       3211.73267       1.66883743    
 -0.366203994       1.84103203     -0.606999993       3211.73267       1.66883743    
   0.00000000       1.87709999     -0.606999993       3876.04175       1.68354654    
   0.00000000       2.59967995     -0.517000020       3876.04175       1.68354654    
  0.507171988       2.54972792     -0.517000020       3876.04175       1.68354654    
  0.366203994       1.84103203     -0.606999993       3876.04175       1.68354654    
  0.366203994       1.84103203     -0.606999993       3212.33325       1.66886318    
  0.266297996       1.33877206     -0.606999993       3212.33325       1.66886318    
   0.00000000       1.36500001     -0.606999993       3212.33325       1.66886318    
   0.00000000       1.87709999     -0.606999993       3212.33325       1.66886318    
  0.366203994       1.84103203     -0.606999993       3718.63403       1.68398285    
  0.507171988       2.54972792     -0.517000020       3718.63403       1.68398285    
  0.994853973       2.40179110     -0.517000020       3718.63403       1.68398285    
  0.718334973       1.73421395     -0.606999993       3718.63403       1.68398285    
  0.718334973       1.73421395     -0.606999993       3086.18384       1.66918600    
  0.522363007       1.26109600     -0.606999993       3086.18384       1.66918600    
  0.266297996       1.33877206     -0.606999993       3086.18384       1.66918600    
  0.366203994       1.84103203     -0.606999993       3086.18384       1.66918600    
  0.718334973       1.73421395     -0.606999993       3422.01685       1.68452311    
  0.994853973       2.40179110     -0.517000020       3422.01685       1.68452311    
   1.44430494       2.16155505     -0.517000020       3422.01685       1.68452311    
   1.04286098       1.56075203     -0.606999993       3422.01685       1.68452311    
   1.04286098       1.56075203     -0.606999993       2843.04956       1.66958499    
  0.758352995       1.13495600     -0.606999993       2843.04956       1.66958499    
  0.522363007       1.26109600     -0.606999993       2843.04956       1.66958499    
  0.718334973       1.73421395     -0.606999993       2843.04956       1.66958499    
   1.04286098       1.56075203     -0.606999993       3003.86230       1.68476653    
   1.44430494       2.16155505     -0.517000020       3003.86230       1.68476653    
   1.83825099       1.83825099     -0.517000020       3003.86230       1.68476653    
   1.32730997       1.32730997     -0.606999993       3003.86230       1.68476653    
   1.32730997       1.32730997     -0.606999993       2495.01172       1.66977608    
  0.965201020      0.965201020     -0.606999993       2495.01172       1.66977608    
  0.758352995       1.13495600     -0.606999993       2495.01172       1.66977608    
   1.04286098       1.56075203     -0.606999993       2495.01172       1.66977608    
   1.32730997       1.32730997     -0.606999993       2473.84351       1.68442023    
   1.83825099       1.83825099     -0.517000020       2473.84351       1.68442023    
   2.16155505       1.44430494     -0.517000020       2473.84351       1.68442023    
   1.56075203       1.04286098     -0.606999993       2473.84351       1.68442023    
   1.56075203       1.04286098     -0.606999993       2053.42163       1.66957355    
   1.13495600      0.758352995     -0.606999993       2053.42163       1.66957355    
  0.965201020      0.965201020     -0.606999993       2053.42163       1.66957355    
   1.32730997       1.32730997     -0.606999993       2053.42163       1.66957355    
   1.56075203       1.04286098     -0.606999993       1843.67920       1.68351817    
   2.16155505       1.44430494     -0.517000020       1843.67920       1.68351817    
   2.40179110      0.994853973     -0.517000020       1843.67920       1.68351817    
   1.73421395      0.718334973     -0.606999993       1843.67920       1.68351817    
   1.73421395      0.718334973     -0.606999993       1531.55896       1.66903079    
   1.26109600      0.522363007     -0.606999993       1531.55896       1.66903079    
   1.13495600      0.758352995     -0.606999993       1531.55896       1.66903079    
   1.56075203       1.04286098     -0.606999993       1531.55896       1.66903079    
   1.73421395      0.718334973     -0.606999993       1137.61853       1.68256783    
   2.40179110      0.994853973     -0.517000020       1137.61853       1.68256783    
   2.54972792      0.507171988     -0.517000020       1137.61853       1.68256783    
   1.84103203      0.366203994     -0.606999993       1137.61853       1.68256783    
   1.84103203      0.366203994     -0.606999993       948.673584       1.66841114    
   1.33877206      0.266297996     -0.606999993       948.673584       1.66841114    
   1.26109600      0.522363007     -0.606999993       948.673584       1.66841114    
   1.73421395      0.718334973     -0.606999993       948.673584       1.66841114    
   1.84103203      0.366203994     -0.606999993       389.295227       1.68226397    
   2.54972792      0.507171988     -0.517000020       389.295227       1.68226397    
   2.59967995       0.00000000     -0.517000020       389.295227       1.68226397    
   1.87709999       0.00000000     -0.606999993       389.295227       1.68226397    
   1.87709999       0.00000000     -0.606999993       328.912048       1.66790259    
   1.36500001       0.00000000     -0.606999993       328.912048       1.66790259    
   1.33877206      0.266297996     -0.606999993       328.912048       1.66790259    
   1.84103203      0.366203994     -0.606999993       328.912048       1.66790259    
   1.87709999       0.00000000     -0.606999993       371.935883      -1.45990014    
   2.59967995       0.00000000     -0.517000020       371.935883      -1.45990014    
   2.54972792     -0.507171988     -0.517000020       371.935883      -1.45990014    
   1.84103203     -0.366203994     -0.606999993       371.935883      -1.45990014    
   1.84103203     -0.366203994     -0.606999993       303.104736      -1.47285318    
   1.33877206     -0.266297996     -0.606999993       303.104736      -1.47285318    
   1.36500001       0.00000000     -0.606999993       303.104736      -1.47285318    
   1.87709999       0.00000000     -0.606999993       303.104736      -1.47285318    
   1.84103203     -0.366203994     -0.606999993       1120.51672      -1.45863211    
   2.54972792     -0.507171988     -0.517000020       1120.51672      -1.45863211    
   2.40179110     -0.994853973     -0.517000020       1120.51672      -1.45863211    
   1.73421395     -0.718334973     -0.606999993       1120.51672      -1.45863211    
   1.73421395     -0.718334973     -0.606999993       923.170837      -1.47244012    
   1.26109600     -0.522363007     -0.606999993       923.170837      -1.47244012    
   1.33877206     -0.266297996     -0.606999993       923.170837      -1.47244012    
   1.84103203     -0.366203994     -0.606999993       923.170837      -1.47244012    
   1.73421395     -0.718334973     -0.606999993       1825.35999      -1.45744884    
   2.40179110     -0.994853973     -0.517000020       1825.35999      -1.45744884    
   2.16155505      -1.44430494     -0.517000020       1825.35999      -1.45744884    
   1.56075203      -1.04286098     -0.606999993       1825.35999      -1.45744884    
   1.56075203      -1.04286098     -0.606999993       1506.10950      -1.47174907    
   1.13495600     -0.758352995     -0.606999993       1506.10950      -1.47174907    
   1.26109600     -0.522363007     -0.606999993       1506.10950      -1.47174907    