 VARIABLES="X" "Y" "Z" "abs(p) (Pa)" "angle(p) (rad)"
ZONE N=   2709,E =    2358, F=FEPOINT, ET=QUADRILATERAL
   0.00000000      -5.48999977     -0.157000005       34.9618530      -1.38046360    
   0.00000000      -4.76741982     -0.246999994       34.9618530      -1.38046360    
  0.930077016      -4.67581606     -0.246999994       34.9618530      -1.38046360    
   1.07104599      -5.38451099     -0.157000005       34.9618530      -1.38046360    
  -1.07104599      -5.38451099     -0.157000005       34.2298164       1.76115203    
 -0.930077016      -4.67581606     -0.246999994       34.2298164       1.76115203    
   0.00000000      -4.76741982     -0.246999994       34.2298164       1.76115203    
   0.00000000      -5.48999977     -0.157000005       34.2298164       1.76115203    
  -2.10093188      -5.07209921     -0.157000005       101.551689       1.76167357    
  -1.82441294      -4.40452194     -0.246999994       101.551689       1.76167357    
 -0.930077016      -4.67581606     -0.246999994       101.551689       1.76167357    
  -1.07104599      -5.38451099     -0.157000005       101.551689       1.76167357    
  -3.05008101      -4.56476784     -0.157000005       164.027466       1.76314235    
  -2.64863706      -3.96396494     -0.246999994       164.027466       1.76314235    
  -1.82441294      -4.40452194     -0.246999994       164.027466       1.76314235    
  -2.10093188      -5.07209921     -0.157000005       164.027466       1.76314235    
  -3.88201594      -3.88201594     -0.157000005       220.169739       1.76360607    
  -3.37107491      -3.37107491     -0.246999994       220.169739       1.76360607    
  -2.64863706      -3.96396494     -0.246999994       220.169739       1.76360607    
  -3.05008101      -4.56476784     -0.157000005       220.169739       1.76360607    
  -4.56476784      -3.05008101     -0.157000005       268.185028       1.76327658    
  -3.96396494      -2.64863706     -0.246999994       268.185028       1.76327658    
  -3.37107491      -3.37107491     -0.246999994       268.185028       1.76327658    
  -3.88201594      -3.88201594     -0.157000005       268.185028       1.76327658    
  -5.07209921      -2.10093188     -0.157000005       306.812653       1.76329935    
  -4.40452194      -1.82441294     -0.246999994       306.812653       1.76329935    
  -3.96396494      -2.64863706     -0.246999994       306.812653       1.76329935    
  -4.56476784      -3.05008101     -0.157000005       306.812653       1.76329935    
  -5.38451099      -1.07104599     -0.157000005       333.703491       1.76297820    
  -4.67581606     -0.930077016     -0.246999994       333.703491       1.76297820    
  -4.40452194      -1.82441294     -0.246999994       333.703491       1.76297820    
  -5.07209921      -2.10093188     -0.157000005       333.703491       1.76297820    
  -5.48999977       0.00000000     -0.157000005       347.003906       1.76261067    
  -4.76741982       0.00000000     -0.246999994       347.003906       1.76261067    
  -4.67581606     -0.930077016     -0.246999994       347.003906       1.76261067    
  -5.38451099      -1.07104599     -0.157000005       347.003906       1.76261067    
  -5.38451099       1.07104599     -0.157000005       347.334778       1.76241553    
  -4.67581606      0.930077016     -0.246999994       347.334778       1.76241553    
  -4.76741982       0.00000000     -0.246999994       347.334778       1.76241553    
  -5.48999977       0.00000000     -0.157000005       347.334778       1.76241553    
  -5.07209921       2.10093188     -0.157000005       334.494446       1.76219273    
  -4.40452194       1.82441294     -0.246999994       334.494446       1.76219273    
  -4.67581606      0.930077016     -0.246999994       334.494446       1.76219273    
  -5.38451099       1.07104599     -0.157000005       334.494446       1.76219273    
  -4.56476784       3.05008101     -0.157000005       308.097992       1.76235557    
  -3.96396494       2.64863706     -0.246999994       308.097992       1.76235557    
  -4.40452194       1.82441294     -0.246999994       308.097992       1.76235557    
  -5.07209921       2.10093188     -0.157000005       308.097992       1.76235557    
  -3.88201594       3.88201594     -0.157000005       269.906982       1.76284945    
  -3.37107491       3.37107491     -0.246999994       269.906982       1.76284945    
  -3.96396494       2.64863706     -0.246999994       269.906982       1.76284945    
  -4.56476784       3.05008101     -0.157000005       269.906982       1.76284945    
  -3.05008101       4.56476784     -0.157000005       221.352020       1.76270282    
  -2.64863706       3.96396494     -0.246999994       221.352020       1.76270282    
  -3.37107491       3.37107491     -0.246999994       221.352020       1.76270282    
  -3.88201594       3.88201594     -0.157000005       221.352020       1.76270282    
  -2.10093188       5.07209921     -0.157000005       164.990036       1.76255488    
  -1.82441294       4.40452194     -0.246999994       164.990036       1.76255488    
  -2.64863706       3.96396494     -0.246999994       164.990036       1.76255488    
  -3.05008101       4.56476784     -0.157000005       164.990036       1.76255488    
  -1.07104599       5.38451099     -0.157000005       102.322914       1.76121414    
 -0.930077016       4.67581606     -0.246999994       102.322914       1.76121414    
  -1.82441294       4.40452194     -0.246999994       102.322914       1.76121414    
  -2.10093188       5.07209921     -0.157000005       102.322914       1.76121414    
   0.00000000       5.48999977     -0.157000005       34.9716606       1.76000130    
   0.00000000       4.76741982     -0.246999994       34.9716606       1.76000130    
 -0.930077016       4.67581606     -0.246999994       34.9716606       1.76000130    
  -1.07104599       5.38451099     -0.157000005       34.9716606       1.76000130    
   1.07104599       5.38451099     -0.157000005       34.2277756      -1.37984002    
  0.930077016       4.67581606     -0.246999994       34.2277756      -1.37984002    
   0.00000000       4.76741982     -0.246999994       34.2277756      -1.37984002    
   0.00000000       5.48999977     -0.157000005       34.2277756      -1.37984002    
   2.10093188       5.07209921     -0.157000005       101.670578      -1.37942863    
   1.82441294       4.40452194     -0.246999994       101.670578      -1.37942863    
  0.930077016       4.67581606     -0.246999994       101.670578      -1.37942863    
   1.07104599       5.38451099     -0.157000005       101.670578      -1.37942863    
   3.05008101       4.56476784     -0.157000005       164.323074      -1.37861311    
   2.64863706       3.96396494     -0.246999994       164.323074      -1.37861311    
   1.82441294       4.40452194     -0.246999994       164.323074      -1.37861311    
   2.10093188       5.07209921     -0.157000005       164.323074      -1.37861311    
   3.88201594       3.88201594     -0.157000005       220.741318      -1.37869895    
   3.37107491       3.37107491     -0.246999994       220.741318      -1.37869895    
   2.64863706       3.96396494     -0.246999994       220.741318      -1.37869895    
   3.05008101       4.56476784     -0.157000005       220.741318      -1.37869895    
   4.56476784       3.05008101     -0.157000005       269.270874      -1.37877631    
   3.96396494       2.64863706     -0.246999994       269.270874      -1.37877631    
   3.37107491       3.37107491     -0.246999994       269.270874      -1.37877631    
   3.88201594       3.88201594     -0.157000005       269.270874      -1.37877631    
   5.07209921       2.10093188     -0.157000005       307.734467      -1.37909281    
   4.40452194       1.82441294     -0.246999994       307.734467      -1.37909281    
   3.96396494       2.64863706     -0.246999994       307.734467      -1.37909281    
   4.56476784       3.05008101     -0.157000005       307.734467      -1.37909281    
   5.38451099       1.07104599     -0.157000005       334.549805      -1.37891495    
   4.67581606      0.930077016     -0.246999994       334.549805      -1.37891495    
   4.40452194       1.82441294     -0.246999994       334.549805      -1.37891495    
   5.07209921       2.10093188     -0.157000005       334.549805      -1.37891495    
   5.48999977       0.00000000     -0.157000005       347.605682      -1.37865257    
   4.76741982       0.00000000     -0.246999994       347.605682      -1.37865257    
   4.67581606      0.930077016     -0.246999994       347.605682      -1.37865257    
   5.38451099       1.07104599     -0.157000005       347.605682      -1.37865257    
   5.38451099      -1.07104599     -0.157000005       347.399261      -1.37851250    
   4.67581606     -0.930077016     -0.246999994       347.399261      -1.37851250    
   4.76741982       0.00000000     -0.246999994       347.399261      -1.37851250    
   5.48999977       0.00000000     -0.157000005       347.399261      -1.37851250    
   5.07209921      -2.10093188     -0.157000005       334.023499      -1.37846732    
   4.40452194      -1.82441294     -0.246999994       334.023499      -1.37846732    
   4.67581606     -0.930077016     -0.246999994       334.023499      -1.37846732    
   5.38451099      -1.07104599     -0.157000005       334.023499      -1.37846732    
   4.56476784      -3.05008101     -0.157000005       307.279877      -1.37814176    
   3.96396494      -2.64863706     -0.246999994       307.279877      -1.37814176    
   4.40452194      -1.82441294     -0.246999994       307.279877      -1.37814176    
   5.07209921      -2.10093188     -0.157000005       307.279877      -1.37814176    
   3.88201594      -3.88201594     -0.157000005       268.929779      -1.37789750    
   3.37107491      -3.37107491     -0.246999994       268.929779      -1.37789750    
   3.96396494      -2.64863706     -0.246999994       268.929779      -1.37789750    
   4.56476784      -3.05008101     -0.157000005       268.929779      -1.37789750    
   3.05008101      -4.56476784     -0.157000005       220.641769      -1.37817013    
   2.64863706      -3.96396494     -0.246999994       220.641769      -1.37817013    
   3.37107491      -3.37107491     -0.246999994       220.641769      -1.37817013    
   3.88201594      -3.88201594     -0.157000005       220.641769      -1.37817013    
   2.10093188      -5.07209921     -0.157000005       164.671738      -1.37846136    
   1.82441294      -4.40452194     -0.246999994       164.671738      -1.37846136    
   2.64863706      -3.96396494     -0.246999994       164.671738      -1.37846136    
   3.05008101      -4.56476784     -0.157000005       164.671738      -1.37846136    
   1.07104599      -5.38451099     -0.157000005       102.302132      -1.37960136    
  0.930077016      -4.67581606     -0.246999994       102.302132      -1.37960136    
   1.82441294      -4.40452194     -0.246999994       102.302132      -1.37960136    
   2.10093188      -5.07209921     -0.157000005       102.302132      -1.37960136    
   0.00000000      -1.87709999     -0.606999993       79.2434998      -1.54878509    
   0.00000000      -1.36500001     -0.606999993       79.2434998      -1.54878509    
  0.266297996      -1.33877206     -0.606999993       79.2434998      -1.54878509    
  0.366203994      -1.84103203     -0.606999993       79.2434998      -1.54878509    
   0.00000000      -1.87709999     -0.606999993       53.3666039       1.62288165    
   0.00000000      -2.59967995     -0.517000020       53.3666039       1.62288165    
 -0.507171988      -2.54972792     -0.517000020       53.3666039       1.62288165    
 -0.366203994      -1.84103203     -0.606999993       53.3666039       1.62288165    
 -0.366203994      -1.84103203     -0.606999993       68.8852844       1.59292638    
 -0.266297996      -1.33877206     -0.606999993       68.8852844       1.59292638    
   0.00000000      -1.36500001     -0.606999993       68.8852844       1.59292638    
   0.00000000      -1.87709999     -0.606999993       68.8852844       1.59292638    
 -0.366203994      -1.84103203     -0.606999993       161.334671       1.62206352    
 -0.507171988      -2.54972792     -0.517000020       161.334671       1.62206352    
 -0.994853973      -2.40179110     -0.517000020       161.334671       1.62206352    
 -0.718334973      -1.73421395     -0.606999993       161.334671       1.62206352    
 -0.718334973      -1.73421395     -0.606999993       213.005829       1.59281826    
 -0.522363007      -1.26109600     -0.606999993       213.005829       1.59281826    
 -0.266297996      -1.33877206     -0.606999993       213.005829       1.59281826    
 -0.366203994      -1.84103203     -0.606999993       213.005829       1.59281826    
 -0.718334973      -1.73421395     -0.606999993       257.224579       1.62234652    
 -0.994853973      -2.40179110     -0.517000020       257.224579       1.62234652    
  -1.44430494      -2.16155505     -0.517000020       257.224579       1.62234652    
  -1.04286098      -1.56075203     -0.606999993       257.224579       1.62234652    
  -1.04286098      -1.56075203     -0.606999993       346.039825       1.59271312    
 -0.758352995      -1.13495600     -0.606999993       346.039825       1.59271312    
 -0.522363007      -1.26109600     -0.606999993       346.039825       1.59271312    
 -0.718334973      -1.73421395     -0.606999993       346.039825       1.59271312    
  -1.04286098      -1.56075203     -0.606999993       340.995300       1.62258852    
  -1.44430494      -2.16155505     -0.517000020       340.995300       1.62258852    
  -1.83825099      -1.83825099     -0.517000020       340.995300       1.62258852    
  -1.32730997      -1.32730997     -0.606999993       340.995300       1.62258852    
  -1.32730997      -1.32730997     -0.606999993       464.249084       1.59262562    
 -0.965201020     -0.965201020     -0.606999993       464.249084       1.59262562    
 -0.758352995      -1.13495600     -0.606999993       464.249084       1.59262562    
  -1.04286098      -1.56075203     -0.606999993       464.249084       1.59262562    
  -1.32730997      -1.32730997     -0.606999993       414.111206       1.62259674    
  -1.83825099      -1.83825099     -0.517000020       414.111206       1.62259674    
  -2.16155505      -1.44430494     -0.517000020       414.111206       1.62259674    
  -1.56075203      -1.04286098     -0.606999993       414.111206       1.62259674    
  -1.56075203      -1.04286098     -0.606999993       565.487244       1.59257400    
  -1.13495600     -0.758352995     -0.606999993       565.487244       1.59257400    
 -0.965201020     -0.965201020     -0.606999993       565.487244       1.59257400    
  -1.32730997      -1.32730997     -0.606999993       565.487244       1.59257400    
  -1.56075203      -1.04286098     -0.606999993       475.457001       1.62241924    
  -2.16155505      -1.44430494     -0.517000020       475.457001       1.62241924    
  -2.40179110     -0.994853973     -0.517000020       475.457001       1.62241924    
  -1.73421395     -0.718334973     -0.606999993       475.457001       1.62241924    
  -1.73421395     -0.718334973     -0.606999993       647.315125       1.59255266    
  -1.26109600     -0.522363007     -0.606999993       647.315125       1.59255266    
  -1.13495600     -0.758352995     -0.606999993       647.315125       1.59255266    
  -1.56075203      -1.04286098     -0.606999993       647.315125       1.59255266    
  -1.73421395     -0.718334973     -0.606999993       520.238525       1.62222540    
  -2.40179110     -0.994853973     -0.517000020       520.238525       1.62222540    
  -2.54972792     -0.507171988     -0.517000020       520.238525       1.62222540    
  -1.84103203     -0.366203994     -0.606999993       520.238525       1.62222540    
  -1.84103203     -0.366203994     -0.606999993       705.672913       1.59255409    
  -1.33877206     -0.266297996     -0.606999993       705.672913       1.59255409    
  -1.26109600     -0.522363007     -0.606999993       705.672913       1.59255409    
  -1.73421395     -0.718334973     -0.606999993       705.672913       1.59255409    
  -1.84103203     -0.366203994     -0.606999993       544.184570       1.62209296    
  -2.54972792     -0.507171988     -0.517000020       544.184570       1.62209296    
  -2.59967995       0.00000000     -0.517000020       544.184570       1.62209296    
  -1.87709999       0.00000000     -0.606999993       544.184570       1.62209296    
  -1.87709999       0.00000000     -0.606999993       736.692749       1.59255576    
  -1.36500001       0.00000000     -0.606999993       736.692749       1.59255576    
  -1.33877206     -0.266297996     -0.606999993       736.692749       1.59255576    
  -1.84103203     -0.366203994     -0.606999993       736.692749       1.59255576    
  -1.87709999       0.00000000     -0.606999993       545.179749       1.62202954    
  -2.59967995       0.00000000     -0.517000020       545.179749       1.62202954    
  -2.54972792      0.507171988     -0.517000020       545.179749       1.62202954    
  -1.84103203      0.366203994     -0.606999993       545.179749       1.62202954    
  -1.84103203      0.366203994     -0.606999993       738.001770       1.59253633    
  -1.33877206      0.266297996     -0.606999993       738.001770       1.59253633    
  -1.36500001       0.00000000     -0.606999993       738.001770       1.59253633    
  -1.87709999       0.00000000     -0.606999993       738.001770       1.59253633    
  -1.84103203      0.366203994     -0.606999993       523.044678       1.62203228    
  -2.54972792      0.507171988     -0.517000020       523.044678       1.62203228    
  -2.40179110      0.994853973     -0.517000020       523.044678       1.62203228    
  -1.73421395      0.718334973     -0.606999993       523.044678       1.62203228    
  -1.73421395      0.718334973     -0.606999993       709.397827       1.59249115    
  -1.26109600      0.522363007     -0.606999993       709.397827       1.59249115    
  -1.33877206      0.266297996     -0.606999993       709.397827       1.59249115    
  -1.84103203      0.366203994     -0.606999993       709.397827       1.59249115    
  -1.73421395      0.718334973     -0.606999993       479.422974       1.62209618    
  -2.40179110      0.994853973     -0.517000020       479.422974       1.62209618    
  -2.16155505       1.44430494     -0.517000020       479.422974       1.62209618    
  -1.56075203       1.04286098     -0.606999993       479.422974       1.62209618    
  -1.56075203       1.04286098     -0.606999993       652.973511       1.59243369    
  -1.13495600      0.758352995     -0.606999993       652.973511       1.59243369    
  -1.26109600      0.522363007     -0.606999993       652.973511       1.59243369    
  -1.73421395      0.718334973     -0.606999993       652.973511       1.59243369    
  -1.56075203       1.04286098     -0.606999993       418.348358       1.62215149    
  -2.16155505       1.44430494     -0.517000020       418.348358       1.62215149    
  -1.83825099       1.83825099     -0.517000020       418.348358       1.62215149    
  -1.32730997       1.32730997     -0.606999993       418.348358       1.62215149    
  -1.32730997       1.32730997     -0.606999993       572.439270       1.59238756    
 -0.965201020      0.965201020     -0.606999993       572.439270       1.59238756    
  -1.13495600      0.758352995     -0.606999993       572.439270       1.59238756    
  -1.56075203       1.04286098     -0.606999993       572.439270       1.59238756    
  -1.32730997       1.32730997     -0.606999993       345.029633       1.62201166    
  -1.83825099       1.83825099     -0.517000020       345.029633       1.62201166    
  -1.44430494       2.16155505     -0.517000020       345.029633       1.62201166    
  -1.04286098       1.56075203     -0.606999993       345.029633       1.62201166    
  -1.04286098       1.56075203     -0.606999993       471.998260       1.59236813    
 -0.758352995       1.13495600     -0.606999993       471.998260       1.59236813    
 -0.965201020      0.965201020     -0.606999993       471.998260       1.59236813    
  -1.32730997       1.32730997     -0.606999993       471.998260       1.59236813    
  -1.04286098       1.56075203     -0.606999993       261.331421       1.62154973    
  -1.44430494       2.16155505     -0.517000020       261.331421       1.62154973    
 -0.994853973       2.40179110     -0.517000020       261.331421       1.62154973    
 -0.718334973       1.73421395     -0.606999993       261.331421       1.62154973    
 -0.718334973       1.73421395     -0.606999993       354.503723       1.59236681    
 -0.522363007       1.26109600     -0.606999993       354.503723       1.59236681    
 -0.758352995       1.13495600     -0.606999993       354.503723       1.59236681    
  -1.04286098       1.56075203     -0.606999993       354.503723       1.59236681    
 -0.718334973       1.73421395     -0.606999993       166.091034       1.62072861    
 -0.994853973       2.40179110     -0.517000020       166.091034       1.62072861    
 -0.507171988       2.54972792     -0.517000020       166.091034       1.62072861    
 -0.366203994       1.84103203     -0.606999993       166.091034       1.62072861    
 -0.366203994       1.84103203     -0.606999993       222.366226       1.59230256    
 -0.266297996       1.33877206     -0.606999993       222.366226       1.59230256    
 -0.522363007       1.26109600     -0.606999993       222.366226       1.59230256    
 -0.718334973       1.73421395     -0.606999993       222.366226       1.59230256    
 -0.366203994       1.84103203     -0.606999993       59.1433983       1.61877632    
 -0.507171988       2.54972792     -0.517000020       59.1433983       1.61877632    
   0.00000000       2.59967995     -0.517000020       59.1433983       1.61877632    
   0.00000000       1.87709999     -0.606999993       59.1433983       1.61877632    
   0.00000000       1.87709999     -0.606999993       79.1642075       1.59171903    
   0.00000000       1.36500001     -0.606999993       79.1642075       1.59171903    
 -0.266297996       1.33877206     -0.606999993       79.1642075       1.59171903    
 -0.366203994       1.84103203     -0.606999993       79.1642075       1.59171903    
   0.00000000       1.87709999     -0.606999993       52.7695274      -1.51754510    
   0.00000000       2.59967995     -0.517000020       52.7695274      -1.51754510    
  0.507171988       2.54972792     -0.517000020       52.7695274      -1.51754510    
  0.366203994       1.84103203     -0.606999993       52.7695274      -1.51754510    
  0.366203994       1.84103203     -0.606999993       68.3118286      -1.54777098    
  0.266297996       1.33877206     -0.606999993       68.3118286      -1.54777098    
   0.00000000       1.36500001     -0.606999993       68.3118286      -1.54777098    
   0.00000000       1.87709999     -0.606999993       68.3118286      -1.54777098    
  0.366203994       1.84103203     -0.606999993       159.999283      -1.51912594    
  0.507171988       2.54972792     -0.517000020       159.999283      -1.51912594    
  0.994853973       2.40179110     -0.517000020       159.999283      -1.51912594    
  0.718334973       1.73421395     -0.606999993       159.999283      -1.51912594    
  0.718334973       1.73421395     -0.606999993       211.961319      -1.54860783    
  0.522363007       1.26109600     -0.606999993       211.961319      -1.54860783    
  0.266297996       1.33877206     -0.606999993       211.961319      -1.54860783    
  0.366203994       1.84103203     -0.606999993       211.961319      -1.54860783    
  0.718334973       1.73421395     -0.606999993       255.744263      -1.51902139    
  0.994853973       2.40179110     -0.517000020       255.744263      -1.51902139    
   1.44430494       2.16155505     -0.517000020       255.744263      -1.51902139    
   1.04286098       1.56075203     -0.606999993       255.744263      -1.51902139    
   1.04286098       1.56075203     -0.606999993       344.987976      -1.54884076    
  0.758352995       1.13495600     -0.606999993       344.987976      -1.54884076    
  0.522363007       1.26109600     -0.606999993       344.987976      -1.54884076    
  0.718334973       1.73421395     -0.606999993       344.987976      -1.54884076    
   1.04286098       1.56075203     -0.606999993       340.147614      -1.51889455    
   1.44430494       2.16155505     -0.517000020       340.147614      -1.51889455    
   1.83825099       1.83825099     -0.517000020       340.147614      -1.51889455    
   1.32730997       1.32730997     -0.606999993       340.147614      -1.51889455    
   1.32730997       1.32730997     -0.606999993       463.736389      -1.54897141    
  0.965201020      0.965201020     -0.606999993       463.736389      -1.54897141    
  0.758352995       1.13495600     -0.606999993       463.736389      -1.54897141    
   1.04286098       1.56075203     -0.606999993       463.736389      -1.54897141    
   1.32730997       1.32730997     -0.606999993       414.342651      -1.51896226    
   1.83825099       1.83825099     -0.517000020       414.342651      -1.51896226    
   2.16155505       1.44430494     -0.517000020       414.342651      -1.51896226    
   1.56075203       1.04286098     -0.606999993       414.342651      -1.51896226    
   1.56075203       1.04286098     -0.606999993       565.733215      -1.54902720    
   1.13495600      0.758352995     -0.606999993       565.733215      -1.54902720    
  0.965201020      0.965201020     -0.606999993       565.733215      -1.54902720    
   1.32730997       1.32730997     -0.606999993       565.733215      -1.54902720    
   1.56075203       1.04286098     -0.606999993       476.411743      -1.51915789    
   2.16155505       1.44430494     -0.517000020       476.411743      -1.51915789    
   2.40179110      0.994853973     -0.517000020       476.411743      -1.51915789    
   1.73421395      0.718334973     -0.606999993       476.411743      -1.51915789    
   1.73421395      0.718334973     -0.606999993       647.893494      -1.54901695    
   1.26109600      0.522363007     -0.606999993       647.893494      -1.54901695    
   1.13495600      0.758352995     -0.606999993       647.893494      -1.54901695    
   1.56075203       1.04286098     -0.606999993       647.893494      -1.54901695    
   1.73421395      0.718334973     -0.606999993       521.118469      -1.51932478    
   2.40179110      0.994853973     -0.517000020       521.118469      -1.51932478    
   2.54972792      0.507171988     -0.517000020       521.118469      -1.51932478    
   1.84103203      0.366203994     -0.606999993       521.118469      -1.51932478    
   1.84103203      0.366203994     -0.606999993       706.119934      -1.54898512    
   1.33877206      0.266297996     -0.606999993       706.119934      -1.54898512    
   1.26109600      0.522363007     -0.606999993       706.119934      -1.54898512    
   1.73421395      0.718334973     -0.606999993       706.119934      -1.54898512    
   1.84103203      0.366203994     -0.606999993       544.404175      -1.51941371    
   2.54972792      0.507171988     -0.517000020       544.404175      -1.51941371    
   2.59967995       0.00000000     -0.517000020       544.404175      -1.51941371    
   1.87709999       0.00000000     -0.606999993       544.404175      -1.51941371    
   1.87709999       0.00000000     -0.606999993       736.680725      -1.54896426    
   1.36500001       0.00000000     -0.606999993       736.680725      -1.54896426    
   1.33877206      0.266297996     -0.606999993       736.680725      -1.54896426    
   1.84103203      0.366203994     -0.606999993       736.680725      -1.54896426    
   1.87709999       0.00000000     -0.606999993       544.590088      -1.51943254    
   2.59967995       0.00000000     -0.517000020       544.590088      -1.51943254    
   2.54972792     -0.507171988     -0.517000020       544.590088      -1.51943254    
   1.84103203     -0.366203994     -0.606999993       544.590088      -1.51943254    
   1.84103203     -0.366203994     -0.606999993       737.387695      -1.54896617    
   1.33877206     -0.266297996     -0.606999993       737.387695      -1.54896617    
   1.36500001       0.00000000     -0.606999993       737.387695      -1.54896617    
   1.87709999       0.00000000     -0.606999993       737.387695      -1.54896617    
   1.84103203     -0.366203994     -0.606999993       521.815674      -1.51938474    
   2.54972792     -0.507171988     -0.517000020       521.815674      -1.51938474    
   2.40179110     -0.994853973     -0.517000020       521.815674      -1.51938474    
   1.73421395     -0.718334973     -0.606999993       521.815674      -1.51938474    
   1.73421395     -0.718334973     -0.606999993       708.394165      -1.54898882    
   1.26109600     -0.522363007     -0.606999993       708.394165      -1.54898882    
   1.33877206     -0.266297996     -0.606999993       708.394165      -1.54898882    
   1.84103203     -0.366203994     -0.606999993       708.394165      -1.54898882    
   1.73421395     -0.718334973     -0.606999993       478.142334      -1.51928329    
   2.40179110     -0.994853973     -0.517000020       478.142334      -1.51928329    
   2.16155505      -1.44430494     -0.517000020       478.142334      -1.51928329    
   1.56075203      -1.04286098     -0.606999993       478.142334      -1.51928329    
   1.56075203      -1.04286098     -0.606999993       652.027771      -1.54901266    
   1.13495600     -0.758352995     -0.606999993       652.027771      -1.54901266    
   1.26109600     -0.522363007     -0.606999993       652.027771      -1.54901266    