 VARIABLES="X" "Y" "Z" "abs(p) (Pa)" "angle(p) (rad)"
ZONE N=   2709,E =    2358, F=FEPOINT, ET=QUADRILATERAL
   0.00000000      -5.48999977     -0.157000005       5256.41016      -2.70105743    
   0.00000000      -4.76741982     -0.246999994       5256.41016      -2.70105743    
  0.930077016      -4.67581606     -0.246999994       5256.41016      -2.70105743    
   1.07104599      -5.38451099     -0.157000005       5256.41016      -2.70105743    
  -1.07104599      -5.38451099     -0.157000005       4947.47656       2.90689898    
 -0.930077016      -4.67581606     -0.246999994       4947.47656       2.90689898    
   0.00000000      -4.76741982     -0.246999994       4947.47656       2.90689898    
   0.00000000      -5.48999977     -0.157000005       4947.47656       2.90689898    
  -2.10093188      -5.07209921     -0.157000005       4635.19531       2.24127483    
  -1.82441294      -4.40452194     -0.246999994       4635.19531       2.24127483    
 -0.930077016      -4.67581606     -0.246999994       4635.19531       2.24127483    
  -1.07104599      -5.38451099     -0.157000005       4635.19531       2.24127483    
  -3.05008101      -4.56476784     -0.157000005       4150.84766       1.61350739    
  -2.64863706      -3.96396494     -0.246999994       4150.84766       1.61350739    
  -1.82441294      -4.40452194     -0.246999994       4150.84766       1.61350739    
  -2.10093188      -5.07209921     -0.157000005       4150.84766       1.61350739    
  -3.88201594      -3.88201594     -0.157000005       3891.38501       1.01981509    
  -3.37107491      -3.37107491     -0.246999994       3891.38501       1.01981509    
  -2.64863706      -3.96396494     -0.246999994       3891.38501       1.01981509    
  -3.05008101      -4.56476784     -0.157000005       3891.38501       1.01981509    
  -4.56476784      -3.05008101     -0.157000005       3825.85181      0.507145286    
  -3.96396494      -2.64863706     -0.246999994       3825.85181      0.507145286    
  -3.37107491      -3.37107491     -0.246999994       3825.85181      0.507145286    
  -3.88201594      -3.88201594     -0.157000005       3825.85181      0.507145286    
  -5.07209921      -2.10093188     -0.157000005       3514.86255      0.147534937    
  -4.40452194      -1.82441294     -0.246999994       3514.86255      0.147534937    
  -3.96396494      -2.64863706     -0.246999994       3514.86255      0.147534937    
  -4.56476784      -3.05008101     -0.157000005       3514.86255      0.147534937    
  -5.38451099      -1.07104599     -0.157000005       3307.92505     -0.133472532    
  -4.67581606     -0.930077016     -0.246999994       3307.92505     -0.133472532    
  -4.40452194      -1.82441294     -0.246999994       3307.92505     -0.133472532    
  -5.07209921      -2.10093188     -0.157000005       3307.92505     -0.133472532    
  -5.48999977       0.00000000     -0.157000005       3314.20410     -0.319547832    
  -4.76741982       0.00000000     -0.246999994       3314.20410     -0.319547832    
  -4.67581606     -0.930077016     -0.246999994       3314.20410     -0.319547832    
  -5.38451099      -1.07104599     -0.157000005       3314.20410     -0.319547832    
  -5.38451099       1.07104599     -0.157000005       3331.89185     -0.327169120    
  -4.67581606      0.930077016     -0.246999994       3331.89185     -0.327169120    
  -4.76741982       0.00000000     -0.246999994       3331.89185     -0.327169120    
  -5.48999977       0.00000000     -0.157000005       3331.89185     -0.327169120    
  -5.07209921       2.10093188     -0.157000005       3412.33984     -0.179090604    
  -4.40452194       1.82441294     -0.246999994       3412.33984     -0.179090604    
  -4.67581606      0.930077016     -0.246999994       3412.33984     -0.179090604    
  -5.38451099       1.07104599     -0.157000005       3412.33984     -0.179090604    
  -4.56476784       3.05008101     -0.157000005       3552.58911      0.105288893    
  -3.96396494       2.64863706     -0.246999994       3552.58911      0.105288893    
  -4.40452194       1.82441294     -0.246999994       3552.58911      0.105288893    
  -5.07209921       2.10093188     -0.157000005       3552.58911      0.105288893    
  -3.88201594       3.88201594     -0.157000005       3641.22974      0.525879800    
  -3.37107491       3.37107491     -0.246999994       3641.22974      0.525879800    
  -3.96396494       2.64863706     -0.246999994       3641.22974      0.525879800    
  -4.56476784       3.05008101     -0.157000005       3641.22974      0.525879800    
  -3.05008101       4.56476784     -0.157000005       3939.65942       1.01033902    
  -2.64863706       3.96396494     -0.246999994       3939.65942       1.01033902    
  -3.37107491       3.37107491     -0.246999994       3939.65942       1.01033902    
  -3.88201594       3.88201594     -0.157000005       3939.65942       1.01033902    
  -2.10093188       5.07209921     -0.157000005       4097.01758       1.62021315    
  -1.82441294       4.40452194     -0.246999994       4097.01758       1.62021315    
  -2.64863706       3.96396494     -0.246999994       4097.01758       1.62021315    
  -3.05008101       4.56476784     -0.157000005       4097.01758       1.62021315    
  -1.07104599       5.38451099     -0.157000005       4590.35889       2.25724101    
 -0.930077016       4.67581606     -0.246999994       4590.35889       2.25724101    
  -1.82441294       4.40452194     -0.246999994       4590.35889       2.25724101    
  -2.10093188       5.07209921     -0.157000005       4590.35889       2.25724101    
   0.00000000       5.48999977     -0.157000005       4899.16309       2.91908407    
   0.00000000       4.76741982     -0.246999994       4899.16309       2.91908407    
 -0.930077016       4.67581606     -0.246999994       4899.16309       2.91908407    
  -1.07104599       5.38451099     -0.157000005       4899.16309       2.91908407    
   1.07104599       5.38451099     -0.157000005       5303.74219      -2.69061899    
  0.930077016       4.67581606     -0.246999994       5303.74219      -2.69061899    
   0.00000000       4.76741982     -0.246999994       5303.74219      -2.69061899    
   0.00000000       5.48999977     -0.157000005       5303.74219      -2.69061899    
   2.10093188       5.07209921     -0.157000005       5637.61768      -1.99691010    
   1.82441294       4.40452194     -0.246999994       5637.61768      -1.99691010    
  0.930077016       4.67581606     -0.246999994       5637.61768      -1.99691010    
   1.07104599       5.38451099     -0.157000005       5637.61768      -1.99691010    
   3.05008101       4.56476784     -0.157000005       6379.19775      -1.34616494    
   2.64863706       3.96396494     -0.246999994       6379.19775      -1.34616494    
   1.82441294       4.40452194     -0.246999994       6379.19775      -1.34616494    
   2.10093188       5.07209921     -0.157000005       6379.19775      -1.34616494    
   3.88201594       3.88201594     -0.157000005       7181.38086     -0.782747388    
   3.37107491       3.37107491     -0.246999994       7181.38086     -0.782747388    
   2.64863706       3.96396494     -0.246999994       7181.38086     -0.782747388    
   3.05008101       4.56476784     -0.157000005       7181.38086     -0.782747388    
   4.56476784       3.05008101     -0.157000005       7657.76367     -0.279881418    
   3.96396494       2.64863706     -0.246999994       7657.76367     -0.279881418    
   3.37107491       3.37107491     -0.246999994       7657.76367     -0.279881418    
   3.88201594       3.88201594     -0.157000005       7657.76367     -0.279881418    
   5.07209921       2.10093188     -0.157000005       8140.41357      0.199278444    
   4.40452194       1.82441294     -0.246999994       8140.41357      0.199278444    
   3.96396494       2.64863706     -0.246999994       8140.41357      0.199278444    
   4.56476784       3.05008101     -0.157000005       8140.41357      0.199278444    
   5.38451099       1.07104599     -0.157000005       8974.39941      0.580760658    
   4.67581606      0.930077016     -0.246999994       8974.39941      0.580760658    
   4.40452194       1.82441294     -0.246999994       8974.39941      0.580760658    
   5.07209921       2.10093188     -0.157000005       8974.39941      0.580760658    
   5.48999977       0.00000000     -0.157000005       9758.22949      0.786271691    
   4.76741982       0.00000000     -0.246999994       9758.22949      0.786271691    
   4.67581606      0.930077016     -0.246999994       9758.22949      0.786271691    
   5.38451099       1.07104599     -0.157000005       9758.22949      0.786271691    
   5.38451099      -1.07104599     -0.157000005       9778.18262      0.788562775    
   4.67581606     -0.930077016     -0.246999994       9778.18262      0.788562775    
   4.76741982       0.00000000     -0.246999994       9778.18262      0.788562775    
   5.48999977       0.00000000     -0.157000005       9778.18262      0.788562775    
   5.07209921      -2.10093188     -0.157000005       9012.57324      0.586059093    
   4.40452194      -1.82441294     -0.246999994       9012.57324      0.586059093    
   4.67581606     -0.930077016     -0.246999994       9012.57324      0.586059093    
   5.38451099      -1.07104599     -0.157000005       9012.57324      0.586059093    
   4.56476784      -3.05008101     -0.157000005       8170.36768      0.198922545    
   3.96396494      -2.64863706     -0.246999994       8170.36768      0.198922545    
   4.40452194      -1.82441294     -0.246999994       8170.36768      0.198922545    
   5.07209921      -2.10093188     -0.157000005       8170.36768      0.198922545    
   3.88201594      -3.88201594     -0.157000005       7711.56250     -0.284532100    
   3.37107491      -3.37107491     -0.246999994       7711.56250     -0.284532100    
   3.96396494      -2.64863706     -0.246999994       7711.56250     -0.284532100    
   4.56476784      -3.05008101     -0.157000005       7711.56250     -0.284532100    
   3.05008101      -4.56476784     -0.157000005       7288.28027     -0.785935104    
   2.64863706      -3.96396494     -0.246999994       7288.28027     -0.785935104    
   3.37107491      -3.37107491     -0.246999994       7288.28027     -0.785935104    
   3.88201594      -3.88201594     -0.157000005       7288.28027     -0.785935104    
   2.10093188      -5.07209921     -0.157000005       6469.71826      -1.34720838    
   1.82441294      -4.40452194     -0.246999994       6469.71826      -1.34720838    
   2.64863706      -3.96396494     -0.246999994       6469.71826      -1.34720838    
   3.05008101      -4.56476784     -0.157000005       6469.71826      -1.34720838    
   1.07104599      -5.38451099     -0.157000005       5691.55957      -2.00037146    
  0.930077016      -4.67581606     -0.246999994       5691.55957      -2.00037146    
   1.82441294      -4.40452194     -0.246999994       5691.55957      -2.00037146    
   2.10093188      -5.07209921     -0.157000005       5691.55957      -2.00037146    
   0.00000000      -1.87709999     -0.606999993       6145.91553      -2.93214583    
   0.00000000      -1.36500001     -0.606999993       6145.91553      -2.93214583    
  0.266297996      -1.33877206     -0.606999993       6145.91553      -2.93214583    
  0.366203994      -1.84103203     -0.606999993       6145.91553      -2.93214583    
   0.00000000      -1.87709999     -0.606999993       6450.30908       3.01488018    
   0.00000000      -2.59967995     -0.517000020       6450.30908       3.01488018    
 -0.507171988      -2.54972792     -0.517000020       6450.30908       3.01488018    
 -0.366203994      -1.84103203     -0.606999993       6450.30908       3.01488018    
 -0.366203994      -1.84103203     -0.606999993       6104.99023       3.09551573    
 -0.266297996      -1.33877206     -0.606999993       6104.99023       3.09551573    
   0.00000000      -1.36500001     -0.606999993       6104.99023       3.09551573    
   0.00000000      -1.87709999     -0.606999993       6104.99023       3.09551573    
 -0.366203994      -1.84103203     -0.606999993       6513.28467       2.68237996    
 -0.507171988      -2.54972792     -0.517000020       6513.28467       2.68237996    
 -0.994853973      -2.40179110     -0.517000020       6513.28467       2.68237996    
 -0.718334973      -1.73421395     -0.606999993       6513.28467       2.68237996    
 -0.718334973      -1.73421395     -0.606999993       6194.68506       2.83661890    
 -0.522363007      -1.26109600     -0.606999993       6194.68506       2.83661890    
 -0.266297996      -1.33877206     -0.606999993       6194.68506       2.83661890    
 -0.366203994      -1.84103203     -0.606999993       6194.68506       2.83661890    
 -0.718334973      -1.73421395     -0.606999993       6647.03271       2.37541175    
 -0.994853973      -2.40179110     -0.517000020       6647.03271       2.37541175    
  -1.44430494      -2.16155505     -0.517000020       6647.03271       2.37541175    
  -1.04286098      -1.56075203     -0.606999993       6647.03271       2.37541175    
  -1.04286098      -1.56075203     -0.606999993       6419.99365       2.59713006    
 -0.758352995      -1.13495600     -0.606999993       6419.99365       2.59713006    
 -0.522363007      -1.26109600     -0.606999993       6419.99365       2.59713006    
 -0.718334973      -1.73421395     -0.606999993       6419.99365       2.59713006    
  -1.04286098      -1.56075203     -0.606999993       6814.88818       2.10926390    
  -1.44430494      -2.16155505     -0.517000020       6814.88818       2.10926390    
  -1.83825099      -1.83825099     -0.517000020       6814.88818       2.10926390    
  -1.32730997      -1.32730997     -0.606999993       6814.88818       2.10926390    
  -1.32730997      -1.32730997     -0.606999993       6733.16113       2.39412260    
 -0.965201020     -0.965201020     -0.606999993       6733.16113       2.39412260    
 -0.758352995      -1.13495600     -0.606999993       6733.16113       2.39412260    
  -1.04286098      -1.56075203     -0.606999993       6733.16113       2.39412260    
  -1.32730997      -1.32730997     -0.606999993       6974.04980       1.89272153    
  -1.83825099      -1.83825099     -0.517000020       6974.04980       1.89272153    
  -2.16155505      -1.44430494     -0.517000020       6974.04980       1.89272153    
  -1.56075203      -1.04286098     -0.606999993       6974.04980       1.89272153    
  -1.56075203      -1.04286098     -0.606999993       7062.06738       2.23479867    
  -1.13495600     -0.758352995     -0.606999993       7062.06738       2.23479867    
 -0.965201020     -0.965201020     -0.606999993       7062.06738       2.23479867    
  -1.32730997      -1.32730997     -0.606999993       7062.06738       2.23479867    
  -1.56075203      -1.04286098     -0.606999993       7093.94922       1.72930801    
  -2.16155505      -1.44430494     -0.517000020       7093.94922       1.72930801    
  -2.40179110     -0.994853973     -0.517000020       7093.94922       1.72930801    
  -1.73421395     -0.718334973     -0.606999993       7093.94922       1.72930801    
  -1.73421395     -0.718334973     -0.606999993       7342.19678       2.11909103    
  -1.26109600     -0.522363007     -0.606999993       7342.19678       2.11909103    
  -1.13495600     -0.758352995     -0.606999993       7342.19678       2.11909103    
  -1.56075203      -1.04286098     -0.606999993       7342.19678       2.11909103    
  -1.73421395     -0.718334973     -0.606999993       7163.46729       1.61969209    
  -2.40179110     -0.994853973     -0.517000020       7163.46729       1.61969209    
  -2.54972792     -0.507171988     -0.517000020       7163.46729       1.61969209    
  -1.84103203     -0.366203994     -0.606999993       7163.46729       1.61969209    
  -1.84103203     -0.366203994     -0.606999993       7530.58008       2.04395103    
  -1.33877206     -0.266297996     -0.606999993       7530.58008       2.04395103    
  -1.26109600     -0.522363007     -0.606999993       7530.58008       2.04395103    
  -1.73421395     -0.718334973     -0.606999993       7530.58008       2.04395103    
  -1.84103203     -0.366203994     -0.606999993       7186.61475       1.56389081    
  -2.54972792     -0.507171988     -0.517000020       7186.61475       1.56389081    
  -2.59967995       0.00000000     -0.517000020       7186.61475       1.56389081    
  -1.87709999       0.00000000     -0.606999993       7186.61475       1.56389081    
  -1.87709999       0.00000000     -0.606999993       7606.27393       2.00640988    
  -1.36500001       0.00000000     -0.606999993       7606.27393       2.00640988    
  -1.33877206     -0.266297996     -0.606999993       7606.27393       2.00640988    
  -1.84103203     -0.366203994     -0.606999993       7606.27393       2.00640988    
  -1.87709999       0.00000000     -0.606999993       7170.78076       1.56227696    
  -2.59967995       0.00000000     -0.517000020       7170.78076       1.56227696    
  -2.54972792      0.507171988     -0.517000020       7170.78076       1.56227696    
  -1.84103203      0.366203994     -0.606999993       7170.78076       1.56227696    
  -1.84103203      0.366203994     -0.606999993       7564.40234       2.00510836    
  -1.33877206      0.266297996     -0.606999993       7564.40234       2.00510836    
  -1.36500001       0.00000000     -0.606999993       7564.40234       2.00510836    
  -1.87709999       0.00000000     -0.606999993       7564.40234       2.00510836    
  -1.84103203      0.366203994     -0.606999993       7116.72314       1.61543059    
  -2.54972792      0.507171988     -0.517000020       7116.72314       1.61543059    
  -2.40179110      0.994853973     -0.517000020       7116.72314       1.61543059    
  -1.73421395      0.718334973     -0.606999993       7116.72314       1.61543059    
  -1.73421395      0.718334973     -0.606999993       7410.40137       2.04076004    
  -1.26109600      0.522363007     -0.606999993       7410.40137       2.04076004    
  -1.33877206      0.266297996     -0.606999993       7410.40137       2.04076004    
  -1.84103203      0.366203994     -0.606999993       7410.40137       2.04076004    
  -1.73421395      0.718334973     -0.606999993       7019.45508       1.72397828    
  -2.40179110      0.994853973     -0.517000020       7019.45508       1.72397828    
  -2.16155505       1.44430494     -0.517000020       7019.45508       1.72397828    
  -1.56075203       1.04286098     -0.606999993       7019.45508       1.72397828    
  -1.56075203       1.04286098     -0.606999993       7160.17383       2.11602092    
  -1.13495600      0.758352995     -0.606999993       7160.17383       2.11602092    
  -1.26109600      0.522363007     -0.606999993       7160.17383       2.11602092    
  -1.73421395      0.718334973     -0.606999993       7160.17383       2.11602092    
  -1.56075203       1.04286098     -0.606999993       6879.60889       1.88840914    
  -2.16155505       1.44430494     -0.517000020       6879.60889       1.88840914    
  -1.83825099       1.83825099     -0.517000020       6879.60889       1.88840914    
  -1.32730997       1.32730997     -0.606999993       6879.60889       1.88840914    
  -1.32730997       1.32730997     -0.606999993       6845.49902       2.23459435    
 -0.965201020      0.965201020     -0.606999993       6845.49902       2.23459435    
  -1.13495600      0.758352995     -0.606999993       6845.49902       2.23459435    
  -1.56075203       1.04286098     -0.606999993       6845.49902       2.23459435    
  -1.32730997       1.32730997     -0.606999993       6714.97754       2.10786462    
  -1.83825099       1.83825099     -0.517000020       6714.97754       2.10786462    
  -1.44430494       2.16155505     -0.517000020       6714.97754       2.10786462    
  -1.04286098       1.56075203     -0.606999993       6714.97754       2.10786462    
  -1.04286098       1.56075203     -0.606999993       6518.36426       2.39908648    
 -0.758352995       1.13495600     -0.606999993       6518.36426       2.39908648    
 -0.965201020      0.965201020     -0.606999993       6518.36426       2.39908648    
  -1.32730997       1.32730997     -0.606999993       6518.36426       2.39908648    
  -1.04286098       1.56075203     -0.606999993       6561.59619       2.37757134    
  -1.44430494       2.16155505     -0.517000020       6561.59619       2.37757134    
 -0.994853973       2.40179110     -0.517000020       6561.59619       2.37757134    
 -0.718334973       1.73421395     -0.606999993       6561.59619       2.37757134    
 -0.718334973       1.73421395     -0.606999993       6246.33691       2.60722089    
 -0.522363007       1.26109600     -0.606999993       6246.33691       2.60722089    
 -0.758352995       1.13495600     -0.606999993       6246.33691       2.60722089    
  -1.04286098       1.56075203     -0.606999993       6246.33691       2.60722089    
 -0.718334973       1.73421395     -0.606999993       6459.96094       2.68648863    
 -0.994853973       2.40179110     -0.517000020       6459.96094       2.68648863    
 -0.507171988       2.54972792     -0.517000020       6459.96094       2.68648863    
 -0.366203994       1.84103203     -0.606999993       6459.96094       2.68648863    
 -0.366203994       1.84103203     -0.606999993       6090.53320       2.84780192    
 -0.266297996       1.33877206     -0.606999993       6090.53320       2.84780192    
 -0.522363007       1.26109600     -0.606999993       6090.53320       2.84780192    
 -0.718334973       1.73421395     -0.606999993       6090.53320       2.84780192    
 -0.366203994       1.84103203     -0.606999993       6433.59570       3.01744628    
 -0.507171988       2.54972792     -0.517000020       6433.59570       3.01744628    
   0.00000000       2.59967995     -0.517000020       6433.59570       3.01744628    
   0.00000000       1.87709999     -0.606999993       6433.59570       3.01744628    
   0.00000000       1.87709999     -0.606999993       6073.88330       3.10090566    
   0.00000000       1.36500001     -0.606999993       6073.88330       3.10090566    
 -0.266297996       1.33877206     -0.606999993       6073.88330       3.10090566    
 -0.366203994       1.84103203     -0.606999993       6073.88330       3.10090566    
   0.00000000       1.87709999     -0.606999993       6472.27246      -2.93240976    
   0.00000000       2.59967995     -0.517000020       6472.27246      -2.93240976    
  0.507171988       2.54972792     -0.517000020       6472.27246      -2.93240976    
  0.366203994       1.84103203     -0.606999993       6472.27246      -2.93240976    
  0.366203994       1.84103203     -0.606999993       6163.09668      -2.93814516    
  0.266297996       1.33877206     -0.606999993       6163.09668      -2.93814516    
   0.00000000       1.36500001     -0.606999993       6163.09668      -2.93814516    
   0.00000000       1.87709999     -0.606999993       6163.09668      -2.93814516    
  0.366203994       1.84103203     -0.606999993       6533.66699      -2.61343575    
  0.507171988       2.54972792     -0.517000020       6533.66699      -2.61343575    
  0.994853973       2.40179110     -0.517000020       6533.66699      -2.61343575    
  0.718334973       1.73421395     -0.606999993       6533.66699      -2.61343575    
  0.718334973       1.73421395     -0.606999993       6285.51855      -2.71771812    
  0.522363007       1.26109600     -0.606999993       6285.51855      -2.71771812    
  0.266297996       1.33877206     -0.606999993       6285.51855      -2.71771812    
  0.366203994       1.84103203     -0.606999993       6285.51855      -2.71771812    
  0.718334973       1.73421395     -0.606999993       6568.41406      -2.31974459    
  0.994853973       2.40179110     -0.517000020       6568.41406      -2.31974459    
   1.44430494       2.16155505     -0.517000020       6568.41406      -2.31974459    
   1.04286098       1.56075203     -0.606999993       6568.41406      -2.31974459    
   1.04286098       1.56075203     -0.606999993       6368.75342      -2.52691340    
  0.758352995       1.13495600     -0.606999993       6368.75342      -2.52691340    
  0.522363007       1.26109600     -0.606999993       6368.75342      -2.52691340    
  0.718334973       1.73421395     -0.606999993       6368.75342      -2.52691340    
   1.04286098       1.56075203     -0.606999993       6547.64990      -2.05785441    
   1.44430494       2.16155505     -0.517000020       6547.64990      -2.05785441    
   1.83825099       1.83825099     -0.517000020       6547.64990      -2.05785441    
   1.32730997       1.32730997     -0.606999993       6547.64990      -2.05785441    
   1.32730997       1.32730997     -0.606999993       6373.09619      -2.36616039    
  0.965201020      0.965201020     -0.606999993       6373.09619      -2.36616039    
  0.758352995       1.13495600     -0.606999993       6373.09619      -2.36616039    
   1.04286098       1.56075203     -0.606999993       6373.09619      -2.36616039    
   1.32730997       1.32730997     -0.606999993       6474.90088      -1.83308470    
   1.83825099       1.83825099     -0.517000020       6474.90088      -1.83308470    
   2.16155505       1.44430494     -0.517000020       6474.90088      -1.83308470    
   1.56075203       1.04286098     -0.606999993       6474.90088      -1.83308470    
   1.56075203       1.04286098     -0.606999993       6300.54102      -2.23441219    
   1.13495600      0.758352995     -0.606999993       6300.54102      -2.23441219    
  0.965201020      0.965201020     -0.606999993       6300.54102      -2.23441219    
   1.32730997       1.32730997     -0.606999993       6300.54102      -2.23441219    
   1.56075203       1.04286098     -0.606999993       6378.92188      -1.65203881    
   2.16155505       1.44430494     -0.517000020       6378.92188      -1.65203881    
   2.40179110      0.994853973     -0.517000020       6378.92188      -1.65203881    
   1.73421395      0.718334973     -0.606999993       6378.92188      -1.65203881    
   1.73421395      0.718334973     -0.606999993       6186.18018      -2.13136911    
   1.26109600      0.522363007     -0.606999993       6186.18018      -2.13136911    
   1.13495600      0.758352995     -0.606999993       6186.18018      -2.13136911    
   1.56075203       1.04286098     -0.606999993       6186.18018      -2.13136911    
   1.73421395      0.718334973     -0.606999993       6296.64795      -1.52322114    
   2.40179110      0.994853973     -0.517000020       6296.64795      -1.52322114    
   2.54972792      0.507171988     -0.517000020       6296.64795      -1.52322114    
   1.84103203      0.366203994     -0.606999993       6296.64795      -1.52322114    
   1.84103203      0.366203994     -0.606999993       6079.45459      -2.05830050    
   1.33877206      0.266297996     -0.606999993       6079.45459      -2.05830050    
   1.26109600      0.522363007     -0.606999993       6079.45459      -2.05830050    
   1.73421395      0.718334973     -0.606999993       6079.45459      -2.05830050    
   1.84103203      0.366203994     -0.606999993       6256.81250      -1.45525765    
   2.54972792      0.507171988     -0.517000020       6256.81250      -1.45525765    
   2.59967995       0.00000000     -0.517000020       6256.81250      -1.45525765    
   1.87709999       0.00000000     -0.606999993       6256.81250      -1.45525765    
   1.87709999       0.00000000     -0.606999993       6023.80371      -2.01752210    
   1.36500001       0.00000000     -0.606999993       6023.80371      -2.01752210    
   1.33877206      0.266297996     -0.606999993       6023.80371      -2.01752210    
   1.84103203      0.366203994     -0.606999993       6023.80371      -2.01752210    
   1.87709999       0.00000000     -0.606999993       6272.24365      -1.45359325    
   2.59967995       0.00000000     -0.517000020       6272.24365      -1.45359325    
   2.54972792     -0.507171988     -0.517000020       6272.24365      -1.45359325    
   1.84103203     -0.366203994     -0.606999993       6272.24365      -1.45359325    
   1.84103203     -0.366203994     -0.606999993       6041.35889      -2.01119661    
   1.33877206     -0.266297996     -0.606999993       6041.35889      -2.01119661    
   1.36500001       0.00000000     -0.606999993       6041.35889      -2.01119661    
   1.87709999       0.00000000     -0.606999993       6041.35889      -2.01119661    
   1.84103203     -0.366203994     -0.606999993       6338.80615      -1.51806879    
   2.54972792     -0.507171988     -0.517000020       6338.80615      -1.51806879    
   2.40179110     -0.994853973     -0.517000020       6338.80615      -1.51806879    
   1.73421395     -0.718334973     -0.606999993       6338.80615      -1.51806879    
   1.73421395     -0.718334973     -0.606999993       6125.80713      -2.04020524    
   1.26109600     -0.522363007     -0.606999993       6125.80713      -2.04020524    
   1.33877206     -0.266297996     -0.606999993       6125.80713      -2.04020524    
   1.84103203     -0.366203994     -0.606999993       6125.80713      -2.04020524    
   1.73421395     -0.718334973     -0.606999993       6436.03369      -1.64323425    
   2.40179110     -0.994853973     -0.517000020       6436.03369      -1.64323425    
   2.16155505      -1.44430494     -0.517000020       6436.03369      -1.64323425    
   1.56075203      -1.04286098     -0.606999993       6436.03369      -1.64323425    
   1.56075203      -1.04286098     -0.606999993       6244.59814      -2.10403371    
   1.13495600     -0.758352995     -0.606999993       6244.59814      -2.10403371    
   1.26109600     -0.522363007     -0.606999993       6244.59814      -2.10403371    