 VARIABLES="X" "Y" "Z" "abs(p) (Pa)" "angle(p) (rad)"
ZONE N=   2709,E =    2358, F=FEPOINT, ET=QUADRILATERAL
   0.00000000      -5.48999977     -0.157000005       47.4257355      -1.10976863    
   0.00000000      -4.76741982     -0.246999994       47.4257355      -1.10976863    
  0.930077016      -4.67581606     -0.246999994       47.4257355      -1.10976863    
   1.07104599      -5.38451099     -0.157000005       47.4257355      -1.10976863    
  -1.07104599      -5.38451099     -0.157000005       46.2969704       2.02929592    
 -0.930077016      -4.67581606     -0.246999994       46.2969704       2.02929592    
   0.00000000      -4.76741982     -0.246999994       46.2969704       2.02929592    
   0.00000000      -5.48999977     -0.157000005       46.2969704       2.02929592    
  -2.10093188      -5.07209921     -0.157000005       137.450699       2.03128219    
  -1.82441294      -4.40452194     -0.246999994       137.450699       2.03128219    
 -0.930077016      -4.67581606     -0.246999994       137.450699       2.03128219    
  -1.07104599      -5.38451099     -0.157000005       137.450699       2.03128219    
  -3.05008101      -4.56476784     -0.157000005       222.508850       2.03469396    
  -2.64863706      -3.96396494     -0.246999994       222.508850       2.03469396    
  -1.82441294      -4.40452194     -0.246999994       222.508850       2.03469396    
  -2.10093188      -5.07209921     -0.157000005       222.508850       2.03469396    
  -3.88201594      -3.88201594     -0.157000005       298.765381       2.03582358    
  -3.37107491      -3.37107491     -0.246999994       298.765381       2.03582358    
  -2.64863706      -3.96396494     -0.246999994       298.765381       2.03582358    
  -3.05008101      -4.56476784     -0.157000005       298.765381       2.03582358    
  -4.56476784      -3.05008101     -0.157000005       363.520477       2.03512144    
  -3.96396494      -2.64863706     -0.246999994       363.520477       2.03512144    
  -3.37107491      -3.37107491     -0.246999994       363.520477       2.03512144    
  -3.88201594      -3.88201594     -0.157000005       363.520477       2.03512144    
  -5.07209921      -2.10093188     -0.157000005       416.279266       2.03523803    
  -4.40452194      -1.82441294     -0.246999994       416.279266       2.03523803    
  -3.96396494      -2.64863706     -0.246999994       416.279266       2.03523803    
  -4.56476784      -3.05008101     -0.157000005       416.279266       2.03523803    
  -5.38451099      -1.07104599     -0.157000005       452.695160       2.03459191    
  -4.67581606     -0.930077016     -0.246999994       452.695160       2.03459191    
  -4.40452194      -1.82441294     -0.246999994       452.695160       2.03459191    
  -5.07209921      -2.10093188     -0.157000005       452.695160       2.03459191    
  -5.48999977       0.00000000     -0.157000005       470.329132       2.03369761    
  -4.76741982       0.00000000     -0.246999994       470.329132       2.03369761    
  -4.67581606     -0.930077016     -0.246999994       470.329132       2.03369761    
  -5.38451099      -1.07104599     -0.157000005       470.329132       2.03369761    
  -5.38451099       1.07104599     -0.157000005       470.683380       2.03327870    
  -4.67581606      0.930077016     -0.246999994       470.683380       2.03327870    
  -4.76741982       0.00000000     -0.246999994       470.683380       2.03327870    
  -5.48999977       0.00000000     -0.157000005       470.683380       2.03327870    
  -5.07209921       2.10093188     -0.157000005       453.189819       2.03285742    
  -4.40452194       1.82441294     -0.246999994       453.189819       2.03285742    
  -4.67581606      0.930077016     -0.246999994       453.189819       2.03285742    
  -5.38451099       1.07104599     -0.157000005       453.189819       2.03285742    
  -4.56476784       3.05008101     -0.157000005       417.568634       2.03323317    
  -3.96396494       2.64863706     -0.246999994       417.568634       2.03323317    
  -4.40452194       1.82441294     -0.246999994       417.568634       2.03323317    
  -5.07209921       2.10093188     -0.157000005       417.568634       2.03323317    
  -3.88201594       3.88201594     -0.157000005       366.229675       2.03443050    
  -3.37107491       3.37107491     -0.246999994       366.229675       2.03443050    
  -3.96396494       2.64863706     -0.246999994       366.229675       2.03443050    
  -4.56476784       3.05008101     -0.157000005       366.229675       2.03443050    
  -3.05008101       4.56476784     -0.157000005       300.192444       2.03408766    
  -2.64863706       3.96396494     -0.246999994       300.192444       2.03408766    
  -3.37107491       3.37107491     -0.246999994       300.192444       2.03408766    
  -3.88201594       3.88201594     -0.157000005       300.192444       2.03408766    
  -2.10093188       5.07209921     -0.157000005       223.891296       2.03388214    
  -1.82441294       4.40452194     -0.246999994       223.891296       2.03388214    
  -2.64863706       3.96396494     -0.246999994       223.891296       2.03388214    
  -3.05008101       4.56476784     -0.157000005       223.891296       2.03388214    
  -1.07104599       5.38451099     -0.157000005       138.646194       2.03115201    
 -0.930077016       4.67581606     -0.246999994       138.646194       2.03115201    
  -1.82441294       4.40452194     -0.246999994       138.646194       2.03115201    
  -2.10093188       5.07209921     -0.157000005       138.646194       2.03115201    
   0.00000000       5.48999977     -0.157000005       47.4389381       2.02941728    
   0.00000000       4.76741982     -0.246999994       47.4389381       2.02941728    
 -0.930077016       4.67581606     -0.246999994       47.4389381       2.02941728    
  -1.07104599       5.38451099     -0.157000005       47.4389381       2.02941728    
   1.07104599       5.38451099     -0.157000005       46.2641754      -1.11138260    
  0.930077016       4.67581606     -0.246999994       46.2641754      -1.11138260    
   0.00000000       4.76741982     -0.246999994       46.2641754      -1.11138260    
   0.00000000       5.48999977     -0.157000005       46.2641754      -1.11138260    
   2.10093188       5.07209921     -0.157000005       137.757706      -1.10928762    
   1.82441294       4.40452194     -0.246999994       137.757706      -1.10928762    
  0.930077016       4.67581606     -0.246999994       137.757706      -1.10928762    
   1.07104599       5.38451099     -0.157000005       137.757706      -1.10928762    
   3.05008101       4.56476784     -0.157000005       222.869690      -1.10734200    
   2.64863706       3.96396494     -0.246999994       222.869690      -1.10734200    
   1.82441294       4.40452194     -0.246999994       222.869690      -1.10734200    
   2.10093188       5.07209921     -0.157000005       222.869690      -1.10734200    
   3.88201594       3.88201594     -0.157000005       299.143677      -1.10748577    
   3.37107491       3.37107491     -0.246999994       299.143677      -1.10748577    
   2.64863706       3.96396494     -0.246999994       299.143677      -1.10748577    
   3.05008101       4.56476784     -0.157000005       299.143677      -1.10748577    
   4.56476784       3.05008101     -0.157000005       364.932892      -1.10755026    
   3.96396494       2.64863706     -0.246999994       364.932892      -1.10755026    
   3.37107491       3.37107491     -0.246999994       364.932892      -1.10755026    
   3.88201594       3.88201594     -0.157000005       364.932892      -1.10755026    
   5.07209921       2.10093188     -0.157000005       416.941589      -1.10823274    
   4.40452194       1.82441294     -0.246999994       416.941589      -1.10823274    
   3.96396494       2.64863706     -0.246999994       416.941589      -1.10823274    
   4.56476784       3.05008101     -0.157000005       416.941589      -1.10823274    
   5.38451099       1.07104599     -0.157000005       453.750275      -1.10771322    
   4.67581606      0.930077016     -0.246999994       453.750275      -1.10771322    
   4.40452194       1.82441294     -0.246999994       453.750275      -1.10771322    
   5.07209921       2.10093188     -0.157000005       453.750275      -1.10771322    
   5.48999977       0.00000000     -0.157000005       471.702881      -1.10713005    
   4.76741982       0.00000000     -0.246999994       471.702881      -1.10713005    
   4.67581606      0.930077016     -0.246999994       471.702881      -1.10713005    
   5.38451099       1.07104599     -0.157000005       471.702881      -1.10713005    
   5.38451099      -1.07104599     -0.157000005       471.499603      -1.10678566    
   4.67581606     -0.930077016     -0.246999994       471.499603      -1.10678566    
   4.76741982       0.00000000     -0.246999994       471.499603      -1.10678566    
   5.48999977       0.00000000     -0.157000005       471.499603      -1.10678566    
   5.07209921      -2.10093188     -0.157000005       453.317871      -1.10660148    
   4.40452194      -1.82441294     -0.246999994       453.317871      -1.10660148    
   4.67581606     -0.930077016     -0.246999994       453.317871      -1.10660148    
   5.38451099      -1.07104599     -0.157000005       453.317871      -1.10660148    
   4.56476784      -3.05008101     -0.157000005       417.162933      -1.10587144    
   3.96396494      -2.64863706     -0.246999994       417.162933      -1.10587144    
   4.40452194      -1.82441294     -0.246999994       417.162933      -1.10587144    
   5.07209921      -2.10093188     -0.157000005       417.162933      -1.10587144    
   3.88201594      -3.88201594     -0.157000005       365.129669      -1.10526884    
   3.37107491      -3.37107491     -0.246999994       365.129669      -1.10526884    
   3.96396494      -2.64863706     -0.246999994       365.129669      -1.10526884    
   4.56476784      -3.05008101     -0.157000005       365.129669      -1.10526884    
   3.05008101      -4.56476784     -0.157000005       299.327118      -1.10590506    
   2.64863706      -3.96396494     -0.246999994       299.327118      -1.10590506    
   3.37107491      -3.37107491     -0.246999994       299.327118      -1.10590506    
   3.88201594      -3.88201594     -0.157000005       299.327118      -1.10590506    
   2.10093188      -5.07209921     -0.157000005       223.501617      -1.10644388    
   1.82441294      -4.40452194     -0.246999994       223.501617      -1.10644388    
   2.64863706      -3.96396494     -0.246999994       223.501617      -1.10644388    
   3.05008101      -4.56476784     -0.157000005       223.501617      -1.10644388    
   1.07104599      -5.38451099     -0.157000005       138.743057      -1.10871029    
  0.930077016      -4.67581606     -0.246999994       138.743057      -1.10871029    
   1.82441294      -4.40452194     -0.246999994       138.743057      -1.10871029    
   2.10093188      -5.07209921     -0.157000005       138.743057      -1.10871029    
   0.00000000      -1.87709999     -0.606999993       99.2419052      -1.51472163    
   0.00000000      -1.36500001     -0.606999993       99.2419052      -1.51472163    
  0.266297996      -1.33877206     -0.606999993       99.2419052      -1.51472163    
  0.366203994      -1.84103203     -0.606999993       99.2419052      -1.51472163    
   0.00000000      -1.87709999     -0.606999993       66.5592422       1.69546723    
   0.00000000      -2.59967995     -0.517000020       66.5592422       1.69546723    
 -0.507171988      -2.54972792     -0.517000020       66.5592422       1.69546723    
 -0.366203994      -1.84103203     -0.606999993       66.5592422       1.69546723    
 -0.366203994      -1.84103203     -0.606999993       87.2218170       1.62635624    
 -0.266297996      -1.33877206     -0.606999993       87.2218170       1.62635624    
   0.00000000      -1.36500001     -0.606999993       87.2218170       1.62635624    
   0.00000000      -1.87709999     -0.606999993       87.2218170       1.62635624    
 -0.366203994      -1.84103203     -0.606999993       200.599823       1.69429731    
 -0.507171988      -2.54972792     -0.517000020       200.599823       1.69429731    
 -0.994853973      -2.40179110     -0.517000020       200.599823       1.69429731    
 -0.718334973      -1.73421395     -0.606999993       200.599823       1.69429731    
 -0.718334973      -1.73421395     -0.606999993       268.581757       1.62644124    
 -0.522363007      -1.26109600     -0.606999993       268.581757       1.62644124    
 -0.266297996      -1.33877206     -0.606999993       268.581757       1.62644124    
 -0.366203994      -1.84103203     -0.606999993       268.581757       1.62644124    
 -0.718334973      -1.73421395     -0.606999993       319.355865       1.69531906    
 -0.994853973      -2.40179110     -0.517000020       319.355865       1.69531906    
  -1.44430494      -2.16155505     -0.517000020       319.355865       1.69531906    
  -1.04286098      -1.56075203     -0.606999993       319.355865       1.69531906    
  -1.04286098      -1.56075203     -0.606999993       435.849854       1.62632537    
 -0.758352995      -1.13495600     -0.606999993       435.849854       1.62632537    
 -0.522363007      -1.26109600     -0.606999993       435.849854       1.62632537    
 -0.718334973      -1.73421395     -0.606999993       435.849854       1.62632537    
  -1.04286098      -1.56075203     -0.606999993       422.963715       1.69613993    
  -1.44430494      -2.16155505     -0.517000020       422.963715       1.69613993    
  -1.83825099      -1.83825099     -0.517000020       422.963715       1.69613993    
  -1.32730997      -1.32730997     -0.606999993       422.963715       1.69613993    
  -1.32730997      -1.32730997     -0.606999993       584.389526       1.62621474    
 -0.965201020     -0.965201020     -0.606999993       584.389526       1.62621474    
 -0.758352995      -1.13495600     -0.606999993       584.389526       1.62621474    
  -1.04286098      -1.56075203     -0.606999993       584.389526       1.62621474    
  -1.32730997      -1.32730997     -0.606999993       513.453491       1.69629192    
  -1.83825099      -1.83825099     -0.517000020       513.453491       1.69629192    
  -2.16155505      -1.44430494     -0.517000020       513.453491       1.69629192    
  -1.56075203      -1.04286098     -0.606999993       513.453491       1.69629192    
  -1.56075203      -1.04286098     -0.606999993       711.589355       1.62614834    
  -1.13495600     -0.758352995     -0.606999993       711.589355       1.62614834    
 -0.965201020     -0.965201020     -0.606999993       711.589355       1.62614834    
  -1.32730997      -1.32730997     -0.606999993       711.589355       1.62614834    
  -1.56075203      -1.04286098     -0.606999993       589.538818       1.69588292    
  -2.16155505      -1.44430494     -0.517000020       589.538818       1.69588292    
  -2.40179110     -0.994853973     -0.517000020       589.538818       1.69588292    
  -1.73421395     -0.718334973     -0.606999993       589.538818       1.69588292    
  -1.73421395     -0.718334973     -0.606999993       814.444763       1.62611222    
  -1.26109600     -0.522363007     -0.606999993       814.444763       1.62611222    
  -1.13495600     -0.758352995     -0.606999993       814.444763       1.62611222    
  -1.56075203      -1.04286098     -0.606999993       814.444763       1.62611222    
  -1.73421395     -0.718334973     -0.606999993       645.193970       1.69537151    
  -2.40179110     -0.994853973     -0.517000020       645.193970       1.69537151    
  -2.54972792     -0.507171988     -0.517000020       645.193970       1.69537151    
  -1.84103203     -0.366203994     -0.606999993       645.193970       1.69537151    
  -1.84103203     -0.366203994     -0.606999993       887.823914       1.62610400    
  -1.33877206     -0.266297996     -0.606999993       887.823914       1.62610400    
  -1.26109600     -0.522363007     -0.606999993       887.823914       1.62610400    
  -1.73421395     -0.718334973     -0.606999993       887.823914       1.62610400    
  -1.84103203     -0.366203994     -0.606999993       674.946838       1.69501472    
  -2.54972792     -0.507171988     -0.517000020       674.946838       1.69501472    
  -2.59967995       0.00000000     -0.517000020       674.946838       1.69501472    
  -1.87709999       0.00000000     -0.606999993       674.946838       1.69501472    
  -1.87709999       0.00000000     -0.606999993       926.804199       1.62609601    
  -1.36500001       0.00000000     -0.606999993       926.804199       1.62609601    
  -1.33877206     -0.266297996     -0.606999993       926.804199       1.62609601    
  -1.84103203     -0.366203994     -0.606999993       926.804199       1.62609601    
  -1.87709999       0.00000000     -0.606999993       676.144653       1.69487762    
  -2.59967995       0.00000000     -0.517000020       676.144653       1.69487762    
  -2.54972792      0.507171988     -0.517000020       676.144653       1.69487762    
  -1.84103203      0.366203994     -0.606999993       676.144653       1.69487762    
  -1.84103203      0.366203994     -0.606999993       928.348083       1.62605882    
  -1.33877206      0.266297996     -0.606999993       928.348083       1.62605882    
  -1.36500001       0.00000000     -0.606999993       928.348083       1.62605882    
  -1.87709999       0.00000000     -0.606999993       928.348083       1.62605882    
  -1.84103203      0.366203994     -0.606999993       648.554810       1.69496393    
  -2.54972792      0.507171988     -0.517000020       648.554810       1.69496393    
  -2.40179110      0.994853973     -0.517000020       648.554810       1.69496393    
  -1.73421395      0.718334973     -0.606999993       648.554810       1.69496393    
  -1.73421395      0.718334973     -0.606999993       892.219971       1.62598383    
  -1.26109600      0.522363007     -0.606999993       892.219971       1.62598383    
  -1.33877206      0.266297996     -0.606999993       892.219971       1.62598383    
  -1.84103203      0.366203994     -0.606999993       892.219971       1.62598383    
  -1.73421395      0.718334973     -0.606999993       594.245117       1.69522905    
  -2.40179110      0.994853973     -0.517000020       594.245117       1.69522905    
  -2.16155505       1.44430494     -0.517000020       594.245117       1.69522905    
  -1.56075203       1.04286098     -0.606999993       594.245117       1.69522905    
  -1.56075203       1.04286098     -0.606999993       821.084961       1.62588930    
  -1.13495600      0.758352995     -0.606999993       821.084961       1.62588930    
  -1.26109600      0.522363007     -0.606999993       821.084961       1.62588930    
  -1.73421395      0.718334973     -0.606999993       821.084961       1.62588930    
  -1.56075203       1.04286098     -0.606999993       518.379517       1.69543791    
  -2.16155505       1.44430494     -0.517000020       518.379517       1.69543791    
  -1.83825099       1.83825099     -0.517000020       518.379517       1.69543791    
  -1.32730997       1.32730997     -0.606999993       518.379517       1.69543791    
  -1.32730997       1.32730997     -0.606999993       719.674744       1.62580919    
 -0.965201020      0.965201020     -0.606999993       719.674744       1.62580919    
  -1.13495600      0.758352995     -0.606999993       719.674744       1.62580919    
  -1.56075203       1.04286098     -0.606999993       719.674744       1.62580919    
  -1.32730997       1.32730997     -0.606999993       427.538361       1.69508743    
  -1.83825099       1.83825099     -0.517000020       427.538361       1.69508743    
  -1.44430494       2.16155505     -0.517000020       427.538361       1.69508743    
  -1.04286098       1.56075203     -0.606999993       427.538361       1.69508743    
  -1.04286098       1.56075203     -0.606999993       593.312500       1.62576294    
 -0.758352995       1.13495600     -0.606999993       593.312500       1.62576294    
 -0.965201020      0.965201020     -0.606999993       593.312500       1.62576294    
  -1.32730997       1.32730997     -0.606999993       593.312500       1.62576294    
  -1.04286098       1.56075203     -0.606999993       323.969299       1.69389272    
  -1.44430494       2.16155505     -0.517000020       323.969299       1.69389272    
 -0.994853973       2.40179110     -0.517000020       323.969299       1.69389272    
 -0.718334973       1.73421395     -0.606999993       323.969299       1.69389272    
 -0.718334973       1.73421395     -0.606999993       445.553284       1.62574387    
 -0.522363007       1.26109600     -0.606999993       445.553284       1.62574387    
 -0.758352995       1.13495600     -0.606999993       445.553284       1.62574387    
  -1.04286098       1.56075203     -0.606999993       445.553284       1.62574387    
 -0.718334973       1.73421395     -0.606999993       206.010025       1.69187653    
 -0.994853973       2.40179110     -0.517000020       206.010025       1.69187653    
 -0.507171988       2.54972792     -0.517000020       206.010025       1.69187653    
 -0.366203994       1.84103203     -0.606999993       206.010025       1.69187653    
 -0.366203994       1.84103203     -0.606999993       279.350647       1.62561381    
 -0.266297996       1.33877206     -0.606999993       279.350647       1.62561381    
 -0.522363007       1.26109600     -0.606999993       279.350647       1.62561381    
 -0.718334973       1.73421395     -0.606999993       279.350647       1.62561381    
 -0.366203994       1.84103203     -0.606999993       73.2613220       1.68781424    
 -0.507171988       2.54972792     -0.517000020       73.2613220       1.68781424    
   0.00000000       2.59967995     -0.517000020       73.2613220       1.68781424    
   0.00000000       1.87709999     -0.606999993       73.2613220       1.68781424    
   0.00000000       1.87709999     -0.606999993       99.1400375       1.62458754    
   0.00000000       1.36500001     -0.606999993       99.1400375       1.62458754    
 -0.266297996       1.33877206     -0.606999993       99.1400375       1.62458754    
 -0.366203994       1.84103203     -0.606999993       99.1400375       1.62458754    
   0.00000000       1.87709999     -0.606999993       65.7907486      -1.44355416    
   0.00000000       2.59967995     -0.517000020       65.7907486      -1.44355416    
  0.507171988       2.54972792     -0.517000020       65.7907486      -1.44355416    
  0.366203994       1.84103203     -0.606999993       65.7907486      -1.44355416    
  0.366203994       1.84103203     -0.606999993       86.4749985      -1.51335943    
  0.266297996       1.33877206     -0.606999993       86.4749985      -1.51335943    
   0.00000000       1.36500001     -0.606999993       86.4749985      -1.51335943    
   0.00000000       1.87709999     -0.606999993       86.4749985      -1.51335943    
  0.366203994       1.84103203     -0.606999993       198.872986      -1.44633460    
  0.507171988       2.54972792     -0.517000020       198.872986      -1.44633460    
  0.994853973       2.40179110     -0.517000020       198.872986      -1.44633460    
  0.718334973       1.73421395     -0.606999993       198.872986      -1.44633460    
  0.718334973       1.73421395     -0.606999993       267.214050      -1.51479018    
  0.522363007       1.26109600     -0.606999993       267.214050      -1.51479018    
  0.266297996       1.33877206     -0.606999993       267.214050      -1.51479018    
  0.366203994       1.84103203     -0.606999993       267.214050      -1.51479018    
  0.718334973       1.73421395     -0.606999993       317.425964      -1.44570482    
  0.994853973       2.40179110     -0.517000020       317.425964      -1.44570482    
   1.44430494       2.16155505     -0.517000020       317.425964      -1.44570482    
   1.04286098       1.56075203     -0.606999993       317.425964      -1.44570482    
   1.04286098       1.56075203     -0.606999993       434.464935      -1.51517546    
  0.758352995       1.13495600     -0.606999993       434.464935      -1.51517546    
  0.522363007       1.26109600     -0.606999993       434.464935      -1.51517546    
  0.718334973       1.73421395     -0.606999993       434.464935      -1.51517546    
   1.04286098       1.56075203     -0.606999993       421.827148      -1.44515681    
   1.44430494       2.16155505     -0.517000020       421.827148      -1.44515681    
   1.83825099       1.83825099     -0.517000020       421.827148      -1.44515681    
   1.32730997       1.32730997     -0.606999993       421.827148      -1.44515681    
   1.32730997       1.32730997     -0.606999993       583.698547      -1.51538193    
  0.965201020      0.965201020     -0.606999993       583.698547      -1.51538193    
  0.758352995       1.13495600     -0.606999993       583.698547      -1.51538193    
   1.04286098       1.56075203     -0.606999993       583.698547      -1.51538193    
   1.32730997       1.32730997     -0.606999993       513.697144      -1.44520414    
   1.83825099       1.83825099     -0.517000020       513.697144      -1.44520414    
   2.16155505       1.44430494     -0.517000020       513.697144      -1.44520414    
   1.56075203       1.04286098     -0.606999993       513.697144      -1.44520414    
   1.56075203       1.04286098     -0.606999993       711.879150      -1.51545846    
   1.13495600      0.758352995     -0.606999993       711.879150      -1.51545846    
  0.965201020      0.965201020     -0.606999993       711.879150      -1.51545846    
   1.32730997       1.32730997     -0.606999993       711.879150      -1.51545846    
   1.56075203       1.04286098     -0.606999993       590.734741      -1.44567859    
   2.16155505       1.44430494     -0.517000020       590.734741      -1.44567859    
   2.40179110      0.994853973     -0.517000020       590.734741      -1.44567859    
   1.73421395      0.718334973     -0.606999993       590.734741      -1.44567859    
   1.73421395      0.718334973     -0.606999993       815.171814      -1.51542771    
   1.26109600      0.522363007     -0.606999993       815.171814      -1.51542771    
   1.13495600      0.758352995     -0.606999993       815.171814      -1.51542771    
   1.56075203       1.04286098     -0.606999993       815.171814      -1.51542771    
   1.73421395      0.718334973     -0.606999993       646.316772      -1.44613349    
   2.40179110      0.994853973     -0.517000020       646.316772      -1.44613349    
   2.54972792      0.507171988     -0.517000020       646.316772      -1.44613349    
   1.84103203      0.366203994     -0.606999993       646.316772      -1.44613349    
   1.84103203      0.366203994     -0.606999993       888.402466      -1.51536846    
   1.33877206      0.266297996     -0.606999993       888.402466      -1.51536846    
   1.26109600      0.522363007     -0.606999993       888.402466      -1.51536846    
   1.73421395      0.718334973     -0.606999993       888.402466      -1.51536846    
   1.84103203      0.366203994     -0.606999993       675.250488      -1.44637835    
   2.54972792      0.507171988     -0.517000020       675.250488      -1.44637835    
   2.59967995       0.00000000     -0.517000020       675.250488      -1.44637835    
   1.87709999       0.00000000     -0.606999993       675.250488      -1.44637835    
   1.87709999       0.00000000     -0.606999993       926.811096      -1.51532888    
   1.36500001       0.00000000     -0.606999993       926.811096      -1.51532888    
   1.33877206      0.266297996     -0.606999993       926.811096      -1.51532888    
   1.84103203      0.366203994     -0.606999993       926.811096      -1.51532888    
   1.87709999       0.00000000     -0.606999993       675.433899      -1.44639564    
   2.59967995       0.00000000     -0.517000020       675.433899      -1.44639564    
   2.54972792     -0.507171988     -0.517000020       675.433899      -1.44639564    
   1.84103203     -0.366203994     -0.606999993       675.433899      -1.44639564    
   1.84103203     -0.366203994     -0.606999993       927.599060      -1.51532054    
   1.33877206     -0.266297996     -0.606999993       927.599060      -1.51532054    
   1.36500001       0.00000000     -0.606999993       927.599060      -1.51532054    
   1.87709999       0.00000000     -0.606999993       927.599060      -1.51532054    
   1.84103203     -0.366203994     -0.606999993       647.044189      -1.44619906    
   2.54972792     -0.507171988     -0.517000020       647.044189      -1.44619906    
   2.40179110     -0.994853973     -0.517000020       647.044189      -1.44619906    
   1.73421395     -0.718334973     -0.606999993       647.044189      -1.44619906    
   1.73421395     -0.718334973     -0.606999993       890.969543      -1.51534235    
   1.26109600     -0.522363007     -0.606999993       890.969543      -1.51534235    
   1.33877206     -0.266297996     -0.606999993       890.969543      -1.51534235    
   1.84103203     -0.366203994     -0.606999993       890.969543      -1.51534235    
   1.73421395     -0.718334973     -0.606999993       592.681030      -1.44586504    
   2.40179110     -0.994853973     -0.517000020       592.681030      -1.44586504    
   2.16155505      -1.44430494     -0.517000020       592.681030      -1.44586504    
   1.56075203      -1.04286098     -0.606999993       592.681030      -1.44586504    
   1.56075203      -1.04286098     -0.606999993       819.922241      -1.51536751    
   1.13495600     -0.758352995     -0.606999993       819.922241      -1.51536751    
   1.26109600     -0.522363007     -0.606999993       819.922241      -1.51536751    