 VARIABLES="X" "Y" "Z" "abs(p) (Pa)" "angle(p) (rad)"
ZONE N=   2709,E =    2358, F=FEPOINT, ET=QUADRILATERAL
   0.00000000      -5.48999977     -0.157000005       3259.76025      -1.53044808    
   0.00000000      -4.76741982     -0.246999994       3259.76025      -1.53044808    
  0.930077016      -4.67581606     -0.246999994       3259.76025      -1.53044808    
   1.07104599      -5.38451099     -0.157000005       3259.76025      -1.53044808    
  -1.07104599      -5.38451099     -0.157000005       3259.35205      -1.53086579    
 -0.930077016      -4.67581606     -0.246999994       3259.35205      -1.53086579    
   0.00000000      -4.76741982     -0.246999994       3259.35205      -1.53086579    
   0.00000000      -5.48999977     -0.157000005       3259.35205      -1.53086579    
  -2.10093188      -5.07209921     -0.157000005       3157.11328      -1.52604055    
  -1.82441294      -4.40452194     -0.246999994       3157.11328      -1.52604055    
 -0.930077016      -4.67581606     -0.246999994       3157.11328      -1.52604055    
  -1.07104599      -5.38451099     -0.157000005       3157.11328      -1.52604055    
  -3.05008101      -4.56476784     -0.157000005       2890.62891      -1.53044939    
  -2.64863706      -3.96396494     -0.246999994       2890.62891      -1.53044939    
  -1.82441294      -4.40452194     -0.246999994       2890.62891      -1.53044939    
  -2.10093188      -5.07209921     -0.157000005       2890.62891      -1.53044939    
  -3.88201594      -3.88201594     -0.157000005       2526.77734      -1.53105569    
  -3.37107491      -3.37107491     -0.246999994       2526.77734      -1.53105569    
  -2.64863706      -3.96396494     -0.246999994       2526.77734      -1.53105569    
  -3.05008101      -4.56476784     -0.157000005       2526.77734      -1.53105569    
  -4.56476784      -3.05008101     -0.157000005       2099.50024      -1.52651179    
  -3.96396494      -2.64863706     -0.246999994       2099.50024      -1.52651179    
  -3.37107491      -3.37107491     -0.246999994       2099.50024      -1.52651179    
  -3.88201594      -3.88201594     -0.157000005       2099.50024      -1.52651179    
  -5.07209921      -2.10093188     -0.157000005       1541.60864      -1.53211474    
  -4.40452194      -1.82441294     -0.246999994       1541.60864      -1.53211474    
  -3.96396494      -2.64863706     -0.246999994       1541.60864      -1.53211474    
  -4.56476784      -3.05008101     -0.157000005       1541.60864      -1.53211474    
  -5.38451099      -1.07104599     -0.157000005       948.948547      -1.53062010    
  -4.67581606     -0.930077016     -0.246999994       948.948547      -1.53062010    
  -4.40452194      -1.82441294     -0.246999994       948.948547      -1.53062010    
  -5.07209921      -2.10093188     -0.157000005       948.948547      -1.53062010    
  -5.48999977       0.00000000     -0.157000005       319.778992      -1.52851915    
  -4.76741982       0.00000000     -0.246999994       319.778992      -1.52851915    
  -4.67581606     -0.930077016     -0.246999994       319.778992      -1.52851915    
  -5.38451099      -1.07104599     -0.157000005       319.778992      -1.52851915    
  -5.38451099       1.07104599     -0.157000005       325.914185       1.61975873    
  -4.67581606      0.930077016     -0.246999994       325.914185       1.61975873    
  -4.76741982       0.00000000     -0.246999994       325.914185       1.61975873    
  -5.48999977       0.00000000     -0.157000005       325.914185       1.61975873    
  -5.07209921       2.10093188     -0.157000005       963.201416       1.61469543    
  -4.40452194       1.82441294     -0.246999994       963.201416       1.61469543    
  -4.67581606      0.930077016     -0.246999994       963.201416       1.61469543    
  -5.38451099       1.07104599     -0.157000005       963.201416       1.61469543    
  -4.56476784       3.05008101     -0.157000005       1557.86279       1.61758387    
  -3.96396494       2.64863706     -0.246999994       1557.86279       1.61758387    
  -4.40452194       1.82441294     -0.246999994       1557.86279       1.61758387    
  -5.07209921       2.10093188     -0.157000005       1557.86279       1.61758387    
  -3.88201594       3.88201594     -0.157000005       2081.66992       1.60977459    
  -3.37107491       3.37107491     -0.246999994       2081.66992       1.60977459    
  -3.96396494       2.64863706     -0.246999994       2081.66992       1.60977459    
  -4.56476784       3.05008101     -0.157000005       2081.66992       1.60977459    
  -3.05008101       4.56476784     -0.157000005       2551.70020       1.61724329    
  -2.64863706       3.96396494     -0.246999994       2551.70020       1.61724329    
  -3.37107491       3.37107491     -0.246999994       2551.70020       1.61724329    
  -3.88201594       3.88201594     -0.157000005       2551.70020       1.61724329    
  -2.10093188       5.07209921     -0.157000005       2892.67334       1.60973918    
  -1.82441294       4.40452194     -0.246999994       2892.67334       1.60973918    
  -2.64863706       3.96396494     -0.246999994       2892.67334       1.60973918    
  -3.05008101       4.56476784     -0.157000005       2892.67334       1.60973918    
  -1.07104599       5.38451099     -0.157000005       3157.31982       1.61691761    
 -0.930077016       4.67581606     -0.246999994       3157.31982       1.61691761    
  -1.82441294       4.40452194     -0.246999994       3157.31982       1.61691761    
  -2.10093188       5.07209921     -0.157000005       3157.31982       1.61691761    
   0.00000000       5.48999977     -0.157000005       3263.09668       1.60989130    
   0.00000000       4.76741982     -0.246999994       3263.09668       1.60989130    
 -0.930077016       4.67581606     -0.246999994       3263.09668       1.60989130    
  -1.07104599       5.38451099     -0.157000005       3263.09668       1.60989130    
   1.07104599       5.38451099     -0.157000005       3282.35620       1.61637986    
  0.930077016       4.67581606     -0.246999994       3282.35620       1.61637986    
   0.00000000       4.76741982     -0.246999994       3282.35620       1.61637986    
   0.00000000       5.48999977     -0.157000005       3282.35620       1.61637986    
   2.10093188       5.07209921     -0.157000005       3136.93677       1.61063695    
   1.82441294       4.40452194     -0.246999994       3136.93677       1.61063695    
  0.930077016       4.67581606     -0.246999994       3136.93677       1.61063695    
   1.07104599       5.38451099     -0.157000005       3136.93677       1.61063695    
   3.05008101       4.56476784     -0.157000005       2885.65991       1.61102581    
   2.64863706       3.96396494     -0.246999994       2885.65991       1.61102581    
   1.82441294       4.40452194     -0.246999994       2885.65991       1.61102581    
   2.10093188       5.07209921     -0.157000005       2885.65991       1.61102581    
   3.88201594       3.88201594     -0.157000005       2550.72974       1.61524308    
   3.37107491       3.37107491     -0.246999994       2550.72974       1.61524308    
   2.64863706       3.96396494     -0.246999994       2550.72974       1.61524308    
   3.05008101       4.56476784     -0.157000005       2550.72974       1.61524308    
   4.56476784       3.05008101     -0.157000005       2089.72021       1.61227751    
   3.96396494       2.64863706     -0.246999994       2089.72021       1.61227751    
   3.37107491       3.37107491     -0.246999994       2089.72021       1.61227751    
   3.88201594       3.88201594     -0.157000005       2089.72021       1.61227751    
   5.07209921       2.10093188     -0.157000005       1552.87598       1.61484098    
   4.40452194       1.82441294     -0.246999994       1552.87598       1.61484098    
   3.96396494       2.64863706     -0.246999994       1552.87598       1.61484098    
   4.56476784       3.05008101     -0.157000005       1552.87598       1.61484098    
   5.38451099       1.07104599     -0.157000005       949.764221       1.60972178    
   4.67581606      0.930077016     -0.246999994       949.764221       1.60972178    
   4.40452194       1.82441294     -0.246999994       949.764221       1.60972178    
   5.07209921       2.10093188     -0.157000005       949.764221       1.60972178    
   5.48999977       0.00000000     -0.157000005       318.215057       1.61143315    
   4.76741982       0.00000000     -0.246999994       318.215057       1.61143315    
   4.67581606      0.930077016     -0.246999994       318.215057       1.61143315    
   5.38451099       1.07104599     -0.157000005       318.215057       1.61143315    
   5.38451099      -1.07104599     -0.157000005       322.240967      -1.52625370    
   4.67581606     -0.930077016     -0.246999994       322.240967      -1.52625370    
   4.76741982       0.00000000     -0.246999994       322.240967      -1.52625370    
   5.48999977       0.00000000     -0.157000005       322.240967      -1.52625370    
   5.07209921      -2.10093188     -0.157000005       953.646912      -1.53079236    
   4.40452194      -1.82441294     -0.246999994       953.646912      -1.53079236    
   4.67581606     -0.930077016     -0.246999994       953.646912      -1.53079236    
   5.38451099      -1.07104599     -0.157000005       953.646912      -1.53079236    
   4.56476784      -3.05008101     -0.157000005       1545.02686      -1.52926493    
   3.96396494      -2.64863706     -0.246999994       1545.02686      -1.52926493    
   4.40452194      -1.82441294     -0.246999994       1545.02686      -1.52926493    
   5.07209921      -2.10093188     -0.157000005       1545.02686      -1.52926493    
   3.88201594      -3.88201594     -0.157000005       2079.68140      -1.53130734    
   3.37107491      -3.37107491     -0.246999994       2079.68140      -1.53130734    
   3.96396494      -2.64863706     -0.246999994       2079.68140      -1.53130734    
   4.56476784      -3.05008101     -0.157000005       2079.68140      -1.53130734    
   3.05008101      -4.56476784     -0.157000005       2553.54834      -1.52514446    
   2.64863706      -3.96396494     -0.246999994       2553.54834      -1.52514446    
   3.37107491      -3.37107491     -0.246999994       2553.54834      -1.52514446    
   3.88201594      -3.88201594     -0.157000005       2553.54834      -1.52514446    
   2.10093188      -5.07209921     -0.157000005       2890.55396      -1.53074741    
   1.82441294      -4.40452194     -0.246999994       2890.55396      -1.53074741    
   2.64863706      -3.96396494     -0.246999994       2890.55396      -1.53074741    
   3.05008101      -4.56476784     -0.157000005       2890.55396      -1.53074741    
   1.07104599      -5.38451099     -0.157000005       3134.35742      -1.53019953    
  0.930077016      -4.67581606     -0.246999994       3134.35742      -1.53019953    
   1.82441294      -4.40452194     -0.246999994       3134.35742      -1.53019953    
   2.10093188      -5.07209921     -0.157000005       3134.35742      -1.53019953    
   0.00000000      -1.87709999     -0.606999993       1217.69775       1.56961930    
   0.00000000      -1.36500001     -0.606999993       1217.69775       1.56961930    
  0.266297996      -1.33877206     -0.606999993       1217.69775       1.56961930    
  0.366203994      -1.84103203     -0.606999993       1217.69775       1.56961930    
   0.00000000      -1.87709999     -0.606999993       2955.73853       1.57154644    
   0.00000000      -2.59967995     -0.517000020       2955.73853       1.57154644    
 -0.507171988      -2.54972792     -0.517000020       2955.73853       1.57154644    
 -0.366203994      -1.84103203     -0.606999993       2955.73853       1.57154644    
 -0.366203994      -1.84103203     -0.606999993       1218.73059       1.56962121    
 -0.266297996      -1.33877206     -0.606999993       1218.73059       1.56962121    
   0.00000000      -1.36500001     -0.606999993       1218.73059       1.56962121    
   0.00000000      -1.87709999     -0.606999993       1218.73059       1.56962121    
 -0.366203994      -1.84103203     -0.606999993       2840.13330       1.57157981    
 -0.507171988      -2.54972792     -0.517000020       2840.13330       1.57157981    
 -0.994853973      -2.40179110     -0.517000020       2840.13330       1.57157981    
 -0.718334973      -1.73421395     -0.606999993       2840.13330       1.57157981    
 -0.718334973      -1.73421395     -0.606999993       1172.21887       1.56974947    
 -0.522363007      -1.26109600     -0.606999993       1172.21887       1.56974947    
 -0.266297996      -1.33877206     -0.606999993       1172.21887       1.56974947    
 -0.366203994      -1.84103203     -0.606999993       1172.21887       1.56974947    
 -0.718334973      -1.73421395     -0.606999993       2616.81323       1.57162225    
 -0.994853973      -2.40179110     -0.517000020       2616.81323       1.57162225    
  -1.44430494      -2.16155505     -0.517000020       2616.81323       1.57162225    
  -1.04286098      -1.56075203     -0.606999993       2616.81323       1.57162225    
  -1.04286098      -1.56075203     -0.606999993       1081.45789       1.56988931    
 -0.758352995      -1.13495600     -0.606999993       1081.45789       1.56988931    
 -0.522363007      -1.26109600     -0.606999993       1081.45789       1.56988931    
 -0.718334973      -1.73421395     -0.606999993       1081.45789       1.56988931    
  -1.04286098      -1.56075203     -0.606999993       2295.96484       1.57163930    
  -1.44430494      -2.16155505     -0.517000020       2295.96484       1.57163930    
  -1.83825099      -1.83825099     -0.517000020       2295.96484       1.57163930    
  -1.32730997      -1.32730997     -0.606999993       2295.96484       1.57163930    
  -1.32730997      -1.32730997     -0.606999993       951.020081       1.56997740    
 -0.965201020     -0.965201020     -0.606999993       951.020081       1.56997740    
 -0.758352995      -1.13495600     -0.606999993       951.020081       1.56997740    
  -1.04286098      -1.56075203     -0.606999993       951.020081       1.56997740    
  -1.32730997      -1.32730997     -0.606999993       1888.03137       1.57162082    
  -1.83825099      -1.83825099     -0.517000020       1888.03137       1.57162082    
  -2.16155505      -1.44430494     -0.517000020       1888.03137       1.57162082    
  -1.56075203      -1.04286098     -0.606999993       1888.03137       1.57162082    
  -1.56075203      -1.04286098     -0.606999993       785.082764       1.56994653    
  -1.13495600     -0.758352995     -0.606999993       785.082764       1.56994653    
 -0.965201020     -0.965201020     -0.606999993       785.082764       1.56994653    
  -1.32730997      -1.32730997     -0.606999993       785.082764       1.56994653    
  -1.56075203      -1.04286098     -0.606999993       1405.82825       1.57158649    
  -2.16155505      -1.44430494     -0.517000020       1405.82825       1.57158649    
  -2.40179110     -0.994853973     -0.517000020       1405.82825       1.57158649    
  -1.73421395     -0.718334973     -0.606999993       1405.82825       1.57158649    
  -1.73421395     -0.718334973     -0.606999993       587.753357       1.56980050    
  -1.26109600     -0.522363007     -0.606999993       587.753357       1.56980050    
  -1.13495600     -0.758352995     -0.606999993       587.753357       1.56980050    
  -1.56075203      -1.04286098     -0.606999993       587.753357       1.56980050    
  -1.73421395     -0.718334973     -0.606999993       866.584656       1.57153189    
  -2.40179110     -0.994853973     -0.517000020       866.584656       1.57153189    
  -2.54972792     -0.507171988     -0.517000020       866.584656       1.57153189    
  -1.84103203     -0.366203994     -0.606999993       866.584656       1.57153189    
  -1.84103203     -0.366203994     -0.606999993       364.419312       1.56956553    
  -1.33877206     -0.266297996     -0.606999993       364.419312       1.56956553    
  -1.26109600     -0.522363007     -0.606999993       364.419312       1.56956553    
  -1.73421395     -0.718334973     -0.606999993       364.419312       1.56956553    
  -1.84103203     -0.366203994     -0.606999993       292.832611       1.57133114    
  -2.54972792     -0.507171988     -0.517000020       292.832611       1.57133114    
  -2.59967995       0.00000000     -0.517000020       292.832611       1.57133114    
  -1.87709999       0.00000000     -0.606999993       292.832611       1.57133114    
  -1.87709999       0.00000000     -0.606999993       124.127586       1.56900692    
  -1.36500001       0.00000000     -0.606999993       124.127586       1.56900692    
  -1.33877206     -0.266297996     -0.606999993       124.127586       1.56900692    
  -1.84103203     -0.366203994     -0.606999993       124.127586       1.56900692    
  -1.87709999       0.00000000     -0.606999993       291.952148      -1.56964552    
  -2.59967995       0.00000000     -0.517000020       291.952148      -1.56964552    
  -2.54972792      0.507171988     -0.517000020       291.952148      -1.56964552    
  -1.84103203      0.366203994     -0.606999993       291.952148      -1.56964552    
  -1.84103203      0.366203994     -0.606999993       121.905266      -1.57111132    
  -1.33877206      0.266297996     -0.606999993       121.905266      -1.57111132    
  -1.36500001       0.00000000     -0.606999993       121.905266      -1.57111132    
  -1.87709999       0.00000000     -0.606999993       121.905266      -1.57111132    
  -1.84103203      0.366203994     -0.606999993       865.375183      -1.56986201    
  -2.54972792      0.507171988     -0.517000020       865.375183      -1.56986201    
  -2.40179110      0.994853973     -0.517000020       865.375183      -1.56986201    
  -1.73421395      0.718334973     -0.606999993       865.375183      -1.56986201    
  -1.73421395      0.718334973     -0.606999993       362.236115      -1.57156181    
  -1.26109600      0.522363007     -0.606999993       362.236115      -1.57156181    
  -1.33877206      0.266297996     -0.606999993       362.236115      -1.57156181    
  -1.84103203      0.366203994     -0.606999993       362.236115      -1.57156181    
  -1.73421395      0.718334973     -0.606999993       1404.48840      -1.56989217    
  -2.40179110      0.994853973     -0.517000020       1404.48840      -1.56989217    
  -2.16155505       1.44430494     -0.517000020       1404.48840      -1.56989217    
  -1.56075203       1.04286098     -0.606999993       1404.48840      -1.56989217    
  -1.56075203       1.04286098     -0.606999993       585.831177      -1.57153749    
  -1.13495600      0.758352995     -0.606999993       585.831177      -1.57153749    
  -1.26109600      0.522363007     -0.606999993       585.831177      -1.57153749    
  -1.73421395      0.718334973     -0.606999993       585.831177      -1.57153749    
  -1.56075203       1.04286098     -0.606999993       1886.43713      -1.56989193    
  -2.16155505       1.44430494     -0.517000020       1886.43713      -1.56989193    
  -1.83825099       1.83825099     -0.517000020       1886.43713      -1.56989193    
  -1.32730997       1.32730997     -0.606999993       1886.43713      -1.56989193    
  -1.32730997       1.32730997     -0.606999993       783.335571      -1.57148647    
 -0.965201020      0.965201020     -0.606999993       783.335571      -1.57148647    
  -1.13495600      0.758352995     -0.606999993       783.335571      -1.57148647    
  -1.56075203       1.04286098     -0.606999993       783.335571      -1.57148647    
  -1.32730997       1.32730997     -0.606999993       2293.57275      -1.56989062    
  -1.83825099       1.83825099     -0.517000020       2293.57275      -1.56989062    
  -1.44430494       2.16155505     -0.517000020       2293.57275      -1.56989062    
  -1.04286098       1.56075203     -0.606999993       2293.57275      -1.56989062    
  -1.04286098       1.56075203     -0.606999993       948.604248      -1.57148182    
 -0.758352995       1.13495600     -0.606999993       948.604248      -1.57148182    
 -0.965201020      0.965201020     -0.606999993       948.604248      -1.57148182    
  -1.32730997       1.32730997     -0.606999993       948.604248      -1.57148182    
  -1.04286098       1.56075203     -0.606999993       2613.66699      -1.56990898    
  -1.44430494       2.16155505     -0.517000020       2613.66699      -1.56990898    
 -0.994853973       2.40179110     -0.517000020       2613.66699      -1.56990898    
 -0.718334973       1.73421395     -0.606999993       2613.66699      -1.56990898    
 -0.718334973       1.73421395     -0.606999993       1078.30078      -1.57156444    
 -0.522363007       1.26109600     -0.606999993       1078.30078      -1.57156444    
 -0.758352995       1.13495600     -0.606999993       1078.30078      -1.57156444    
  -1.04286098       1.56075203     -0.606999993       1078.30078      -1.57156444    
 -0.718334973       1.73421395     -0.606999993       2836.98804      -1.56994486    
 -0.994853973       2.40179110     -0.517000020       2836.98804      -1.56994486    
 -0.507171988       2.54972792     -0.517000020       2836.98804      -1.56994486    
 -0.366203994       1.84103203     -0.606999993       2836.98804      -1.56994486    
 -0.366203994       1.84103203     -0.606999993       1169.35498      -1.57169938    
 -0.266297996       1.33877206     -0.606999993       1169.35498      -1.57169938    
 -0.522363007       1.26109600     -0.606999993       1169.35498      -1.57169938    
 -0.718334973       1.73421395     -0.606999993       1169.35498      -1.57169938    
 -0.366203994       1.84103203     -0.606999993       2953.27344      -1.56998158    
 -0.507171988       2.54972792     -0.517000020       2953.27344      -1.56998158    
   0.00000000       2.59967995     -0.517000020       2953.27344      -1.56998158    
   0.00000000       1.87709999     -0.606999993       2953.27344      -1.56998158    
   0.00000000       1.87709999     -0.606999993       1217.51538      -1.57181513    
   0.00000000       1.36500001     -0.606999993       1217.51538      -1.57181513    
 -0.266297996       1.33877206     -0.606999993       1217.51538      -1.57181513    
 -0.366203994       1.84103203     -0.606999993       1217.51538      -1.57181513    
   0.00000000       1.87709999     -0.606999993       2953.87085      -1.56999099    
   0.00000000       2.59967995     -0.517000020       2953.87085      -1.56999099    
  0.507171988       2.54972792     -0.517000020       2953.87085      -1.56999099    
  0.366203994       1.84103203     -0.606999993       2953.87085      -1.56999099    
  0.366203994       1.84103203     -0.606999993       1218.94714      -1.57182157    
  0.266297996       1.33877206     -0.606999993       1218.94714      -1.57182157    
   0.00000000       1.36500001     -0.606999993       1218.94714      -1.57182157    
   0.00000000       1.87709999     -0.606999993       1218.94714      -1.57182157    
  0.366203994       1.84103203     -0.606999993       2838.54028      -1.56997108    
  0.507171988       2.54972792     -0.517000020       2838.54028      -1.56997108    
  0.994853973       2.40179110     -0.517000020       2838.54028      -1.56997108    
  0.718334973       1.73421395     -0.606999993       2838.54028      -1.56997108    
  0.718334973       1.73421395     -0.606999993       1173.12878      -1.57172430    
  0.522363007       1.26109600     -0.606999993       1173.12878      -1.57172430    
  0.266297996       1.33877206     -0.606999993       1173.12878      -1.57172430    
  0.366203994       1.84103203     -0.606999993       1173.12878      -1.57172430    
  0.718334973       1.73421395     -0.606999993       2615.50879      -1.56994414    
  0.994853973       2.40179110     -0.517000020       2615.50879      -1.56994414    
   1.44430494       2.16155505     -0.517000020       2615.50879      -1.56994414    
   1.04286098       1.56075203     -0.606999993       2615.50879      -1.56994414    
   1.04286098       1.56075203     -0.606999993       1082.99585      -1.57162035    
  0.758352995       1.13495600     -0.606999993       1082.99585      -1.57162035    
  0.522363007       1.26109600     -0.606999993       1082.99585      -1.57162035    
  0.718334973       1.73421395     -0.606999993       1082.99585      -1.57162035    
   1.04286098       1.56075203     -0.606999993       2294.81006      -1.56993711    
   1.44430494       2.16155505     -0.517000020       2294.81006      -1.56993711    
   1.83825099       1.83825099     -0.517000020       2294.81006      -1.56993711    
   1.32730997       1.32730997     -0.606999993       2294.81006      -1.56993711    
   1.32730997       1.32730997     -0.606999993       952.642029      -1.57154787    
  0.965201020      0.965201020     -0.606999993       952.642029      -1.57154787    
  0.758352995       1.13495600     -0.606999993       952.642029      -1.57154787    
   1.04286098       1.56075203     -0.606999993       952.642029      -1.57154787    
   1.32730997       1.32730997     -0.606999993       1886.65552      -1.56994295    
   1.83825099       1.83825099     -0.517000020       1886.65552      -1.56994295    
   2.16155505       1.44430494     -0.517000020       1886.65552      -1.56994295    
   1.56075203       1.04286098     -0.606999993       1886.65552      -1.56994295    
   1.56075203       1.04286098     -0.606999993       785.521667      -1.57154620    
   1.13495600      0.758352995     -0.606999993       785.521667      -1.57154620    
  0.965201020      0.965201020     -0.606999993       785.521667      -1.57154620    
   1.32730997       1.32730997     -0.606999993       785.521667      -1.57154620    
   1.56075203       1.04286098     -0.606999993       1403.86536      -1.56994438    
   2.16155505       1.44430494     -0.517000020       1403.86536      -1.56994438    
   2.40179110      0.994853973     -0.517000020       1403.86536      -1.56994438    
   1.73421395      0.718334973     -0.606999993       1403.86536      -1.56994438    
   1.73421395      0.718334973     -0.606999993       586.707336      -1.57160056    
   1.26109600      0.522363007     -0.606999993       586.707336      -1.57160056    
   1.13495600      0.758352995     -0.606999993       586.707336      -1.57160056    
   1.56075203       1.04286098     -0.606999993       586.707336      -1.57160056    
   1.73421395      0.718334973     -0.606999993       864.427551      -1.56993127    
   2.40179110      0.994853973     -0.517000020       864.427551      -1.56993127    
   2.54972792      0.507171988     -0.517000020       864.427551      -1.56993127    
   1.84103203      0.366203994     -0.606999993       864.427551      -1.56993127    
   1.84103203      0.366203994     -0.606999993       363.143799      -1.57162619    
   1.33877206      0.266297996     -0.606999993       363.143799      -1.57162619    
   1.26109600      0.522363007     -0.606999993       363.143799      -1.57162619    
   1.73421395      0.718334973     -0.606999993       363.143799      -1.57162619    
   1.84103203      0.366203994     -0.606999993       291.092255      -1.56991720    
   2.54972792      0.507171988     -0.517000020       291.092255      -1.56991720    
   2.59967995       0.00000000     -0.517000020       291.092255      -1.56991720    
   1.87709999       0.00000000     -0.606999993       291.092255      -1.56991720    
   1.87709999       0.00000000     -0.606999993       123.400787      -1.57132983    
   1.36500001       0.00000000     -0.606999993       123.400787      -1.57132983    
   1.33877206      0.266297996     -0.606999993       123.400787      -1.57132983    
   1.84103203      0.366203994     -0.606999993       123.400787      -1.57132983    
   1.87709999       0.00000000     -0.606999993       293.359711       1.57163012    
   2.59967995       0.00000000     -0.517000020       293.359711       1.57163012    
   2.54972792     -0.507171988     -0.517000020       293.359711       1.57163012    
   1.84103203     -0.366203994     -0.606999993       293.359711       1.57163012    
   1.84103203     -0.366203994     -0.606999993       121.975960       1.56923902    
   1.33877206     -0.266297996     -0.606999993       121.975960       1.56923902    
   1.36500001       0.00000000     -0.606999993       121.975960       1.56923902    
   1.87709999       0.00000000     -0.606999993       121.975960       1.56923902    
   1.84103203     -0.366203994     -0.606999993       866.683044       1.57162893    
   2.54972792     -0.507171988     -0.517000020       866.683044       1.57162893    
   2.40179110     -0.994853973     -0.517000020       866.683044       1.57162893    
   1.73421395     -0.718334973     -0.606999993       866.683044       1.57162893    
   1.73421395     -0.718334973     -0.606999993       361.686523       1.56966865    
   1.26109600     -0.522363007     -0.606999993       361.686523       1.56966865    
   1.33877206     -0.266297996     -0.606999993       361.686523       1.56966865    
   1.84103203     -0.366203994     -0.606999993       361.686523       1.56966865    
   1.73421395     -0.718334973     -0.606999993       1405.50208       1.57163239    
   2.40179110     -0.994853973     -0.517000020       1405.50208       1.57163239    
   2.16155505      -1.44430494     -0.517000020       1405.50208       1.57163239    
   1.56075203      -1.04286098     -0.606999993       1405.50208       1.57163239    
   1.56075203      -1.04286098     -0.606999993       584.728027       1.56986654    
   1.13495600     -0.758352995     -0.606999993       584.728027       1.56986654    
   1.26109600     -0.522363007     -0.606999993       584.728027       1.56986654    