 VARIABLES="X" "Y" "Z" "abs(p) (Pa)" "angle(p) (rad)"
ZONE N=   2709,E =    2358, F=FEPOINT, ET=QUADRILATERAL
   0.00000000      -5.48999977     -0.157000005       102.530663       1.57316411    
   0.00000000      -4.76741982     -0.246999994       102.530663       1.57316411    
  0.930077016      -4.67581606     -0.246999994       102.530663       1.57316411    
   1.07104599      -5.38451099     -0.157000005       102.530663       1.57316411    
  -1.07104599      -5.38451099     -0.157000005       102.351990       1.57316685    
 -0.930077016      -4.67581606     -0.246999994       102.351990       1.57316685    
   0.00000000      -4.76741982     -0.246999994       102.351990       1.57316685    
   0.00000000      -5.48999977     -0.157000005       102.351990       1.57316685    
  -2.10093188      -5.07209921     -0.157000005       97.3906784       1.57320738    
  -1.82441294      -4.40452194     -0.246999994       97.3906784       1.57320738    
 -0.930077016      -4.67581606     -0.246999994       97.3906784       1.57320738    
  -1.07104599      -5.38451099     -0.157000005       97.3906784       1.57320738    
  -3.05008101      -4.56476784     -0.157000005       90.5734024       1.57322884    
  -2.64863706      -3.96396494     -0.246999994       90.5734024       1.57322884    
  -1.82441294      -4.40452194     -0.246999994       90.5734024       1.57322884    
  -2.10093188      -5.07209921     -0.157000005       90.5734024       1.57322884    
  -3.88201594      -3.88201594     -0.157000005       79.3794174       1.57330418    
  -3.37107491      -3.37107491     -0.246999994       79.3794174       1.57330418    
  -2.64863706      -3.96396494     -0.246999994       79.3794174       1.57330418    
  -3.05008101      -4.56476784     -0.157000005       79.3794174       1.57330418    
  -4.56476784      -3.05008101     -0.157000005       64.2938919       1.57346845    
  -3.96396494      -2.64863706     -0.246999994       64.2938919       1.57346845    
  -3.37107491      -3.37107491     -0.246999994       64.2938919       1.57346845    
  -3.88201594      -3.88201594     -0.157000005       64.2938919       1.57346845    
  -5.07209921      -2.10093188     -0.157000005       48.2477798       1.57370019    
  -4.40452194      -1.82441294     -0.246999994       48.2477798       1.57370019    
  -3.96396494      -2.64863706     -0.246999994       48.2477798       1.57370019    
  -4.56476784      -3.05008101     -0.157000005       48.2477798       1.57370019    
  -5.38451099      -1.07104599     -0.157000005       29.7632542       1.57431555    
  -4.67581606     -0.930077016     -0.246999994       29.7632542       1.57431555    
  -4.40452194      -1.82441294     -0.246999994       29.7632542       1.57431555    
  -5.07209921      -2.10093188     -0.157000005       29.7632542       1.57431555    
  -5.48999977       0.00000000     -0.157000005       9.94141197       1.57755506    
  -4.76741982       0.00000000     -0.246999994       9.94141197       1.57755506    
  -4.67581606     -0.930077016     -0.246999994       9.94141197       1.57755506    
  -5.38451099      -1.07104599     -0.157000005       9.94141197       1.57755506    
  -5.38451099       1.07104599     -0.157000005       9.93932343      -1.57371998    
  -4.67581606      0.930077016     -0.246999994       9.93932343      -1.57371998    
  -4.76741982       0.00000000     -0.246999994       9.93932343      -1.57371998    
  -5.48999977       0.00000000     -0.157000005       9.93932343      -1.57371998    
  -5.07209921       2.10093188     -0.157000005       29.3965969      -1.57051134    
  -4.40452194       1.82441294     -0.246999994       29.3965969      -1.57051134    
  -4.67581606      0.930077016     -0.246999994       29.3965969      -1.57051134    
  -5.38451099       1.07104599     -0.157000005       29.3965969      -1.57051134    
  -4.56476784       3.05008101     -0.157000005       47.8150558      -1.56988287    
  -3.96396494       2.64863706     -0.246999994       47.8150558      -1.56988287    
  -4.40452194       1.82441294     -0.246999994       47.8150558      -1.56988287    
  -5.07209921       2.10093188     -0.157000005       47.8150558      -1.56988287    
  -3.88201594       3.88201594     -0.157000005       64.9736786      -1.56963336    
  -3.37107491       3.37107491     -0.246999994       64.9736786      -1.56963336    
  -3.96396494       2.64863706     -0.246999994       64.9736786      -1.56963336    
  -4.56476784       3.05008101     -0.157000005       64.9736786      -1.56963336    
  -3.05008101       4.56476784     -0.157000005       78.4928894      -1.56949222    
  -2.64863706       3.96396494     -0.246999994       78.4928894      -1.56949222    
  -3.37107491       3.37107491     -0.246999994       78.4928894      -1.56949222    
  -3.88201594       3.88201594     -0.157000005       78.4928894      -1.56949222    
  -2.10093188       5.07209921     -0.157000005       90.2866516      -1.56942701    
  -1.82441294       4.40452194     -0.246999994       90.2866516      -1.56942701    
  -2.64863706       3.96396494     -0.246999994       90.2866516      -1.56942701    
  -3.05008101       4.56476784     -0.157000005       90.2866516      -1.56942701    
  -1.07104599       5.38451099     -0.157000005       97.0923080      -1.56937516    
 -0.930077016       4.67581606     -0.246999994       97.0923080      -1.56937516    
  -1.82441294       4.40452194     -0.246999994       97.0923080      -1.56937516    
  -2.10093188       5.07209921     -0.157000005       97.0923080      -1.56937516    
   0.00000000       5.48999977     -0.157000005       101.790649      -1.56936693    
   0.00000000       4.76741982     -0.246999994       101.790649      -1.56936693    
 -0.930077016       4.67581606     -0.246999994       101.790649      -1.56936693    
  -1.07104599       5.38451099     -0.157000005       101.790649      -1.56936693    
   1.07104599       5.38451099     -0.157000005       100.899788      -1.56935728    
  0.930077016       4.67581606     -0.246999994       100.899788      -1.56935728    
   0.00000000       4.76741982     -0.246999994       100.899788      -1.56935728    
   0.00000000       5.48999977     -0.157000005       100.899788      -1.56935728    
   2.10093188       5.07209921     -0.157000005       97.9235458      -1.56938887    
   1.82441294       4.40452194     -0.246999994       97.9235458      -1.56938887    
  0.930077016       4.67581606     -0.246999994       97.9235458      -1.56938887    
   1.07104599       5.38451099     -0.157000005       97.9235458      -1.56938887    
   3.05008101       4.56476784     -0.157000005       90.2377243      -1.56943202    
   2.64863706       3.96396494     -0.246999994       90.2377243      -1.56943202    
   1.82441294       4.40452194     -0.246999994       90.2377243      -1.56943202    
   2.10093188       5.07209921     -0.157000005       90.2377243      -1.56943202    
   3.88201594       3.88201594     -0.157000005       78.1167755      -1.56949496    
   3.37107491       3.37107491     -0.246999994       78.1167755      -1.56949496    
   2.64863706       3.96396494     -0.246999994       78.1167755      -1.56949496    
   3.05008101       4.56476784     -0.157000005       78.1167755      -1.56949496    
   4.56476784       3.05008101     -0.157000005       64.0877304      -1.56963301    
   3.96396494       2.64863706     -0.246999994       64.0877304      -1.56963301    
   3.37107491       3.37107491     -0.246999994       64.0877304      -1.56963301    
   3.88201594       3.88201594     -0.157000005       64.0877304      -1.56963301    
   5.07209921       2.10093188     -0.157000005       47.3259506      -1.56989539    
   4.40452194       1.82441294     -0.246999994       47.3259506      -1.56989539    
   3.96396494       2.64863706     -0.246999994       47.3259506      -1.56989539    
   4.56476784       3.05008101     -0.157000005       47.3259506      -1.56989539    
   5.38451099       1.07104599     -0.157000005       29.2973595      -1.57054567    
   4.67581606      0.930077016     -0.246999994       29.2973595      -1.57054567    
   4.40452194       1.82441294     -0.246999994       29.2973595      -1.57054567    
   5.07209921       2.10093188     -0.157000005       29.2973595      -1.57054567    
   5.48999977       0.00000000     -0.157000005       9.65881538      -1.57391965    
   4.76741982       0.00000000     -0.246999994       9.65881538      -1.57391965    
   4.67581606      0.930077016     -0.246999994       9.65881538      -1.57391965    
   5.38451099       1.07104599     -0.157000005       9.65881538      -1.57391965    
   5.38451099      -1.07104599     -0.157000005       10.4592190       1.57733250    
   4.67581606     -0.930077016     -0.246999994       10.4592190       1.57733250    
   4.76741982       0.00000000     -0.246999994       10.4592190       1.57733250    
   5.48999977       0.00000000     -0.157000005       10.4592190       1.57733250    
   5.07209921      -2.10093188     -0.157000005       30.2084198       1.57430017    
   4.40452194      -1.82441294     -0.246999994       30.2084198       1.57430017    
   4.67581606     -0.930077016     -0.246999994       30.2084198       1.57430017    
   5.38451099      -1.07104599     -0.157000005       30.2084198       1.57430017    
   4.56476784      -3.05008101     -0.157000005       48.8167152       1.57368827    
   3.96396494      -2.64863706     -0.246999994       48.8167152       1.57368827    
   4.40452194      -1.82441294     -0.246999994       48.8167152       1.57368827    
   5.07209921      -2.10093188     -0.157000005       48.8167152       1.57368827    
   3.88201594      -3.88201594     -0.157000005       65.4689865       1.57343757    
   3.37107491      -3.37107491     -0.246999994       65.4689865       1.57343757    
   3.96396494      -2.64863706     -0.246999994       65.4689865       1.57343757    
   4.56476784      -3.05008101     -0.157000005       65.4689865       1.57343757    
   3.05008101      -4.56476784     -0.157000005       78.9178391       1.57332563    
   2.64863706      -3.96396494     -0.246999994       78.9178391       1.57332563    
   3.37107491      -3.37107491     -0.246999994       78.9178391       1.57332563    
   3.88201594      -3.88201594     -0.157000005       78.9178391       1.57332563    
   2.10093188      -5.07209921     -0.157000005       90.8494415       1.57322788    
   1.82441294      -4.40452194     -0.246999994       90.8494415       1.57322788    
   2.64863706      -3.96396494     -0.246999994       90.8494415       1.57322788    
   3.05008101      -4.56476784     -0.157000005       90.8494415       1.57322788    
   1.07104599      -5.38451099     -0.157000005       98.6549835       1.57318294    
  0.930077016      -4.67581606     -0.246999994       98.6549835       1.57318294    
   1.82441294      -4.40452194     -0.246999994       98.6549835       1.57318294    
   2.10093188      -5.07209921     -0.157000005       98.6549835       1.57318294    
   0.00000000      -1.87709999     -0.606999993       410.883545      -1.57102466    
   0.00000000      -1.36500001     -0.606999993       410.883545      -1.57102466    
  0.266297996      -1.33877206     -0.606999993       410.883545      -1.57102466    
  0.366203994      -1.84103203     -0.606999993       410.883545      -1.57102466    
   0.00000000      -1.87709999     -0.606999993       164.557800      -1.57160652    
   0.00000000      -2.59967995     -0.517000020       164.557800      -1.57160652    
 -0.507171988      -2.54972792     -0.517000020       164.557800      -1.57160652    
 -0.366203994      -1.84103203     -0.606999993       164.557800      -1.57160652    
 -0.366203994      -1.84103203     -0.606999993       411.259735      -1.57102454    
 -0.266297996      -1.33877206     -0.606999993       411.259735      -1.57102454    
   0.00000000      -1.36500001     -0.606999993       411.259735      -1.57102454    
   0.00000000      -1.87709999     -0.606999993       411.259735      -1.57102454    
 -0.366203994      -1.84103203     -0.606999993       158.065033      -1.57162035    
 -0.507171988      -2.54972792     -0.517000020       158.065033      -1.57162035    
 -0.994853973      -2.40179110     -0.517000020       158.065033      -1.57162035    
 -0.718334973      -1.73421395     -0.606999993       158.065033      -1.57162035    
 -0.718334973      -1.73421395     -0.606999993       395.585297      -1.57102966    
 -0.522363007      -1.26109600     -0.606999993       395.585297      -1.57102966    
 -0.266297996      -1.33877206     -0.606999993       395.585297      -1.57102966    
 -0.366203994      -1.84103203     -0.606999993       395.585297      -1.57102966    
 -0.718334973      -1.73421395     -0.606999993       145.521027      -1.57164931    
 -0.994853973      -2.40179110     -0.517000020       145.521027      -1.57164931    
  -1.44430494      -2.16155505     -0.517000020       145.521027      -1.57164931    
  -1.04286098      -1.56075203     -0.606999993       145.521027      -1.57164931    
  -1.04286098      -1.56075203     -0.606999993       364.696686      -1.57104063    
 -0.758352995      -1.13495600     -0.606999993       364.696686      -1.57104063    
 -0.522363007      -1.26109600     -0.606999993       364.696686      -1.57104063    
 -0.718334973      -1.73421395     -0.606999993       364.696686      -1.57104063    
  -1.04286098      -1.56075203     -0.606999993       127.789055      -1.57169604    
  -1.44430494      -2.16155505     -0.517000020       127.789055      -1.57169604    
  -1.83825099      -1.83825099     -0.517000020       127.789055      -1.57169604    
  -1.32730997      -1.32730997     -0.606999993       127.789055      -1.57169604    
  -1.32730997      -1.32730997     -0.606999993       319.972717      -1.57105958    
 -0.965201020     -0.965201020     -0.606999993       319.972717      -1.57105958    
 -0.758352995      -1.13495600     -0.606999993       319.972717      -1.57105958    
  -1.04286098      -1.56075203     -0.606999993       319.972717      -1.57105958    
  -1.32730997      -1.32730997     -0.606999993       105.521027      -1.57177067    
  -1.83825099      -1.83825099     -0.517000020       105.521027      -1.57177067    
  -2.16155505      -1.44430494     -0.517000020       105.521027      -1.57177067    
  -1.56075203      -1.04286098     -0.606999993       105.521027      -1.57177067    
  -1.56075203      -1.04286098     -0.606999993       263.193604      -1.57109129    
  -1.13495600     -0.758352995     -0.606999993       263.193604      -1.57109129    
 -0.965201020     -0.965201020     -0.606999993       263.193604      -1.57109129    
  -1.32730997      -1.32730997     -0.606999993       263.193604      -1.57109129    
  -1.56075203      -1.04286098     -0.606999993       79.2545700      -1.57190812    
  -2.16155505      -1.44430494     -0.517000020       79.2545700      -1.57190812    
  -2.40179110     -0.994853973     -0.517000020       79.2545700      -1.57190812    
  -1.73421395     -0.718334973     -0.606999993       79.2545700      -1.57190812    
  -1.73421395     -0.718334973     -0.606999993       196.516083      -1.57115102    
  -1.26109600     -0.522363007     -0.606999993       196.516083      -1.57115102    
  -1.13495600     -0.758352995     -0.606999993       196.516083      -1.57115102    
  -1.56075203      -1.04286098     -0.606999993       196.516083      -1.57115102    
  -1.73421395     -0.718334973     -0.606999993       49.7010269      -1.57224250    
  -2.40179110     -0.994853973     -0.517000020       49.7010269      -1.57224250    
  -2.54972792     -0.507171988     -0.517000020       49.7010269      -1.57224250    
  -1.84103203     -0.366203994     -0.606999993       49.7010269      -1.57224250    
  -1.84103203     -0.366203994     -0.606999993       122.203873      -1.57129478    
  -1.33877206     -0.266297996     -0.606999993       122.203873      -1.57129478    
  -1.26109600     -0.522363007     -0.606999993       122.203873      -1.57129478    
  -1.73421395     -0.718334973     -0.606999993       122.203873      -1.57129478    
  -1.84103203     -0.366203994     -0.606999993       17.9624882      -1.57386267    
  -2.54972792     -0.507171988     -0.517000020       17.9624882      -1.57386267    
  -2.59967995       0.00000000     -0.517000020       17.9624882      -1.57386267    
  -1.87709999       0.00000000     -0.606999993       17.9624882      -1.57386267    
  -1.87709999       0.00000000     -0.606999993       42.9639854      -1.57200181    
  -1.36500001       0.00000000     -0.606999993       42.9639854      -1.57200181    
  -1.33877206     -0.266297996     -0.606999993       42.9639854      -1.57200181    
  -1.84103203     -0.366203994     -0.606999993       42.9639854      -1.57200181    
  -1.87709999       0.00000000     -0.606999993       14.5947962       1.57342398    
  -2.59967995       0.00000000     -0.517000020       14.5947962       1.57342398    
  -2.54972792      0.507171988     -0.517000020       14.5947962       1.57342398    
  -1.84103203      0.366203994     -0.606999993       14.5947962       1.57342398    
  -1.84103203      0.366203994     -0.606999993       38.0466728       1.57191801    
  -1.33877206      0.266297996     -0.606999993       38.0466728       1.57191801    
  -1.36500001       0.00000000     -0.606999993       38.0466728       1.57191801    
  -1.87709999       0.00000000     -0.606999993       38.0466728       1.57191801    
  -1.84103203      0.366203994     -0.606999993       46.5648727       1.57126427    
  -2.54972792      0.507171988     -0.517000020       46.5648727       1.57126427    
  -2.40179110      0.994853973     -0.517000020       46.5648727       1.57126427    
  -1.73421395      0.718334973     -0.606999993       46.5648727       1.57126427    
  -1.73421395      0.718334973     -0.606999993       117.603951       1.57108295    
  -1.26109600      0.522363007     -0.606999993       117.603951       1.57108295    
  -1.33877206      0.266297996     -0.606999993       117.603951       1.57108295    
  -1.84103203      0.366203994     -0.606999993       117.603951       1.57108295    
  -1.73421395      0.718334973     -0.606999993       76.5467682       1.57087100    
  -2.40179110      0.994853973     -0.517000020       76.5467682       1.57087100    
  -2.16155505       1.44430494     -0.517000020       76.5467682       1.57087100    
  -1.56075203       1.04286098     -0.606999993       76.5467682       1.57087100    
  -1.56075203       1.04286098     -0.606999993       192.529922       1.57092643    
  -1.13495600      0.758352995     -0.606999993       192.529922       1.57092643    
  -1.26109600      0.522363007     -0.606999993       192.529922       1.57092643    
  -1.73421395      0.718334973     -0.606999993       192.529922       1.57092643    
  -1.56075203       1.04286098     -0.606999993       103.328880       1.57070959    
  -2.16155505       1.44430494     -0.517000020       103.328880       1.57070959    
  -1.83825099       1.83825099     -0.517000020       103.328880       1.57070959    
  -1.32730997       1.32730997     -0.606999993       103.328880       1.57070959    
  -1.32730997       1.32730997     -0.606999993       259.950714       1.57086229    
 -0.965201020      0.965201020     -0.606999993       259.950714       1.57086229    
  -1.13495600      0.758352995     -0.606999993       259.950714       1.57086229    
  -1.56075203       1.04286098     -0.606999993       259.950714       1.57086229    
  -1.32730997       1.32730997     -0.606999993       126.135071       1.57062840    
  -1.83825099       1.83825099     -0.517000020       126.135071       1.57062840    
  -1.44430494       2.16155505     -0.517000020       126.135071       1.57062840    
  -1.04286098       1.56075203     -0.606999993       126.135071       1.57062840    
  -1.04286098       1.56075203     -0.606999993       317.396393       1.57082951    
 -0.758352995       1.13495600     -0.606999993       317.396393       1.57082951    
 -0.965201020      0.965201020     -0.606999993       317.396393       1.57082951    
  -1.32730997       1.32730997     -0.606999993       317.396393       1.57082951    
  -1.04286098       1.56075203     -0.606999993       144.441422       1.57058573    
  -1.44430494       2.16155505     -0.517000020       144.441422       1.57058573    
 -0.994853973       2.40179110     -0.517000020       144.441422       1.57058573    
 -0.718334973       1.73421395     -0.606999993       144.441422       1.57058573    
 -0.718334973       1.73421395     -0.606999993       362.865631       1.57081163    
 -0.522363007       1.26109600     -0.606999993       362.865631       1.57081163    
 -0.758352995       1.13495600     -0.606999993       362.865631       1.57081163    
  -1.04286098       1.56075203     -0.606999993       362.865631       1.57081163    
 -0.718334973       1.73421395     -0.606999993       157.616257       1.57056475    
 -0.994853973       2.40179110     -0.517000020       157.616257       1.57056475    
 -0.507171988       2.54972792     -0.517000020       157.616257       1.57056475    
 -0.366203994       1.84103203     -0.606999993       157.616257       1.57056475    
 -0.366203994       1.84103203     -0.606999993       394.602753       1.57080221    
 -0.266297996       1.33877206     -0.606999993       394.602753       1.57080221    
 -0.522363007       1.26109600     -0.606999993       394.602753       1.57080221    
 -0.718334973       1.73421395     -0.606999993       394.602753       1.57080221    
 -0.366203994       1.84103203     -0.606999993       164.787613       1.57055652    
 -0.507171988       2.54972792     -0.517000020       164.787613       1.57055652    
   0.00000000       2.59967995     -0.517000020       164.787613       1.57055652    
   0.00000000       1.87709999     -0.606999993       164.787613       1.57055652    
   0.00000000       1.87709999     -0.606999993       411.227600       1.57079804    
   0.00000000       1.36500001     -0.606999993       411.227600       1.57079804    
 -0.266297996       1.33877206     -0.606999993       411.227600       1.57079804    
 -0.366203994       1.84103203     -0.606999993       411.227600       1.57079804    
   0.00000000       1.87709999     -0.606999993       165.208008       1.57055736    
   0.00000000       2.59967995     -0.517000020       165.208008       1.57055736    
  0.507171988       2.54972792     -0.517000020       165.208008       1.57055736    
  0.366203994       1.84103203     -0.606999993       165.208008       1.57055736    
  0.366203994       1.84103203     -0.606999993       411.860413       1.57079816    
  0.266297996       1.33877206     -0.606999993       411.860413       1.57079816    
   0.00000000       1.36500001     -0.606999993       411.860413       1.57079816    
   0.00000000       1.87709999     -0.606999993       411.860413       1.57079816    
  0.366203994       1.84103203     -0.606999993       158.857346       1.57056761    
  0.507171988       2.54972792     -0.517000020       158.857346       1.57056761    
  0.994853973       2.40179110     -0.517000020       158.857346       1.57056761    
  0.718334973       1.73421395     -0.606999993       158.857346       1.57056761    
  0.718334973       1.73421395     -0.606999993       396.470215       1.57080233    
  0.522363007       1.26109600     -0.606999993       396.470215       1.57080233    
  0.266297996       1.33877206     -0.606999993       396.470215       1.57080233    
  0.366203994       1.84103203     -0.606999993       396.470215       1.57080233    
  0.718334973       1.73421395     -0.606999993       146.466354       1.57059073    
  0.994853973       2.40179110     -0.517000020       146.466354       1.57059073    
   1.44430494       2.16155505     -0.517000020       146.466354       1.57059073    
   1.04286098       1.56075203     -0.606999993       146.466354       1.57059073    
   1.04286098       1.56075203     -0.606999993       365.872986       1.57081187    
  0.758352995       1.13495600     -0.606999993       365.872986       1.57081187    
  0.522363007       1.26109600     -0.606999993       365.872986       1.57081187    
  0.718334973       1.73421395     -0.606999993       365.872986       1.57081187    
   1.04286098       1.56075203     -0.606999993       128.866867       1.57063508    
   1.44430494       2.16155505     -0.517000020       128.866867       1.57063508    
   1.83825099       1.83825099     -0.517000020       128.866867       1.57063508    
   1.32730997       1.32730997     -0.606999993       128.866867       1.57063508    
   1.32730997       1.32730997     -0.606999993       321.415100       1.57082975    
  0.965201020      0.965201020     -0.606999993       321.415100       1.57082975    
  0.758352995       1.13495600     -0.606999993       321.415100       1.57082975    
   1.04286098       1.56075203     -0.606999993       321.415100       1.57082975    
   1.32730997       1.32730997     -0.606999993       106.626656       1.57071698    
   1.83825099       1.83825099     -0.517000020       106.626656       1.57071698    
   2.16155505       1.44430494     -0.517000020       106.626656       1.57071698    
   1.56075203       1.04286098     -0.606999993       106.626656       1.57071698    
   1.56075203       1.04286098     -0.606999993       264.742889       1.57086194    
   1.13495600      0.758352995     -0.606999993       264.742889       1.57086194    
  0.965201020      0.965201020     -0.606999993       264.742889       1.57086194    
   1.32730997       1.32730997     -0.606999993       264.742889       1.57086194    
   1.56075203       1.04286098     -0.606999993       80.2021713       1.57087421    
   2.16155505       1.44430494     -0.517000020       80.2021713       1.57087421    
   2.40179110      0.994853973     -0.517000020       80.2021713       1.57087421    
   1.73421395      0.718334973     -0.606999993       80.2021713       1.57087421    
   1.73421395      0.718334973     -0.606999993       197.708817       1.57092404    
   1.26109600      0.522363007     -0.606999993       197.708817       1.57092404    
   1.13495600      0.758352995     -0.606999993       197.708817       1.57092404    
   1.56075203       1.04286098     -0.606999993       197.708817       1.57092404    
   1.73421395      0.718334973     -0.606999993       50.3712196       1.57123983    
   2.40179110      0.994853973     -0.517000020       50.3712196       1.57123983    
   2.54972792      0.507171988     -0.517000020       50.3712196       1.57123983    
   1.84103203      0.366203994     -0.606999993       50.3712196       1.57123983    
   1.84103203      0.366203994     -0.606999993       122.902863       1.57107174    
   1.33877206      0.266297996     -0.606999993       122.902863       1.57107174    
   1.26109600      0.522363007     -0.606999993       122.902863       1.57107174    
   1.73421395      0.718334973     -0.606999993       122.902863       1.57107174    
   1.84103203      0.366203994     -0.606999993       18.3851719       1.57291317    
   2.54972792      0.507171988     -0.517000020       18.3851719       1.57291317    
   2.59967995       0.00000000     -0.517000020       18.3851719       1.57291317    
   1.87709999       0.00000000     -0.606999993       18.3851719       1.57291317    
   1.87709999       0.00000000     -0.606999993       43.2782669       1.57178652    
   1.36500001       0.00000000     -0.606999993       43.2782669       1.57178652    
   1.33877206      0.266297996     -0.606999993       43.2782669       1.57178652    
   1.84103203      0.366203994     -0.606999993       43.2782669       1.57178652    
   1.87709999       0.00000000     -0.606999993       14.3150835      -1.57468355    
   2.59967995       0.00000000     -0.517000020       14.3150835      -1.57468355    
   2.54972792     -0.507171988     -0.517000020       14.3150835      -1.57468355    
   1.84103203     -0.366203994     -0.606999993       14.3150835      -1.57468355    
   1.84103203     -0.366203994     -0.606999993       38.0082016      -1.57216263    
   1.33877206     -0.266297996     -0.606999993       38.0082016      -1.57216263    
   1.36500001       0.00000000     -0.606999993       38.0082016      -1.57216263    
   1.87709999       0.00000000     -0.606999993       38.0082016      -1.57216263    
   1.84103203     -0.366203994     -0.606999993       46.3029709      -1.57235920    
   2.54972792     -0.507171988     -0.517000020       46.3029709      -1.57235920    
   2.40179110     -0.994853973     -0.517000020       46.3029709      -1.57235920    
   1.73421395     -0.718334973     -0.606999993       46.3029709      -1.57235920    
   1.73421395     -0.718334973     -0.606999993       117.711670      -1.57131457    
   1.26109600     -0.522363007     -0.606999993       117.711670      -1.57131457    
   1.33877206     -0.266297996     -0.606999993       117.711670      -1.57131457    
   1.84103203     -0.366203994     -0.606999993       117.711670      -1.57131457    
   1.73421395     -0.718334973     -0.606999993       76.2150726      -1.57195807    
   2.40179110     -0.994853973     -0.517000020       76.2150726      -1.57195807    
   2.16155505      -1.44430494     -0.517000020       76.2150726      -1.57195807    
   1.56075203      -1.04286098     -0.606999993       76.2150726      -1.57195807    
   1.56075203      -1.04286098     -0.606999993       192.681808      -1.57115829    
   1.13495600     -0.758352995     -0.606999993       192.681808      -1.57115829    
   1.26109600     -0.522363007     -0.606999993       192.681808      -1.57115829    