 VARIABLES="X" "Y" "Z" "abs(p) (Pa)" "angle(p) (rad)"
ZONE N=   2709,E =    2358, F=FEPOINT, ET=QUADRILATERAL
   0.00000000      -5.48999977     -0.157000005       32.7991753       1.57075047    
   0.00000000      -4.76741982     -0.246999994       32.7991753       1.57075047    
  0.930077016      -4.67581606     -0.246999994       32.7991753       1.57075047    
   1.07104599      -5.38451099     -0.157000005       32.7991753       1.57075047    
  -1.07104599      -5.38451099     -0.157000005       32.8090553       1.57075047    
 -0.930077016      -4.67581606     -0.246999994       32.8090553       1.57075047    
   0.00000000      -4.76741982     -0.246999994       32.8090553       1.57075047    
   0.00000000      -5.48999977     -0.157000005       32.8090553       1.57075047    
  -2.10093188      -5.07209921     -0.157000005       31.5820599       1.57074857    
  -1.82441294      -4.40452194     -0.246999994       31.5820599       1.57074857    
 -0.930077016      -4.67581606     -0.246999994       31.5820599       1.57074857    
  -1.07104599      -5.38451099     -0.157000005       31.5820599       1.57074857    
  -3.05008101      -4.56476784     -0.157000005       29.0987053       1.57074440    
  -2.64863706      -3.96396494     -0.246999994       29.0987053       1.57074440    
  -1.82441294      -4.40452194     -0.246999994       29.0987053       1.57074440    
  -2.10093188      -5.07209921     -0.157000005       29.0987053       1.57074440    
  -3.88201594      -3.88201594     -0.157000005       25.5925655       1.57073700    
  -3.37107491      -3.37107491     -0.246999994       25.5925655       1.57073700    
  -2.64863706      -3.96396494     -0.246999994       25.5925655       1.57073700    
  -3.05008101      -4.56476784     -0.157000005       25.5925655       1.57073700    
  -4.56476784      -3.05008101     -0.157000005       21.0995579       1.57072389    
  -3.96396494      -2.64863706     -0.246999994       21.0995579       1.57072389    
  -3.37107491      -3.37107491     -0.246999994       21.0995579       1.57072389    
  -3.88201594      -3.88201594     -0.157000005       21.0995579       1.57072389    
  -5.07209921      -2.10093188     -0.157000005       15.6647577       1.57069826    
  -4.40452194      -1.82441294     -0.246999994       15.6647577       1.57069826    
  -3.96396494      -2.64863706     -0.246999994       15.6647577       1.57069826    
  -4.56476784      -3.05008101     -0.157000005       15.6647577       1.57069826    
  -5.38451099      -1.07104599     -0.157000005       9.62464619       1.57063544    
  -4.67581606     -0.930077016     -0.246999994       9.62464619       1.57063544    
  -4.40452194      -1.82441294     -0.246999994       9.62464619       1.57063544    
  -5.07209921      -2.10093188     -0.157000005       9.62464619       1.57063544    
  -5.48999977       0.00000000     -0.157000005       3.26309037       1.57031834    
  -4.76741982       0.00000000     -0.246999994       3.26309037       1.57031834    
  -4.67581606     -0.930077016     -0.246999994       3.26309037       1.57031834    
  -5.38451099      -1.07104599     -0.157000005       3.26309037       1.57031834    
  -5.38451099       1.07104599     -0.157000005       3.19134498      -1.57030392    
  -4.67581606      0.930077016     -0.246999994       3.19134498      -1.57030392    
  -4.76741982       0.00000000     -0.246999994       3.19134498      -1.57030392    
  -5.48999977       0.00000000     -0.157000005       3.19134498      -1.57030392    
  -5.07209921       2.10093188     -0.157000005       9.56921577      -1.57063091    
  -4.40452194       1.82441294     -0.246999994       9.56921577      -1.57063091    
  -4.67581606      0.930077016     -0.246999994       9.56921577      -1.57063091    
  -5.38451099       1.07104599     -0.157000005       9.56921577      -1.57063091    
  -4.56476784       3.05008101     -0.157000005       15.6517506      -1.57069457    
  -3.96396494       2.64863706     -0.246999994       15.6517506      -1.57069457    
  -4.40452194       1.82441294     -0.246999994       15.6517506      -1.57069457    
  -5.07209921       2.10093188     -0.157000005       15.6517506      -1.57069457    
  -3.88201594       3.88201594     -0.157000005       21.1259308      -1.57072043    
  -3.37107491       3.37107491     -0.246999994       21.1259308      -1.57072043    
  -3.96396494       2.64863706     -0.246999994       21.1259308      -1.57072043    
  -4.56476784       3.05008101     -0.157000005       21.1259308      -1.57072043    
  -3.05008101       4.56476784     -0.157000005       25.7498589      -1.57073379    
  -2.64863706       3.96396494     -0.246999994       25.7498589      -1.57073379    
  -3.37107491       3.37107491     -0.246999994       25.7498589      -1.57073379    
  -3.88201594       3.88201594     -0.157000005       25.7498589      -1.57073379    
  -2.10093188       5.07209921     -0.157000005       29.2831860      -1.57074106    
  -1.82441294       4.40452194     -0.246999994       29.2831860      -1.57074106    
  -2.64863706       3.96396494     -0.246999994       29.2831860      -1.57074106    
  -3.05008101       4.56476784     -0.157000005       29.2831860      -1.57074106    
  -1.07104599       5.38451099     -0.157000005       31.7871094      -1.57074523    
 -0.930077016       4.67581606     -0.246999994       31.7871094      -1.57074523    
  -1.82441294       4.40452194     -0.246999994       31.7871094      -1.57074523    
  -2.10093188       5.07209921     -0.157000005       31.7871094      -1.57074523    
   0.00000000       5.48999977     -0.157000005       33.0466919      -1.57074714    
   0.00000000       4.76741982     -0.246999994       33.0466919      -1.57074714    
 -0.930077016       4.67581606     -0.246999994       33.0466919      -1.57074714    
  -1.07104599       5.38451099     -0.157000005       33.0466919      -1.57074714    
   1.07104599       5.38451099     -0.157000005       33.0749931      -1.57074714    
  0.930077016       4.67581606     -0.246999994       33.0749931      -1.57074714    
   0.00000000       4.76741982     -0.246999994       33.0749931      -1.57074714    
   0.00000000       5.48999977     -0.157000005       33.0749931      -1.57074714    
   2.10093188       5.07209921     -0.157000005       31.7832413      -1.57074523    
   1.82441294       4.40452194     -0.246999994       31.7832413      -1.57074523    
  0.930077016       4.67581606     -0.246999994       31.7832413      -1.57074523    
   1.07104599       5.38451099     -0.157000005       31.7832413      -1.57074523    
   3.05008101       4.56476784     -0.157000005       29.3136749      -1.57074118    
   2.64863706       3.96396494     -0.246999994       29.3136749      -1.57074118    
   1.82441294       4.40452194     -0.246999994       29.3136749      -1.57074118    
   2.10093188       5.07209921     -0.157000005       29.3136749      -1.57074118    
   3.88201594       3.88201594     -0.157000005       25.7967186      -1.57073390    
   3.37107491       3.37107491     -0.246999994       25.7967186      -1.57073390    
   2.64863706       3.96396494     -0.246999994       25.7967186      -1.57073390    
   3.05008101       4.56476784     -0.157000005       25.7967186      -1.57073390    
   4.56476784       3.05008101     -0.157000005       21.1970921      -1.57072067    
   3.96396494       2.64863706     -0.246999994       21.1970921      -1.57072067    
   3.37107491       3.37107491     -0.246999994       21.1970921      -1.57072067    
   3.88201594       3.88201594     -0.157000005       21.1970921      -1.57072067    
   5.07209921       2.10093188     -0.157000005       15.7156544      -1.57069492    
   4.40452194       1.82441294     -0.246999994       15.7156544      -1.57069492    
   3.96396494       2.64863706     -0.246999994       15.7156544      -1.57069492    
   4.56476784       3.05008101     -0.157000005       15.7156544      -1.57069492    
   5.38451099       1.07104599     -0.157000005       9.62842560      -1.57063198    
   4.67581606      0.930077016     -0.246999994       9.62842560      -1.57063198    
   4.40452194       1.82441294     -0.246999994       9.62842560      -1.57063198    
   5.07209921       2.10093188     -0.157000005       9.62842560      -1.57063198    
   5.48999977       0.00000000     -0.157000005       3.25630879      -1.57031381    
   4.76741982       0.00000000     -0.246999994       3.25630879      -1.57031381    
   4.67581606      0.930077016     -0.246999994       3.25630879      -1.57031381    
   5.38451099       1.07104599     -0.157000005       3.25630879      -1.57031381    
   5.38451099      -1.07104599     -0.157000005       3.19299722       1.57030785    
   4.67581606     -0.930077016     -0.246999994       3.19299722       1.57030785    
   4.76741982       0.00000000     -0.246999994       3.19299722       1.57030785    
   5.48999977       0.00000000     -0.157000005       3.19299722       1.57030785    
   5.07209921      -2.10093188     -0.157000005       9.55651855       1.57063437    
   4.40452194      -1.82441294     -0.246999994       9.55651855       1.57063437    
   4.67581606     -0.930077016     -0.246999994       9.55651855       1.57063437    
   5.38451099      -1.07104599     -0.157000005       9.55651855       1.57063437    
   4.56476784      -3.05008101     -0.157000005       15.5971746       1.57069778    
   3.96396494      -2.64863706     -0.246999994       15.5971746       1.57069778    
   4.40452194      -1.82441294     -0.246999994       15.5971746       1.57069778    
   5.07209921      -2.10093188     -0.157000005       15.5971746       1.57069778    
   3.88201594      -3.88201594     -0.157000005       21.0207806       1.57072365    
   3.37107491      -3.37107491     -0.246999994       21.0207806       1.57072365    
   3.96396494      -2.64863706     -0.246999994       21.0207806       1.57072365    
   4.56476784      -3.05008101     -0.157000005       21.0207806       1.57072365    
   3.05008101      -4.56476784     -0.157000005       25.5690136       1.57073689    
   2.64863706      -3.96396494     -0.246999994       25.5690136       1.57073689    
   3.37107491      -3.37107491     -0.246999994       25.5690136       1.57073689    
   3.88201594      -3.88201594     -0.157000005       25.5690136       1.57073689    
   2.10093188      -5.07209921     -0.157000005       29.0644951       1.57074428    
   1.82441294      -4.40452194     -0.246999994       29.0644951       1.57074428    
   2.64863706      -3.96396494     -0.246999994       29.0644951       1.57074428    
   3.05008101      -4.56476784     -0.157000005       29.0644951       1.57074428    
   1.07104599      -5.38451099     -0.157000005       31.5342445       1.57074845    
  0.930077016      -4.67581606     -0.246999994       31.5342445       1.57074845    
   1.82441294      -4.40452194     -0.246999994       31.5342445       1.57074845    
   2.10093188      -5.07209921     -0.157000005       31.5342445       1.57074845    
   0.00000000      -1.87709999     -0.606999993       91.7366333       1.57077944    
   0.00000000      -1.36500001     -0.606999993       91.7366333       1.57077944    
  0.266297996      -1.33877206     -0.606999993       91.7366333       1.57077944    
  0.366203994      -1.84103203     -0.606999993       91.7366333       1.57077944    
   0.00000000      -1.87709999     -0.606999993       65.8112259       1.57077301    
   0.00000000      -2.59967995     -0.517000020       65.8112259       1.57077301    
 -0.507171988      -2.54972792     -0.517000020       65.8112259       1.57077301    
 -0.366203994      -1.84103203     -0.606999993       65.8112259       1.57077301    
 -0.366203994      -1.84103203     -0.606999993       91.8697128       1.57077944    
 -0.266297996      -1.33877206     -0.606999993       91.8697128       1.57077944    
   0.00000000      -1.36500001     -0.606999993       91.8697128       1.57077944    
   0.00000000      -1.87709999     -0.606999993       91.8697128       1.57077944    
 -0.366203994      -1.84103203     -0.606999993       63.6162682       1.57077217    
 -0.507171988      -2.54972792     -0.517000020       63.6162682       1.57077217    
 -0.994853973      -2.40179110     -0.517000020       63.6162682       1.57077217    
 -0.718334973      -1.73421395     -0.606999993       63.6162682       1.57077217    
 -0.718334973      -1.73421395     -0.606999993       88.7138367       1.57077885    
 -0.522363007      -1.26109600     -0.606999993       88.7138367       1.57077885    
 -0.266297996      -1.33877206     -0.606999993       88.7138367       1.57077885    
 -0.366203994      -1.84103203     -0.606999993       88.7138367       1.57077885    
 -0.718334973      -1.73421395     -0.606999993       59.2022095       1.57077038    
 -0.994853973      -2.40179110     -0.517000020       59.2022095       1.57077038    
  -1.44430494      -2.16155505     -0.517000020       59.2022095       1.57077038    
  -1.04286098      -1.56075203     -0.606999993       59.2022095       1.57077038    
  -1.04286098      -1.56075203     -0.606999993       82.2751312       1.57077742    
 -0.758352995      -1.13495600     -0.606999993       82.2751312       1.57077742    
 -0.522363007      -1.26109600     -0.606999993       82.2751312       1.57077742    
 -0.718334973      -1.73421395     -0.606999993       82.2751312       1.57077742    
  -1.04286098      -1.56075203     -0.606999993       52.4774857       1.57076693    
  -1.44430494      -2.16155505     -0.517000020       52.4774857       1.57076693    
  -1.83825099      -1.83825099     -0.517000020       52.4774857       1.57076693    
  -1.32730997      -1.32730997     -0.606999993       52.4774857       1.57076693    
  -1.32730997      -1.32730997     -0.606999993       72.5838318       1.57077491    
 -0.965201020     -0.965201020     -0.606999993       72.5838318       1.57077491    
 -0.758352995      -1.13495600     -0.606999993       72.5838318       1.57077491    
  -1.04286098      -1.56075203     -0.606999993       72.5838318       1.57077491    
  -1.32730997      -1.32730997     -0.606999993       43.3495712       1.57076073    
  -1.83825099      -1.83825099     -0.517000020       43.3495712       1.57076073    
  -2.16155505      -1.44430494     -0.517000020       43.3495712       1.57076073    
  -1.56075203      -1.04286098     -0.606999993       43.3495712       1.57076073    
  -1.56075203      -1.04286098     -0.606999993       59.8498878       1.57077038    
  -1.13495600     -0.758352995     -0.606999993       59.8498878       1.57077038    
 -0.965201020     -0.965201020     -0.606999993       59.8498878       1.57077038    
  -1.32730997      -1.32730997     -0.606999993       59.8498878       1.57077038    
  -1.56075203      -1.04286098     -0.606999993       32.0780029       1.57074809    
  -2.16155505      -1.44430494     -0.517000020       32.0780029       1.57074809    
  -2.40179110     -0.994853973     -0.517000020       32.0780029       1.57074809    
  -1.73421395     -0.718334973     -0.606999993       32.0780029       1.57074809    
  -1.73421395     -0.718334973     -0.606999993       44.5933609       1.57076144    
  -1.26109600     -0.522363007     -0.606999993       44.5933609       1.57076144    
  -1.13495600     -0.758352995     -0.606999993       44.5933609       1.57076144    
  -1.56075203      -1.04286098     -0.606999993       44.5933609       1.57076144    
  -1.73421395     -0.718334973     -0.606999993       19.5842056       1.57071698    
  -2.40179110     -0.994853973     -0.517000020       19.5842056       1.57071698    
  -2.54972792     -0.507171988     -0.517000020       19.5842056       1.57071698    
  -1.84103203     -0.366203994     -0.606999993       19.5842056       1.57071698    
  -1.84103203     -0.366203994     -0.606999993       27.6408730       1.57073987    
  -1.33877206     -0.266297996     -0.606999993       27.6408730       1.57073987    
  -1.26109600     -0.522363007     -0.606999993       27.6408730       1.57073987    
  -1.73421395     -0.718334973     -0.606999993       27.6408730       1.57073987    
  -1.84103203     -0.366203994     -0.606999993       6.81352758       1.57056737    
  -2.54972792     -0.507171988     -0.517000020       6.81352758       1.57056737    
  -2.59967995       0.00000000     -0.517000020       6.81352758       1.57056737    
  -1.87709999       0.00000000     -0.606999993       6.81352758       1.57056737    
  -1.87709999       0.00000000     -0.606999993       9.84157276       1.57063758    
  -1.36500001       0.00000000     -0.606999993       9.84157276       1.57063758    
  -1.33877206     -0.266297996     -0.606999993       9.84157276       1.57063758    
  -1.84103203     -0.366203994     -0.606999993       9.84157276       1.57063758    
  -1.87709999       0.00000000     -0.606999993       5.80273724      -1.57052660    
  -2.59967995       0.00000000     -0.517000020       5.80273724      -1.57052660    
  -2.54972792      0.507171988     -0.517000020       5.80273724      -1.57052660    
  -1.84103203      0.366203994     -0.606999993       5.80273724      -1.57052660    
  -1.84103203      0.366203994     -0.606999993       8.14394569      -1.57060421    
  -1.33877206      0.266297996     -0.606999993       8.14394569      -1.57060421    
  -1.36500001       0.00000000     -0.606999993       8.14394569      -1.57060421    
  -1.87709999       0.00000000     -0.606999993       8.14394569      -1.57060421    
  -1.84103203      0.366203994     -0.606999993       18.4132404      -1.57071102    
  -2.54972792      0.507171988     -0.517000020       18.4132404      -1.57071102    
  -2.40179110      0.994853973     -0.517000020       18.4132404      -1.57071102    
  -1.73421395      0.718334973     -0.606999993       18.4132404      -1.57071102    
  -1.73421395      0.718334973     -0.606999993       25.8815575      -1.57073581    
  -1.26109600      0.522363007     -0.606999993       25.8815575      -1.57073581    
  -1.33877206      0.266297996     -0.606999993       25.8815575      -1.57073581    
  -1.84103203      0.366203994     -0.606999993       25.8815575      -1.57073581    
  -1.73421395      0.718334973     -0.606999993       30.8149300      -1.57074523    
  -2.40179110      0.994853973     -0.517000020       30.8149300      -1.57074523    
  -2.16155505       1.44430494     -0.517000020       30.8149300      -1.57074523    
  -1.56075203       1.04286098     -0.606999993       30.8149300      -1.57074523    
  -1.56075203       1.04286098     -0.606999993       42.8197556      -1.57075965    
  -1.13495600      0.758352995     -0.606999993       42.8197556      -1.57075965    
  -1.26109600      0.522363007     -0.606999993       42.8197556      -1.57075965    
  -1.73421395      0.718334973     -0.606999993       42.8197556      -1.57075965    
  -1.56075203       1.04286098     -0.606999993       42.2209702      -1.57075894    
  -2.16155505       1.44430494     -0.517000020       42.2209702      -1.57075894    
  -1.83825099       1.83825099     -0.517000020       42.2209702      -1.57075894    
  -1.32730997       1.32730997     -0.606999993       42.2209702      -1.57075894    
  -1.32730997       1.32730997     -0.606999993       58.2001343      -1.57076931    
 -0.965201020      0.965201020     -0.606999993       58.2001343      -1.57076931    
  -1.13495600      0.758352995     -0.606999993       58.2001343      -1.57076931    
  -1.56075203       1.04286098     -0.606999993       58.2001343      -1.57076931    
  -1.32730997       1.32730997     -0.606999993       51.6483307      -1.57076561    
  -1.83825099       1.83825099     -0.517000020       51.6483307      -1.57076561    
  -1.44430494       2.16155505     -0.517000020       51.6483307      -1.57076561    
  -1.04286098       1.56075203     -0.606999993       51.6483307      -1.57076561    
  -1.04286098       1.56075203     -0.606999993       71.1865768      -1.57077420    
 -0.758352995       1.13495600     -0.606999993       71.1865768      -1.57077420    
 -0.965201020      0.965201020     -0.606999993       71.1865768      -1.57077420    
  -1.32730997       1.32730997     -0.606999993       71.1865768      -1.57077420    
  -1.04286098       1.56075203     -0.606999993       58.6826477      -1.57076931    
  -1.44430494       2.16155505     -0.517000020       58.6826477      -1.57076931    
 -0.994853973       2.40179110     -0.517000020       58.6826477      -1.57076931    
 -0.718334973       1.73421395     -0.606999993       58.6826477      -1.57076931    
 -0.718334973       1.73421395     -0.606999993       81.2104645      -1.57077694    
 -0.522363007       1.26109600     -0.606999993       81.2104645      -1.57077694    
 -0.758352995       1.13495600     -0.606999993       81.2104645      -1.57077694    
  -1.04286098       1.56075203     -0.606999993       81.2104645      -1.57077694    
 -0.718334973       1.73421395     -0.606999993       63.3441467      -1.57077122    
 -0.994853973       2.40179110     -0.517000020       63.3441467      -1.57077122    
 -0.507171988       2.54972792     -0.517000020       63.3441467      -1.57077122    
 -0.366203994       1.84103203     -0.606999993       63.3441467      -1.57077122    
 -0.366203994       1.84103203     -0.606999993       87.9931870      -1.57077837    
 -0.266297996       1.33877206     -0.606999993       87.9931870      -1.57077837    
 -0.522363007       1.26109600     -0.606999993       87.9931870      -1.57077837    
 -0.718334973       1.73421395     -0.606999993       87.9931870      -1.57077837    
 -0.366203994       1.84103203     -0.606999993       65.7318420      -1.57077217    
 -0.507171988       2.54972792     -0.517000020       65.7318420      -1.57077217    
   0.00000000       2.59967995     -0.517000020       65.7318420      -1.57077217    
   0.00000000       1.87709999     -0.606999993       65.7318420      -1.57077217    
   0.00000000       1.87709999     -0.606999993       91.4658127      -1.57077909    
   0.00000000       1.36500001     -0.606999993       91.4658127      -1.57077909    
 -0.266297996       1.33877206     -0.606999993       91.4658127      -1.57077909    
 -0.366203994       1.84103203     -0.606999993       91.4658127      -1.57077909    
   0.00000000       1.87709999     -0.606999993       65.8098221      -1.57077217    
   0.00000000       2.59967995     -0.517000020       65.8098221      -1.57077217    
  0.507171988       2.54972792     -0.517000020       65.8098221      -1.57077217    
  0.366203994       1.84103203     -0.606999993       65.8098221      -1.57077217    
  0.366203994       1.84103203     -0.606999993       91.5998001      -1.57077909    
  0.266297996       1.33877206     -0.606999993       91.5998001      -1.57077909    
   0.00000000       1.36500001     -0.606999993       91.5998001      -1.57077909    
   0.00000000       1.87709999     -0.606999993       91.5998001      -1.57077909    
  0.366203994       1.84103203     -0.606999993       63.5758820      -1.57077134    
  0.507171988       2.54972792     -0.517000020       63.5758820      -1.57077134    
  0.994853973       2.40179110     -0.517000020       63.5758820      -1.57077134    
  0.718334973       1.73421395     -0.606999993       63.5758820      -1.57077134    
  0.718334973       1.73421395     -0.606999993       88.3902283      -1.57077849    
  0.522363007       1.26109600     -0.606999993       88.3902283      -1.57077849    
  0.266297996       1.33877206     -0.606999993       88.3902283      -1.57077849    
  0.366203994       1.84103203     -0.606999993       88.3902283      -1.57077849    
  0.718334973       1.73421395     -0.606999993       59.0622711      -1.57076943    
  0.994853973       2.40179110     -0.517000020       59.0622711      -1.57076943    
   1.44430494       2.16155505     -0.517000020       59.0622711      -1.57076943    
   1.04286098       1.56075203     -0.606999993       59.0622711      -1.57076943    
   1.04286098       1.56075203     -0.606999993       81.8550110      -1.57077706    
  0.758352995       1.13495600     -0.606999993       81.8550110      -1.57077706    
  0.522363007       1.26109600     -0.606999993       81.8550110      -1.57077706    
  0.718334973       1.73421395     -0.606999993       81.8550110      -1.57077706    
   1.04286098       1.56075203     -0.606999993       52.1653137      -1.57076597    
   1.44430494       2.16155505     -0.517000020       52.1653137      -1.57076597    
   1.83825099       1.83825099     -0.517000020       52.1653137      -1.57076597    
   1.32730997       1.32730997     -0.606999993       52.1653137      -1.57076597    
   1.32730997       1.32730997     -0.606999993       72.0577774      -1.57077456    
  0.965201020      0.965201020     -0.606999993       72.0577774      -1.57077456    
  0.758352995       1.13495600     -0.606999993       72.0577774      -1.57077456    
   1.04286098       1.56075203     -0.606999993       72.0577774      -1.57077456    
   1.32730997       1.32730997     -0.606999993       42.8546791      -1.57075942    
   1.83825099       1.83825099     -0.517000020       42.8546791      -1.57075942    
   2.16155505       1.44430494     -0.517000020       42.8546791      -1.57075942    
   1.56075203       1.04286098     -0.606999993       42.8546791      -1.57075942    
   1.56075203       1.04286098     -0.606999993       59.2603111      -1.57076979    
   1.13495600      0.758352995     -0.606999993       59.2603111      -1.57076979    
  0.965201020      0.965201020     -0.606999993       59.2603111      -1.57076979    
   1.32730997       1.32730997     -0.606999993       59.2603111      -1.57076979    
   1.56075203       1.04286098     -0.606999993       31.5337315      -1.57074630    
   2.16155505       1.44430494     -0.517000020       31.5337315      -1.57074630    
   2.40179110      0.994853973     -0.517000020       31.5337315      -1.57074630    
   1.73421395      0.718334973     -0.606999993       31.5337315      -1.57074630    
   1.73421395      0.718334973     -0.606999993       44.0125885      -1.57076073    
   1.26109600      0.522363007     -0.606999993       44.0125885      -1.57076073    
   1.13495600      0.758352995     -0.606999993       44.0125885      -1.57076073    
   1.56075203       1.04286098     -0.606999993       44.0125885      -1.57076073    
   1.73421395      0.718334973     -0.606999993       19.1821270      -1.57071447    
   2.40179110      0.994853973     -0.517000020       19.1821270      -1.57071447    
   2.54972792      0.507171988     -0.517000020       19.1821270      -1.57071447    
   1.84103203      0.366203994     -0.606999993       19.1821270      -1.57071447    
   1.84103203      0.366203994     -0.606999993       27.1563454      -1.57073867    
   1.33877206      0.266297996     -0.606999993       27.1563454      -1.57073867    
   1.26109600      0.522363007     -0.606999993       27.1563454      -1.57073867    
   1.73421395      0.718334973     -0.606999993       27.1563454      -1.57073867    
   1.84103203      0.366203994     -0.606999993       6.59198713      -1.57055891    
   2.54972792      0.507171988     -0.517000020       6.59198713      -1.57055891    
   2.59967995       0.00000000     -0.517000020       6.59198713      -1.57055891    
   1.87709999       0.00000000     -0.606999993       6.59198713      -1.57055891    
   1.87709999       0.00000000     -0.606999993       9.45679283      -1.57063091    
   1.36500001       0.00000000     -0.606999993       9.45679283      -1.57063091    
   1.33877206      0.266297996     -0.606999993       9.45679283      -1.57063091    
   1.84103203      0.366203994     -0.606999993       9.45679283      -1.57063091    
   1.87709999       0.00000000     -0.606999993       6.03044844       1.57053769    
   2.59967995       0.00000000     -0.517000020       6.03044844       1.57053769    
   2.54972792     -0.507171988     -0.517000020       6.03044844       1.57053769    
   1.84103203     -0.366203994     -0.606999993       6.03044844       1.57053769    
   1.84103203     -0.366203994     -0.606999993       8.53899288       1.57061338    
   1.33877206     -0.266297996     -0.606999993       8.53899288       1.57061338    
   1.36500001       0.00000000     -0.606999993       8.53899288       1.57061338    
   1.87709999       0.00000000     -0.606999993       8.53899288       1.57061338    
   1.84103203     -0.366203994     -0.606999993       18.8329220       1.57071376    
   2.54972792     -0.507171988     -0.517000020       18.8329220       1.57071376    
   2.40179110     -0.994853973     -0.517000020       18.8329220       1.57071376    
   1.73421395     -0.718334973     -0.606999993       18.8329220       1.57071376    
   1.73421395     -0.718334973     -0.606999993       26.3969078       1.57073724    
   1.26109600     -0.522363007     -0.606999993       26.3969078       1.57073724    
   1.33877206     -0.266297996     -0.606999993       26.3969078       1.57073724    
   1.84103203     -0.366203994     -0.606999993       26.3969078       1.57073724    
   1.73421395     -0.718334973     -0.606999993       31.3849735       1.57074702    
   2.40179110     -0.994853973     -0.517000020       31.3849735       1.57074702    
   2.16155505      -1.44430494     -0.517000020       31.3849735       1.57074702    
   1.56075203      -1.04286098     -0.606999993       31.3849735       1.57074702    
   1.56075203      -1.04286098     -0.606999993       43.4561501       1.57076049    
   1.13495600     -0.758352995     -0.606999993       43.4561501       1.57076049    
   1.26109600     -0.522363007     -0.606999993       43.4561501       1.57076049    