 VARIABLES="X" "Y" "Z" "abs(p) (Pa)" "angle(p) (rad)"
ZONE N=   2709,E =    2358, F=FEPOINT, ET=QUADRILATERAL
   0.00000000      -5.48999977     -0.157000005       4170.32080      -1.29836297    
   0.00000000      -4.76741982     -0.246999994       4170.32080      -1.29836297    
  0.930077016      -4.67581606     -0.246999994       4170.32080      -1.29836297    
   1.07104599      -5.38451099     -0.157000005       4170.32080      -1.29836297    
  -1.07104599      -5.38451099     -0.157000005       4174.18945      -1.29875755    
 -0.930077016      -4.67581606     -0.246999994       4174.18945      -1.29875755    
   0.00000000      -4.76741982     -0.246999994       4174.18945      -1.29875755    
   0.00000000      -5.48999977     -0.157000005       4174.18945      -1.29875755    
  -2.10093188      -5.07209921     -0.157000005       4057.61548      -1.30420828    
  -1.82441294      -4.40452194     -0.246999994       4057.61548      -1.30420828    
 -0.930077016      -4.67581606     -0.246999994       4057.61548      -1.30420828    
  -1.07104599      -5.38451099     -0.157000005       4057.61548      -1.30420828    
  -3.05008101      -4.56476784     -0.157000005       3704.48096      -1.29897285    
  -2.64863706      -3.96396494     -0.246999994       3704.48096      -1.29897285    
  -1.82441294      -4.40452194     -0.246999994       3704.48096      -1.29897285    
  -2.10093188      -5.07209921     -0.157000005       3704.48096      -1.29897285    
  -3.88201594      -3.88201594     -0.157000005       3250.06982      -1.29900336    
  -3.37107491      -3.37107491     -0.246999994       3250.06982      -1.29900336    
  -2.64863706      -3.96396494     -0.246999994       3250.06982      -1.29900336    
  -3.05008101      -4.56476784     -0.157000005       3250.06982      -1.29900336    
  -4.56476784      -3.05008101     -0.157000005       2707.71313      -1.30635500    
  -3.96396494      -2.64863706     -0.246999994       2707.71313      -1.30635500    
  -3.37107491      -3.37107491     -0.246999994       2707.71313      -1.30635500    
  -3.88201594      -3.88201594     -0.157000005       2707.71313      -1.30635500    
  -5.07209921      -2.10093188     -0.157000005       1989.67126      -1.30039287    
  -4.40452194      -1.82441294     -0.246999994       1989.67126      -1.30039287    
  -3.96396494      -2.64863706     -0.246999994       1989.67126      -1.30039287    
  -4.56476784      -3.05008101     -0.157000005       1989.67126      -1.30039287    
  -5.38451099      -1.07104599     -0.157000005       1217.80981      -1.29738533    
  -4.67581606     -0.930077016     -0.246999994       1217.80981      -1.29738533    
  -4.40452194      -1.82441294     -0.246999994       1217.80981      -1.29738533    
  -5.07209921      -2.10093188     -0.157000005       1217.80981      -1.29738533    
  -5.48999977       0.00000000     -0.157000005       408.519562      -1.29553783    
  -4.76741982       0.00000000     -0.246999994       408.519562      -1.29553783    
  -4.67581606     -0.930077016     -0.246999994       408.519562      -1.29553783    
  -5.38451099      -1.07104599     -0.157000005       408.519562      -1.29553783    
  -5.38451099       1.07104599     -0.157000005       426.553223       1.82786250    
  -4.67581606      0.930077016     -0.246999994       426.553223       1.82786250    
  -4.76741982       0.00000000     -0.246999994       426.553223       1.82786250    
  -5.48999977       0.00000000     -0.157000005       426.553223       1.82786250    
  -5.07209921       2.10093188     -0.157000005       1245.76965       1.83347785    
  -4.40452194       1.82441294     -0.246999994       1245.76965       1.83347785    
  -4.67581606      0.930077016     -0.246999994       1245.76965       1.83347785    
  -5.38451099       1.07104599     -0.157000005       1245.76965       1.83347785    
  -4.56476784       3.05008101     -0.157000005       2013.67761       1.83542395    
  -3.96396494       2.64863706     -0.246999994       2013.67761       1.83542395    
  -4.40452194       1.82441294     -0.246999994       2013.67761       1.83542395    
  -5.07209921       2.10093188     -0.157000005       2013.67761       1.83542395    
  -3.88201594       3.88201594     -0.157000005       2676.39697       1.84145319    
  -3.37107491       3.37107491     -0.246999994       2676.39697       1.84145319    
  -3.96396494       2.64863706     -0.246999994       2676.39697       1.84145319    
  -4.56476784       3.05008101     -0.157000005       2676.39697       1.84145319    
  -3.05008101       4.56476784     -0.157000005       3288.04199       1.83674622    
  -2.64863706       3.96396494     -0.246999994       3288.04199       1.83674622    
  -3.37107491       3.37107491     -0.246999994       3288.04199       1.83674622    
  -3.88201594       3.88201594     -0.157000005       3288.04199       1.83674622    
  -2.10093188       5.07209921     -0.157000005       3711.38672       1.84189248    
  -1.82441294       4.40452194     -0.246999994       3711.38672       1.84189248    
  -2.64863706       3.96396494     -0.246999994       3711.38672       1.84189248    
  -3.05008101       4.56476784     -0.157000005       3711.38672       1.84189248    
  -1.07104599       5.38451099     -0.157000005       4062.27417       1.83724594    
 -0.930077016       4.67581606     -0.246999994       4062.27417       1.83724594    
  -1.82441294       4.40452194     -0.246999994       4062.27417       1.83724594    
  -2.10093188       5.07209921     -0.157000005       4062.27417       1.83724594    
   0.00000000       5.48999977     -0.157000005       4183.52344       1.84242523    
   0.00000000       4.76741982     -0.246999994       4183.52344       1.84242523    
 -0.930077016       4.67581606     -0.246999994       4183.52344       1.84242523    
  -1.07104599       5.38451099     -0.157000005       4183.52344       1.84242523    
   1.07104599       5.38451099     -0.157000005       4221.93994       1.83794379    
  0.930077016       4.67581606     -0.246999994       4221.93994       1.83794379    
   0.00000000       4.76741982     -0.246999994       4221.93994       1.83794379    
   0.00000000       5.48999977     -0.157000005       4221.93994       1.83794379    
   2.10093188       5.07209921     -0.157000005       4020.00024       1.84353662    
   1.82441294       4.40452194     -0.246999994       4020.00024       1.84353662    
  0.930077016       4.67581606     -0.246999994       4020.00024       1.84353662    
   1.07104599       5.38451099     -0.157000005       4020.00024       1.84353662    
   3.05008101       4.56476784     -0.157000005       3706.16724       1.84398282    
   2.64863706       3.96396494     -0.246999994       3706.16724       1.84398282    
   1.82441294       4.40452194     -0.246999994       3706.16724       1.84398282    
   2.10093188       5.07209921     -0.157000005       3706.16724       1.84398282    
   3.88201594       3.88201594     -0.157000005       3292.16992       1.83779097    
   3.37107491       3.37107491     -0.246999994       3292.16992       1.83779097    
   2.64863706       3.96396494     -0.246999994       3292.16992       1.83779097    
   3.05008101       4.56476784     -0.157000005       3292.16992       1.83779097    
   4.56476784       3.05008101     -0.157000005       2702.80200       1.83839726    
   3.96396494       2.64863706     -0.246999994       2702.80200       1.83839726    
   3.37107491       3.37107491     -0.246999994       2702.80200       1.83839726    
   3.88201594       3.88201594     -0.157000005       2702.80200       1.83839726    
   5.07209921       2.10093188     -0.157000005       2016.84973       1.83696198    
   4.40452194       1.82441294     -0.246999994       2016.84973       1.83696198    
   3.96396494       2.64863706     -0.246999994       2016.84973       1.83696198    
   4.56476784       3.05008101     -0.157000005       2016.84973       1.83696198    
   5.38451099       1.07104599     -0.157000005       1225.26184       1.84526753    
   4.67581606      0.930077016     -0.246999994       1225.26184       1.84526753    
   4.40452194       1.82441294     -0.246999994       1225.26184       1.84526753    
   5.07209921       2.10093188     -0.157000005       1225.26184       1.84526753    
   5.48999977       0.00000000     -0.157000005       409.477570       1.85598600    
   4.76741982       0.00000000     -0.246999994       409.477570       1.85598600    
   4.67581606      0.930077016     -0.246999994       409.477570       1.85598600    
   5.38451099       1.07104599     -0.157000005       409.477570       1.85598600    
   5.38451099      -1.07104599     -0.157000005       416.340820      -1.31003821    
   4.67581606     -0.930077016     -0.246999994       416.340820      -1.31003821    
   4.76741982       0.00000000     -0.246999994       416.340820      -1.31003821    
   5.48999977       0.00000000     -0.157000005       416.340820      -1.31003821    
   5.07209921      -2.10093188     -0.157000005       1224.63953      -1.30153501    
   4.40452194      -1.82441294     -0.246999994       1224.63953      -1.30153501    
   4.67581606     -0.930077016     -0.246999994       1224.63953      -1.30153501    
   5.38451099      -1.07104599     -0.157000005       1224.63953      -1.30153501    
   4.56476784      -3.05008101     -0.157000005       1985.01929      -1.29983997    
   3.96396494      -2.64863706     -0.246999994       1985.01929      -1.29983997    
   4.40452194      -1.82441294     -0.246999994       1985.01929      -1.29983997    
   5.07209921      -2.10093188     -0.157000005       1985.01929      -1.29983997    
   3.88201594      -3.88201594     -0.157000005       2671.14819      -1.29985082    
   3.37107491      -3.37107491     -0.246999994       2671.14819      -1.29985082    
   3.96396494      -2.64863706     -0.246999994       2671.14819      -1.29985082    
   4.56476784      -3.05008101     -0.157000005       2671.14819      -1.29985082    
   3.05008101      -4.56476784     -0.157000005       3285.33423      -1.30504858    
   2.64863706      -3.96396494     -0.246999994       3285.33423      -1.30504858    
   3.37107491      -3.37107491     -0.246999994       3285.33423      -1.30504858    
   3.88201594      -3.88201594     -0.157000005       3285.33423      -1.30504858    
   2.10093188      -5.07209921     -0.157000005       3704.24316      -1.29932165    
   1.82441294      -4.40452194     -0.246999994       3704.24316      -1.29932165    
   2.64863706      -3.96396494     -0.246999994       3704.24316      -1.29932165    
   3.05008101      -4.56476784     -0.157000005       3704.24316      -1.29932165    
   1.07104599      -5.38451099     -0.157000005       4011.44043      -1.29849219    
  0.930077016      -4.67581606     -0.246999994       4011.44043      -1.29849219    
   1.82441294      -4.40452194     -0.246999994       4011.44043      -1.29849219    
   2.10093188      -5.07209921     -0.157000005       4011.44043      -1.29849219    
   0.00000000      -1.87709999     -0.606999993       3595.63965      -1.50717413    
   0.00000000      -1.36500001     -0.606999993       3595.63965      -1.50717413    
  0.266297996      -1.33877206     -0.606999993       3595.63965      -1.50717413    
  0.366203994      -1.84103203     -0.606999993       3595.63965      -1.50717413    
   0.00000000      -1.87709999     -0.606999993       4017.33984      -1.49794090    
   0.00000000      -2.59967995     -0.517000020       4017.33984      -1.49794090    
 -0.507171988      -2.54972792     -0.517000020       4017.33984      -1.49794090    
 -0.366203994      -1.84103203     -0.606999993       4017.33984      -1.49794090    
 -0.366203994      -1.84103203     -0.606999993       3597.31201      -1.50716317    
 -0.266297996      -1.33877206     -0.606999993       3597.31201      -1.50716317    
   0.00000000      -1.36500001     -0.606999993       3597.31201      -1.50716317    
   0.00000000      -1.87709999     -0.606999993       3597.31201      -1.50716317    
 -0.366203994      -1.84103203     -0.606999993       3852.75928      -1.49764705    
 -0.507171988      -2.54972792     -0.517000020       3852.75928      -1.49764705    
 -0.994853973      -2.40179110     -0.517000020       3852.75928      -1.49764705    
 -0.718334973      -1.73421395     -0.606999993       3852.75928      -1.49764705    
 -0.718334973      -1.73421395     -0.606999993       3455.81006      -1.50691617    
 -0.522363007      -1.26109600     -0.606999993       3455.81006      -1.50691617    
 -0.266297996      -1.33877206     -0.606999993       3455.81006      -1.50691617    
 -0.366203994      -1.84103203     -0.606999993       3455.81006      -1.50691617    
 -0.718334973      -1.73421395     -0.606999993       3542.63794      -1.49722207    
 -0.994853973      -2.40179110     -0.517000020       3542.63794      -1.49722207    
  -1.44430494      -2.16155505     -0.517000020       3542.63794      -1.49722207    
  -1.04286098      -1.56075203     -0.606999993       3542.63794      -1.49722207    
  -1.04286098      -1.56075203     -0.606999993       3182.14331      -1.50658000    
 -0.758352995      -1.13495600     -0.606999993       3182.14331      -1.50658000    
 -0.522363007      -1.26109600     -0.606999993       3182.14331      -1.50658000    
 -0.718334973      -1.73421395     -0.606999993       3182.14331      -1.50658000    
  -1.04286098      -1.56075203     -0.606999993       3106.79395      -1.49689794    
  -1.44430494      -2.16155505     -0.517000020       3106.79395      -1.49689794    
  -1.83825099      -1.83825099     -0.517000020       3106.79395      -1.49689794    
  -1.32730997      -1.32730997     -0.606999993       3106.79395      -1.49689794    
  -1.32730997      -1.32730997     -0.606999993       2790.36768      -1.50629270    
 -0.965201020     -0.965201020     -0.606999993       2790.36768      -1.50629270    
 -0.758352995      -1.13495600     -0.606999993       2790.36768      -1.50629270    
  -1.04286098      -1.56075203     -0.606999993       2790.36768      -1.50629270    
  -1.32730997      -1.32730997     -0.606999993       2556.79980      -1.49688244    
  -1.83825099      -1.83825099     -0.517000020       2556.79980      -1.49688244    
  -2.16155505      -1.44430494     -0.517000020       2556.79980      -1.49688244    
  -1.56075203      -1.04286098     -0.606999993       2556.79980      -1.49688244    
  -1.56075203      -1.04286098     -0.606999993       2293.82666      -1.50618899    
  -1.13495600     -0.758352995     -0.606999993       2293.82666      -1.50618899    
 -0.965201020     -0.965201020     -0.606999993       2293.82666      -1.50618899    
  -1.32730997      -1.32730997     -0.606999993       2293.82666      -1.50618899    
  -1.56075203      -1.04286098     -0.606999993       1904.36353      -1.49725866    
  -2.16155505      -1.44430494     -0.517000020       1904.36353      -1.49725866    
  -2.40179110     -0.994853973     -0.517000020       1904.36353      -1.49725866    
  -1.73421395     -0.718334973     -0.606999993       1904.36353      -1.49725866    
  -1.73421395     -0.718334973     -0.606999993       1707.38464      -1.50627732    
  -1.26109600     -0.522363007     -0.606999993       1707.38464      -1.50627732    
  -1.13495600     -0.758352995     -0.606999993       1707.38464      -1.50627732    
  -1.56075203      -1.04286098     -0.606999993       1707.38464      -1.50627732    
  -1.73421395     -0.718334973     -0.606999993       1171.82837      -1.49772203    
  -2.40179110     -0.994853973     -0.517000020       1171.82837      -1.49772203    
  -2.54972792     -0.507171988     -0.517000020       1171.82837      -1.49772203    
  -1.84103203     -0.366203994     -0.606999993       1171.82837      -1.49772203    
  -1.84103203     -0.366203994     -0.606999993       1051.60925      -1.50627041    
  -1.33877206     -0.266297996     -0.606999993       1051.60925      -1.50627041    
  -1.26109600     -0.522363007     -0.606999993       1051.60925      -1.50627041    
  -1.73421395     -0.718334973     -0.606999993       1051.60925      -1.50627041    
  -1.84103203     -0.366203994     -0.606999993       392.721619      -1.49708664    
  -2.54972792     -0.507171988     -0.517000020       392.721619      -1.49708664    
  -2.59967995       0.00000000     -0.517000020       392.721619      -1.49708664    
  -1.87709999       0.00000000     -0.606999993       392.721619      -1.49708664    
  -1.87709999       0.00000000     -0.606999993       353.259796      -1.50442064    
  -1.36500001       0.00000000     -0.606999993       353.259796      -1.50442064    
  -1.33877206     -0.266297996     -0.606999993       353.259796      -1.50442064    
  -1.84103203     -0.366203994     -0.606999993       353.259796      -1.50442064    
  -1.87709999       0.00000000     -0.606999993       400.243591       1.64068758    
  -2.59967995       0.00000000     -0.517000020       400.243591       1.64068758    
  -2.54972792      0.507171988     -0.517000020       400.243591       1.64068758    
  -1.84103203      0.366203994     -0.606999993       400.243591       1.64068758    
  -1.84103203      0.366203994     -0.606999993       359.169922       1.63051009    
  -1.33877206      0.266297996     -0.606999993       359.169922       1.63051009    
  -1.36500001       0.00000000     -0.606999993       359.169922       1.63051009    
  -1.87709999       0.00000000     -0.606999993       359.169922       1.63051009    
  -1.84103203      0.366203994     -0.606999993       1179.38831       1.64228725    
  -2.54972792      0.507171988     -0.517000020       1179.38831       1.64228725    
  -2.40179110      0.994853973     -0.517000020       1179.38831       1.64228725    
  -1.73421395      0.718334973     -0.606999993       1179.38831       1.64228725    
  -1.73421395      0.718334973     -0.606999993       1057.81665       1.63287246    
  -1.26109600      0.522363007     -0.606999993       1057.81665       1.63287246    
  -1.33877206      0.266297996     -0.606999993       1057.81665       1.63287246    
  -1.84103203      0.366203994     -0.606999993       1057.81665       1.63287246    
  -1.73421395      0.718334973     -0.606999993       1913.55835       1.64318597    
  -2.40179110      0.994853973     -0.517000020       1913.55835       1.64318597    
  -2.16155505       1.44430494     -0.517000020       1913.55835       1.64318597    
  -1.56075203       1.04286098     -0.606999993       1913.55835       1.64318597    
  -1.56075203       1.04286098     -0.606999993       1714.71057       1.63365769    
  -1.13495600      0.758352995     -0.606999993       1714.71057       1.63365769    
  -1.26109600      0.522363007     -0.606999993       1714.71057       1.63365769    
  -1.73421395      0.718334973     -0.606999993       1714.71057       1.63365769    
  -1.56075203       1.04286098     -0.606999993       2568.41406       1.64387250    
  -2.16155505       1.44430494     -0.517000020       2568.41406       1.64387250    
  -1.83825099       1.83825099     -0.517000020       2568.41406       1.64387250    
  -1.32730997       1.32730997     -0.606999993       2568.41406       1.64387250    
  -1.32730997       1.32730997     -0.606999993       2302.99463       1.63416970    
 -0.965201020      0.965201020     -0.606999993       2302.99463       1.63416970    
  -1.13495600      0.758352995     -0.606999993       2302.99463       1.63416970    
  -1.56075203       1.04286098     -0.606999993       2302.99463       1.63416970    
  -1.32730997       1.32730997     -0.606999993       3119.68042       1.64413702    
  -1.83825099       1.83825099     -0.517000020       3119.68042       1.64413702    
  -1.44430494       2.16155505     -0.517000020       3119.68042       1.64413702    
  -1.04286098       1.56075203     -0.606999993       3119.68042       1.64413702    
  -1.04286098       1.56075203     -0.606999993       2801.34985       1.63438559    
 -0.758352995       1.13495600     -0.606999993       2801.34985       1.63438559    
 -0.965201020      0.965201020     -0.606999993       2801.34985       1.63438559    
  -1.32730997       1.32730997     -0.606999993       2801.34985       1.63438559    
  -1.04286098       1.56075203     -0.606999993       3555.55469       1.64403105    
  -1.44430494       2.16155505     -0.517000020       3555.55469       1.64403105    
 -0.994853973       2.40179110     -0.517000020       3555.55469       1.64403105    
 -0.718334973       1.73421395     -0.606999993       3555.55469       1.64403105    
 -0.718334973       1.73421395     -0.606999993       3194.69434       1.63434708    
 -0.522363007       1.26109600     -0.606999993       3194.69434       1.63434708    
 -0.758352995       1.13495600     -0.606999993       3194.69434       1.63434708    
  -1.04286098       1.56075203     -0.606999993       3194.69434       1.63434708    
 -0.718334973       1.73421395     -0.606999993       3865.41992       1.64372849    
 -0.994853973       2.40179110     -0.517000020       3865.41992       1.64372849    
 -0.507171988       2.54972792     -0.517000020       3865.41992       1.64372849    
 -0.366203994       1.84103203     -0.606999993       3865.41992       1.64372849    
 -0.366203994       1.84103203     -0.606999993       3469.96826       1.63417923    
 -0.266297996       1.33877206     -0.606999993       3469.96826       1.63417923    
 -0.522363007       1.26109600     -0.606999993       3469.96826       1.63417923    
 -0.718334973       1.73421395     -0.606999993       3469.96826       1.63417923    
 -0.366203994       1.84103203     -0.606999993       4030.32202       1.64352608    
 -0.507171988       2.54972792     -0.517000020       4030.32202       1.64352608    
   0.00000000       2.59967995     -0.517000020       4030.32202       1.64352608    
   0.00000000       1.87709999     -0.606999993       4030.32202       1.64352608    
   0.00000000       1.87709999     -0.606999993       3613.26074       1.63405907    
   0.00000000       1.36500001     -0.606999993       3613.26074       1.63405907    
 -0.266297996       1.33877206     -0.606999993       3613.26074       1.63405907    
 -0.366203994       1.84103203     -0.606999993       3613.26074       1.63405907    
   0.00000000       1.87709999     -0.606999993       4030.61353       1.64356518    
   0.00000000       2.59967995     -0.517000020       4030.61353       1.64356518    
  0.507171988       2.54972792     -0.517000020       4030.61353       1.64356518    
  0.366203994       1.84103203     -0.606999993       4030.61353       1.64356518    
  0.366203994       1.84103203     -0.606999993       3613.75391       1.63411164    
  0.266297996       1.33877206     -0.606999993       3613.75391       1.63411164    
   0.00000000       1.36500001     -0.606999993       3613.75391       1.63411164    
   0.00000000       1.87709999     -0.606999993       3613.75391       1.63411164    
  0.366203994       1.84103203     -0.606999993       3866.33545       1.64386582    
  0.507171988       2.54972792     -0.517000020       3866.33545       1.64386582    
  0.994853973       2.40179110     -0.517000020       3866.33545       1.64386582    
  0.718334973       1.73421395     -0.606999993       3866.33545       1.64386582    
  0.718334973       1.73421395     -0.606999993       3471.59448       1.63433647    
  0.522363007       1.26109600     -0.606999993       3471.59448       1.63433647    
  0.266297996       1.33877206     -0.606999993       3471.59448       1.63433647    
  0.366203994       1.84103203     -0.606999993       3471.59448       1.63433647    
  0.718334973       1.73421395     -0.606999993       3557.17163       1.64423394    
  0.994853973       2.40179110     -0.517000020       3557.17163       1.64423394    
   1.44430494       2.16155505     -0.517000020       3557.17163       1.64423394    
   1.04286098       1.56075203     -0.606999993       3557.17163       1.64423394    
   1.04286098       1.56075203     -0.606999993       3197.64185       1.63459802    
  0.758352995       1.13495600     -0.606999993       3197.64185       1.63459802    
  0.522363007       1.26109600     -0.606999993       3197.64185       1.63459802    
  0.718334973       1.73421395     -0.606999993       3197.64185       1.63459802    
   1.04286098       1.56075203     -0.606999993       3122.09229       1.64443314    
   1.44430494       2.16155505     -0.517000020       3122.09229       1.64443314    
   1.83825099       1.83825099     -0.517000020       3122.09229       1.64443314    
   1.32730997       1.32730997     -0.606999993       3122.09229       1.64443314    
   1.32730997       1.32730997     -0.606999993       2805.67969       1.63473976    
  0.965201020      0.965201020     -0.606999993       2805.67969       1.63473976    
  0.758352995       1.13495600     -0.606999993       2805.67969       1.63473976    
   1.04286098       1.56075203     -0.606999993       2805.67969       1.63473976    
   1.32730997       1.32730997     -0.606999993       2571.54492       1.64424932    
   1.83825099       1.83825099     -0.517000020       2571.54492       1.64424932    
   2.16155505       1.44430494     -0.517000020       2571.54492       1.64424932    
   1.56075203       1.04286098     -0.606999993       2571.54492       1.64424932    
   1.56075203       1.04286098     -0.606999993       2308.72925       1.63465989    
   1.13495600      0.758352995     -0.606999993       2308.72925       1.63465989    
  0.965201020      0.965201020     -0.606999993       2308.72925       1.63465989    
   1.32730997       1.32730997     -0.606999993       2308.72925       1.63465989    
   1.56075203       1.04286098     -0.606999993       1917.18347       1.64372218    
   2.16155505       1.44430494     -0.517000020       1917.18347       1.64372218    
   2.40179110      0.994853973     -0.517000020       1917.18347       1.64372218    
   1.73421395      0.718334973     -0.606999993       1917.18347       1.64372218    
   1.73421395      0.718334973     -0.606999993       1721.64514       1.63435435    
   1.26109600      0.522363007     -0.606999993       1721.64514       1.63435435    
   1.13495600      0.758352995     -0.606999993       1721.64514       1.63435435    
   1.56075203       1.04286098     -0.606999993       1721.64514       1.63435435    
   1.73421395      0.718334973     -0.606999993       1183.32080       1.64315104    
   2.40179110      0.994853973     -0.517000020       1183.32080       1.64315104    
   2.54972792      0.507171988     -0.517000020       1183.32080       1.64315104    
   1.84103203      0.366203994     -0.606999993       1183.32080       1.64315104    
   1.84103203      0.366203994     -0.606999993       1065.73962       1.63397765    
   1.33877206      0.266297996     -0.606999993       1065.73962       1.63397765    
   1.26109600      0.522363007     -0.606999993       1065.73962       1.63397765    
   1.73421395      0.718334973     -0.606999993       1065.73962       1.63397765    
   1.84103203      0.366203994     -0.606999993       404.483368       1.64303052    
   2.54972792      0.507171988     -0.517000020       404.483368       1.64303052    
   2.59967995       0.00000000     -0.517000020       404.483368       1.64303052    
   1.87709999       0.00000000     -0.606999993       404.483368       1.64303052    
   1.87709999       0.00000000     -0.606999993       368.033752       1.63356376    
   1.36500001       0.00000000     -0.606999993       368.033752       1.63356376    
   1.33877206      0.266297996     -0.606999993       368.033752       1.63356376    
   1.84103203      0.366203994     -0.606999993       368.033752       1.63356376    
   1.87709999       0.00000000     -0.606999993       388.117981      -1.49912167    
   2.59967995       0.00000000     -0.517000020       388.117981      -1.49912167    
   2.54972792     -0.507171988     -0.517000020       388.117981      -1.49912167    
   1.84103203     -0.366203994     -0.606999993       388.117981      -1.49912167    
   1.84103203     -0.366203994     -0.606999993       343.556641      -1.50711095    
   1.33877206     -0.266297996     -0.606999993       343.556641      -1.50711095    
   1.36500001       0.00000000     -0.606999993       343.556641      -1.50711095    
   1.87709999       0.00000000     -0.606999993       343.556641      -1.50711095    
   1.84103203     -0.366203994     -0.606999993       1166.81555      -1.49824047    
   2.54972792     -0.507171988     -0.517000020       1166.81555      -1.49824047    
   2.40179110     -0.994853973     -0.517000020       1166.81555      -1.49824047    
   1.73421395     -0.718334973     -0.606999993       1166.81555      -1.49824047    
   1.73421395     -0.718334973     -0.606999993       1041.28784      -1.50700581    
   1.26109600     -0.522363007     -0.606999993       1041.28784      -1.50700581    
   1.33877206     -0.266297996     -0.606999993       1041.28784      -1.50700581    
   1.84103203     -0.366203994     -0.606999993       1041.28784      -1.50700581    
   1.73421395     -0.718334973     -0.606999993       1899.06091      -1.49748230    
   2.40179110     -0.994853973     -0.517000020       1899.06091      -1.49748230    
   2.16155505      -1.44430494     -0.517000020       1899.06091      -1.49748230    
   1.56075203      -1.04286098     -0.606999993       1899.06091      -1.49748230    
   1.56075203      -1.04286098     -0.606999993       1696.76050      -1.50663424    
   1.13495600     -0.758352995     -0.606999993       1696.76050      -1.50663424    
   1.26109600     -0.522363007     -0.606999993       1696.76050      -1.50663424    