 VARIABLES="X" "Y" "Z" "abs(p) (Pa)" "angle(p) (rad)"
ZONE N=   2709,E =    2358, F=FEPOINT, ET=QUADRILATERAL
   0.00000000      -5.48999977     -0.157000005       1.29993320       1.83427453    
   0.00000000      -4.76741982     -0.246999994       1.29993320       1.83427453    
  0.930077016      -4.67581606     -0.246999994       1.29993320       1.83427453    
   1.07104599      -5.38451099     -0.157000005       1.29993320       1.83427453    
  -1.07104599      -5.38451099     -0.157000005       1.34773564       1.82479239    
 -0.930077016      -4.67581606     -0.246999994       1.34773564       1.82479239    
   0.00000000      -4.76741982     -0.246999994       1.34773564       1.82479239    
   0.00000000      -5.48999977     -0.157000005       1.34773564       1.82479239    
  -2.10093188      -5.07209921     -0.157000005       1.69706178       1.77162075    
  -1.82441294      -4.40452194     -0.246999994       1.69706178       1.77162075    
 -0.930077016      -4.67581606     -0.246999994       1.69706178       1.77162075    
  -1.07104599      -5.38451099     -0.157000005       1.69706178       1.77162075    
  -3.05008101      -4.56476784     -0.157000005       1.38500571       1.81805110    
  -2.64863706      -3.96396494     -0.246999994       1.38500571       1.81805110    
  -1.82441294      -4.40452194     -0.246999994       1.38500571       1.81805110    
  -2.10093188      -5.07209921     -0.157000005       1.38500571       1.81805110    
  -3.88201594      -3.88201594     -0.157000005       1.37043297       1.82087421    
  -3.37107491      -3.37107491     -0.246999994       1.37043297       1.82087421    
  -2.64863706      -3.96396494     -0.246999994       1.37043297       1.82087421    
  -3.05008101      -4.56476784     -0.157000005       1.37043297       1.82087421    
  -4.56476784      -3.05008101     -0.157000005      0.791052878       2.01370072    
  -3.96396494      -2.64863706     -0.246999994      0.791052878       2.01370072    
  -3.37107491      -3.37107491     -0.246999994      0.791052878       2.01370072    
  -3.88201594      -3.88201594     -0.157000005      0.791052878       2.01370072    
  -5.07209921      -2.10093188     -0.157000005       1.05444479       1.89867806    
  -4.40452194      -1.82441294     -0.246999994       1.05444479       1.89867806    
  -3.96396494      -2.64863706     -0.246999994       1.05444479       1.89867806    
  -4.56476784      -3.05008101     -0.157000005       1.05444479       1.89867806    
  -5.38451099      -1.07104599     -0.157000005       1.29566693       1.83619368    
  -4.67581606     -0.930077016     -0.246999994       1.29566693       1.83619368    
  -4.40452194      -1.82441294     -0.246999994       1.29566693       1.83619368    
  -5.07209921      -2.10093188     -0.157000005       1.29566693       1.83619368    
  -5.48999977       0.00000000     -0.157000005       1.75424302       1.76570261    
  -4.76741982       0.00000000     -0.246999994       1.75424302       1.76570261    
  -4.67581606     -0.930077016     -0.246999994       1.75424302       1.76570261    
  -5.38451099      -1.07104599     -0.157000005       1.75424302       1.76570261    
  -5.38451099       1.07104599     -0.157000005       1.85381722       1.75518739    
  -4.67581606      0.930077016     -0.246999994       1.85381722       1.75518739    
  -4.76741982       0.00000000     -0.246999994       1.85381722       1.75518739    
  -5.48999977       0.00000000     -0.157000005       1.85381722       1.75518739    
  -5.07209921       2.10093188     -0.157000005       1.87325668       1.75334132    
  -4.40452194       1.82441294     -0.246999994       1.87325668       1.75334132    
  -4.67581606      0.930077016     -0.246999994       1.87325668       1.75334132    
  -5.38451099       1.07104599     -0.157000005       1.87325668       1.75334132    
  -4.56476784       3.05008101     -0.157000005       1.83339107       1.75745034    
  -3.96396494       2.64863706     -0.246999994       1.83339107       1.75745034    
  -4.40452194       1.82441294     -0.246999994       1.83339107       1.75745034    
  -5.07209921       2.10093188     -0.157000005       1.83339107       1.75745034    
  -3.88201594       3.88201594     -0.157000005       1.48521590       1.80218399    
  -3.37107491       3.37107491     -0.246999994       1.48521590       1.80218399    
  -3.96396494       2.64863706     -0.246999994       1.48521590       1.80218399    
  -4.56476784       3.05008101     -0.157000005       1.48521590       1.80218399    
  -3.05008101       4.56476784     -0.157000005       1.76565909       1.76480544    
  -2.64863706       3.96396494     -0.246999994       1.76565909       1.76480544    
  -3.37107491       3.37107491     -0.246999994       1.76565909       1.76480544    
  -3.88201594       3.88201594     -0.157000005       1.76565909       1.76480544    
  -2.10093188       5.07209921     -0.157000005       1.47425354       1.80396211    
  -1.82441294       4.40452194     -0.246999994       1.47425354       1.80396211    
  -2.64863706       3.96396494     -0.246999994       1.47425354       1.80396211    
  -3.05008101       4.56476784     -0.157000005       1.47425354       1.80396211    
  -1.07104599       5.38451099     -0.157000005       1.75910437       1.76550066    
 -0.930077016       4.67581606     -0.246999994       1.75910437       1.76550066    
  -1.82441294       4.40452194     -0.246999994       1.75910437       1.76550066    
  -2.10093188       5.07209921     -0.157000005       1.75910437       1.76550066    
   0.00000000       5.48999977     -0.157000005       1.46540093       1.80528939    
   0.00000000       4.76741982     -0.246999994       1.46540093       1.80528939    
 -0.930077016       4.67581606     -0.246999994       1.46540093       1.80528939    
  -1.07104599       5.38451099     -0.157000005       1.46540093       1.80528939    
   1.07104599       5.38451099     -0.157000005       1.74506116       1.76694679    
  0.930077016       4.67581606     -0.246999994       1.74506116       1.76694679    
   0.00000000       4.76741982     -0.246999994       1.74506116       1.76694679    
   0.00000000       5.48999977     -0.157000005       1.74506116       1.76694679    
   2.10093188       5.07209921     -0.157000005       1.41309035       1.81392372    
   1.82441294       4.40452194     -0.246999994       1.41309035       1.81392372    
  0.930077016       4.67581606     -0.246999994       1.41309035       1.81392372    
   1.07104599       5.38451099     -0.157000005       1.41309035       1.81392372    
   3.05008101       4.56476784     -0.157000005       1.40123689       1.81586540    
   2.64863706       3.96396494     -0.246999994       1.40123689       1.81586540    
   1.82441294       4.40452194     -0.246999994       1.40123689       1.81586540    
   2.10093188       5.07209921     -0.157000005       1.40123689       1.81586540    
   3.88201594       3.88201594     -0.157000005       1.77095163       1.76363981    
   3.37107491       3.37107491     -0.246999994       1.77095163       1.76363981    
   2.64863706       3.96396494     -0.246999994       1.77095163       1.76363981    
   3.05008101       4.56476784     -0.157000005       1.77095163       1.76363981    
   4.56476784       3.05008101     -0.157000005       1.53571403       1.79349768    
   3.96396494       2.64863706     -0.246999994       1.53571403       1.79349768    
   3.37107491       3.37107491     -0.246999994       1.53571403       1.79349768    
   3.88201594       3.88201594     -0.157000005       1.53571403       1.79349768    
   5.07209921       2.10093188     -0.157000005       1.57713985       1.78736162    
   4.40452194       1.82441294     -0.246999994       1.57713985       1.78736162    
   3.96396494       2.64863706     -0.246999994       1.57713985       1.78736162    
   4.56476784       3.05008101     -0.157000005       1.57713985       1.78736162    
   5.38451099       1.07104599     -0.157000005       1.30844498       1.83289969    
   4.67581606      0.930077016     -0.246999994       1.30844498       1.83289969    
   4.40452194       1.82441294     -0.246999994       1.30844498       1.83289969    
   5.07209921       2.10093188     -0.157000005       1.30844498       1.83289969    
   5.48999977       0.00000000     -0.157000005       1.26945031       1.84104991    
   4.76741982       0.00000000     -0.246999994       1.26945031       1.84104991    
   4.67581606      0.930077016     -0.246999994       1.26945031       1.84104991    
   5.38451099       1.07104599     -0.157000005       1.26945031       1.84104991    
   5.38451099      -1.07104599     -0.157000005       1.27139771       1.84049261    
   4.67581606     -0.930077016     -0.246999994       1.27139771       1.84049261    
   4.76741982       0.00000000     -0.246999994       1.27139771       1.84049261    
   5.48999977       0.00000000     -0.157000005       1.27139771       1.84049261    
   5.07209921      -2.10093188     -0.157000005       1.27684712       1.83919775    
   4.40452194      -1.82441294     -0.246999994       1.27684712       1.83919775    
   4.67581606     -0.930077016     -0.246999994       1.27684712       1.83919775    
   5.38451099      -1.07104599     -0.157000005       1.27684712       1.83919775    
   4.56476784      -3.05008101     -0.157000005       1.28653347       1.83703434    
   3.96396494      -2.64863706     -0.246999994       1.28653347       1.83703434    
   4.40452194      -1.82441294     -0.246999994       1.28653347       1.83703434    
   5.07209921      -2.10093188     -0.157000005       1.28653347       1.83703434    
   3.88201594      -3.88201594     -0.157000005       1.33526683       1.82700658    
   3.37107491      -3.37107491     -0.246999994       1.33526683       1.82700658    
   3.96396494      -2.64863706     -0.246999994       1.33526683       1.82700658    
   4.56476784      -3.05008101     -0.157000005       1.33526683       1.82700658    
   3.05008101      -4.56476784     -0.157000005       1.68011141       1.77339697    
   2.64863706      -3.96396494     -0.246999994       1.68011141       1.77339697    
   3.37107491      -3.37107491     -0.246999994       1.68011141       1.77339697    
   3.88201594      -3.88201594     -0.157000005       1.68011141       1.77339697    
   2.10093188      -5.07209921     -0.157000005       1.35397267       1.82336855    
   1.82441294      -4.40452194     -0.246999994       1.35397267       1.82336855    
   2.64863706      -3.96396494     -0.246999994       1.35397267       1.82336855    
   3.05008101      -4.56476784     -0.157000005       1.35397267       1.82336855    
   1.07104599      -5.38451099     -0.157000005       1.29816628       1.83456278    
  0.930077016      -4.67581606     -0.246999994       1.29816628       1.83456278    
   1.82441294      -4.40452194     -0.246999994       1.29816628       1.83456278    
   2.10093188      -5.07209921     -0.157000005       1.29816628       1.83456278    
   0.00000000      -1.87709999     -0.606999993      0.403731555       2.46472263    
   0.00000000      -1.36500001     -0.606999993      0.403731555       2.46472263    
  0.266297996      -1.33877206     -0.606999993      0.403731555       2.46472263    
  0.366203994      -1.84103203     -0.606999993      0.403731555       2.46472263    
   0.00000000      -1.87709999     -0.606999993      0.585930884       2.12956715    
   0.00000000      -2.59967995     -0.517000020      0.585930884       2.12956715    
 -0.507171988      -2.54972792     -0.517000020      0.585930884       2.12956715    
 -0.366203994      -1.84103203     -0.606999993      0.585930884       2.12956715    
 -0.366203994      -1.84103203     -0.606999993      0.398025274       2.48290086    
 -0.266297996      -1.33877206     -0.606999993      0.398025274       2.48290086    
   0.00000000      -1.36500001     -0.606999993      0.398025274       2.48290086    
   0.00000000      -1.87709999     -0.606999993      0.398025274       2.48290086    
 -0.366203994      -1.84103203     -0.606999993      0.581659555       2.13427401    
 -0.507171988      -2.54972792     -0.517000020      0.581659555       2.13427401    
 -0.994853973      -2.40179110     -0.517000020      0.581659555       2.13427401    
 -0.718334973      -1.73421395     -0.606999993      0.581659555       2.13427401    
 -0.718334973      -1.73421395     -0.606999993      0.391951859       2.50332475    
 -0.522363007      -1.26109600     -0.606999993      0.391951859       2.50332475    
 -0.266297996      -1.33877206     -0.606999993      0.391951859       2.50332475    
 -0.366203994      -1.84103203     -0.606999993      0.391951859       2.50332475    
 -0.718334973      -1.73421395     -0.606999993      0.576155663       2.14044333    
 -0.994853973      -2.40179110     -0.517000020      0.576155663       2.14044333    
  -1.44430494      -2.16155505     -0.517000020      0.576155663       2.14044333    
  -1.04286098      -1.56075203     -0.606999993      0.576155663       2.14044333    
  -1.04286098      -1.56075203     -0.606999993      0.385762542       2.52543569    
 -0.758352995      -1.13495600     -0.606999993      0.385762542       2.52543569    
 -0.522363007      -1.26109600     -0.606999993      0.385762542       2.52543569    
 -0.718334973      -1.73421395     -0.606999993      0.385762542       2.52543569    
  -1.04286098      -1.56075203     -0.606999993      0.571663439       2.14565754    
  -1.44430494      -2.16155505     -0.517000020      0.571663439       2.14565754    
  -1.83825099      -1.83825099     -0.517000020      0.571663439       2.14565754    
  -1.32730997      -1.32730997     -0.606999993      0.571663439       2.14565754    
  -1.32730997      -1.32730997     -0.606999993      0.380716801       2.54459786    
 -0.965201020     -0.965201020     -0.606999993      0.380716801       2.54459786    
 -0.758352995      -1.13495600     -0.606999993      0.380716801       2.54459786    
  -1.04286098      -1.56075203     -0.606999993      0.380716801       2.54459786    
  -1.32730997      -1.32730997     -0.606999993      0.570724249       2.14693761    
  -1.83825099      -1.83825099     -0.517000020      0.570724249       2.14693761    
  -2.16155505      -1.44430494     -0.517000020      0.570724249       2.14693761    
  -1.56075203      -1.04286098     -0.606999993      0.570724249       2.14693761    
  -1.56075203      -1.04286098     -0.606999993      0.378160417       2.55486870    
  -1.13495600     -0.758352995     -0.606999993      0.378160417       2.55486870    
 -0.965201020     -0.965201020     -0.606999993      0.378160417       2.55486870    
  -1.32730997      -1.32730997     -0.606999993      0.378160417       2.55486870    
  -1.56075203      -1.04286098     -0.606999993      0.575915098       2.14131784    
  -2.16155505      -1.44430494     -0.517000020      0.575915098       2.14131784    
  -2.40179110     -0.994853973     -0.517000020      0.575915098       2.14131784    
  -1.73421395     -0.718334973     -0.606999993      0.575915098       2.14131784    
  -1.73421395     -0.718334973     -0.606999993      0.380495042       2.54597259    
  -1.26109600     -0.522363007     -0.606999993      0.380495042       2.54597259    
  -1.13495600     -0.758352995     -0.606999993      0.380495042       2.54597259    
  -1.56075203      -1.04286098     -0.606999993      0.380495042       2.54597259    
  -1.73421395     -0.718334973     -0.606999993      0.586406767       2.13005543    
  -2.40179110     -0.994853973     -0.517000020      0.586406767       2.13005543    
  -2.54972792     -0.507171988     -0.517000020      0.586406767       2.13005543    
  -1.84103203     -0.366203994     -0.606999993      0.586406767       2.13005543    
  -1.84103203     -0.366203994     -0.606999993      0.386274844       2.52447009    
  -1.33877206     -0.266297996     -0.606999993      0.386274844       2.52447009    
  -1.26109600     -0.522363007     -0.606999993      0.386274844       2.52447009    
  -1.73421395     -0.718334973     -0.606999993      0.386274844       2.52447009    
  -1.84103203     -0.366203994     -0.606999993      0.599903047       2.11618567    
  -2.54972792     -0.507171988     -0.517000020      0.599903047       2.11618567    
  -2.59967995       0.00000000     -0.517000020      0.599903047       2.11618567    
  -1.87709999       0.00000000     -0.606999993      0.599903047       2.11618567    
  -1.87709999       0.00000000     -0.606999993      0.393851191       2.49804616    
  -1.36500001       0.00000000     -0.606999993      0.393851191       2.49804616    
  -1.33877206     -0.266297996     -0.606999993      0.393851191       2.49804616    
  -1.84103203     -0.366203994     -0.606999993      0.393851191       2.49804616    
  -1.87709999       0.00000000     -0.606999993      0.613491774       2.10295010    
  -2.59967995       0.00000000     -0.517000020      0.613491774       2.10295010    
  -2.54972792      0.507171988     -0.517000020      0.613491774       2.10295010    
  -1.84103203      0.366203994     -0.606999993      0.613491774       2.10295010    
  -1.84103203      0.366203994     -0.606999993      0.402137697       2.47122073    
  -1.33877206      0.266297996     -0.606999993      0.402137697       2.47122073    
  -1.36500001       0.00000000     -0.606999993      0.402137697       2.47122073    
  -1.87709999       0.00000000     -0.606999993      0.402137697       2.47122073    
  -1.84103203      0.366203994     -0.606999993      0.624449134       2.09279060    
  -2.54972792      0.507171988     -0.517000020      0.624449134       2.09279060    
  -2.40179110      0.994853973     -0.517000020      0.624449134       2.09279060    
  -1.73421395      0.718334973     -0.606999993      0.624449134       2.09279060    
  -1.73421395      0.718334973     -0.606999993      0.410147041       2.44710875    
  -1.26109600      0.522363007     -0.606999993      0.410147041       2.44710875    
  -1.33877206      0.266297996     -0.606999993      0.410147041       2.44710875    
  -1.84103203      0.366203994     -0.606999993      0.410147041       2.44710875    
  -1.73421395      0.718334973     -0.606999993      0.631842852       2.08618641    
  -2.40179110      0.994853973     -0.517000020      0.631842852       2.08618641    
  -2.16155505       1.44430494     -0.517000020      0.631842852       2.08618641    
  -1.56075203       1.04286098     -0.606999993      0.631842852       2.08618641    
  -1.56075203       1.04286098     -0.606999993      0.417026430       2.42763591    
  -1.13495600      0.758352995     -0.606999993      0.417026430       2.42763591    
  -1.26109600      0.522363007     -0.606999993      0.417026430       2.42763591    
  -1.73421395      0.718334973     -0.606999993      0.417026430       2.42763591    
  -1.56075203       1.04286098     -0.606999993      0.635700464       2.08280444    
  -2.16155505       1.44430494     -0.517000020      0.635700464       2.08280444    
  -1.83825099       1.83825099     -0.517000020      0.635700464       2.08280444    
  -1.32730997       1.32730997     -0.606999993      0.635700464       2.08280444    
  -1.32730997       1.32730997     -0.606999993      0.422113955       2.41387868    
 -0.965201020      0.965201020     -0.606999993      0.422113955       2.41387868    
  -1.13495600      0.758352995     -0.606999993      0.422113955       2.41387868    
  -1.56075203       1.04286098     -0.606999993      0.422113955       2.41387868    
  -1.32730997       1.32730997     -0.606999993      0.636615515       2.08199477    
  -1.83825099       1.83825099     -0.517000020      0.636615515       2.08199477    
  -1.44430494       2.16155505     -0.517000020      0.636615515       2.08199477    
  -1.04286098       1.56075203     -0.606999993      0.636615515       2.08199477    
  -1.04286098       1.56075203     -0.606999993      0.424961656       2.40637541    
 -0.758352995       1.13495600     -0.606999993      0.424961656       2.40637541    
 -0.965201020      0.965201020     -0.606999993      0.424961656       2.40637541    
  -1.32730997       1.32730997     -0.606999993      0.424961656       2.40637541    
  -1.04286098       1.56075203     -0.606999993      0.636005104       2.08251071    
  -1.44430494       2.16155505     -0.517000020      0.636005104       2.08251071    
 -0.994853973       2.40179110     -0.517000020      0.636005104       2.08251071    
 -0.718334973       1.73421395     -0.606999993      0.636005104       2.08251071    
 -0.718334973       1.73421395     -0.606999993      0.425703973       2.40441656    
 -0.522363007       1.26109600     -0.606999993      0.425703973       2.40441656    
 -0.758352995       1.13495600     -0.606999993      0.425703973       2.40441656    
  -1.04286098       1.56075203     -0.606999993      0.425703973       2.40441656    
 -0.718334973       1.73421395     -0.606999993      0.633905113       2.08434296    
 -0.994853973       2.40179110     -0.517000020      0.633905113       2.08434296    
 -0.507171988       2.54972792     -0.517000020      0.633905113       2.08434296    
 -0.366203994       1.84103203     -0.606999993      0.633905113       2.08434296    
 -0.366203994       1.84103203     -0.606999993      0.424788296       2.40673709    
 -0.266297996       1.33877206     -0.606999993      0.424788296       2.40673709    
 -0.522363007       1.26109600     -0.606999993      0.424788296       2.40673709    
 -0.718334973       1.73421395     -0.606999993      0.424788296       2.40673709    
 -0.366203994       1.84103203     -0.606999993      0.630183578       2.08761525    
 -0.507171988       2.54972792     -0.517000020      0.630183578       2.08761525    
   0.00000000       2.59967995     -0.517000020      0.630183578       2.08761525    
   0.00000000       1.87709999     -0.606999993      0.630183578       2.08761525    
   0.00000000       1.87709999     -0.606999993      0.421985209       2.41402435    
   0.00000000       1.36500001     -0.606999993      0.421985209       2.41402435    
 -0.266297996       1.33877206     -0.606999993      0.421985209       2.41402435    
 -0.366203994       1.84103203     -0.606999993      0.421985209       2.41402435    
   0.00000000       1.87709999     -0.606999993      0.624946713       2.09226799    
   0.00000000       2.59967995     -0.517000020      0.624946713       2.09226799    
  0.507171988       2.54972792     -0.517000020      0.624946713       2.09226799    
  0.366203994       1.84103203     -0.606999993      0.624946713       2.09226799    
  0.366203994       1.84103203     -0.606999993      0.417854846       2.42505264    
  0.266297996       1.33877206     -0.606999993      0.417854846       2.42505264    
   0.00000000       1.36500001     -0.606999993      0.417854846       2.42505264    
   0.00000000       1.87709999     -0.606999993      0.417854846       2.42505264    
  0.366203994       1.84103203     -0.606999993      0.618462801       2.09812713    
  0.507171988       2.54972792     -0.517000020      0.618462801       2.09812713    
  0.994853973       2.40179110     -0.517000020      0.618462801       2.09812713    
  0.718334973       1.73421395     -0.606999993      0.618462801       2.09812713    
  0.718334973       1.73421395     -0.606999993      0.412686020       2.43936944    
  0.522363007       1.26109600     -0.606999993      0.412686020       2.43936944    
  0.266297996       1.33877206     -0.606999993      0.412686020       2.43936944    
  0.366203994       1.84103203     -0.606999993      0.412686020       2.43936944    
  0.718334973       1.73421395     -0.606999993      0.611275375       2.10480666    
  0.994853973       2.40179110     -0.517000020      0.611275375       2.10480666    
   1.44430494       2.16155505     -0.517000020      0.611275375       2.10480666    
   1.04286098       1.56075203     -0.606999993      0.611275375       2.10480666    
   1.04286098       1.56075203     -0.606999993      0.406323433       2.45788574    
  0.758352995       1.13495600     -0.606999993      0.406323433       2.45788574    
  0.522363007       1.26109600     -0.606999993      0.406323433       2.45788574    
  0.718334973       1.73421395     -0.606999993      0.406323433       2.45788574    
   1.04286098       1.56075203     -0.606999993      0.603863955       2.11191225    
   1.44430494       2.16155505     -0.517000020      0.603863955       2.11191225    
   1.83825099       1.83825099     -0.517000020      0.603863955       2.11191225    
   1.32730997       1.32730997     -0.606999993      0.603863955       2.11191225    
   1.32730997       1.32730997     -0.606999993      0.399557948       2.47874999    
  0.965201020      0.965201020     -0.606999993      0.399557948       2.47874999    
  0.758352995       1.13495600     -0.606999993      0.399557948       2.47874999    
   1.04286098       1.56075203     -0.606999993      0.399557948       2.47874999    
   1.32730997       1.32730997     -0.606999993      0.596103311       2.11959314    
   1.83825099       1.83825099     -0.517000020      0.596103311       2.11959314    
   2.16155505       1.44430494     -0.517000020      0.596103311       2.11959314    
   1.56075203       1.04286098     -0.606999993      0.596103311       2.11959314    
   1.56075203       1.04286098     -0.606999993      0.393098712       2.49991226    
   1.13495600      0.758352995     -0.606999993      0.393098712       2.49991226    
  0.965201020      0.965201020     -0.606999993      0.393098712       2.49991226    
   1.32730997       1.32730997     -0.606999993      0.393098712       2.49991226    
   1.56075203       1.04286098     -0.606999993      0.589580297       2.12619281    
   2.16155505       1.44430494     -0.517000020      0.589580297       2.12619281    
   2.40179110      0.994853973     -0.517000020      0.589580297       2.12619281    
   1.73421395      0.718334973     -0.606999993      0.589580297       2.12619281    
   1.73421395      0.718334973     -0.606999993      0.389593631       2.51182318    
   1.26109600      0.522363007     -0.606999993      0.389593631       2.51182318    
   1.13495600      0.758352995     -0.606999993      0.389593631       2.51182318    
   1.56075203       1.04286098     -0.606999993      0.389593631       2.51182318    
   1.73421395      0.718334973     -0.606999993      0.585274100       2.13055873    
   2.40179110      0.994853973     -0.517000020      0.585274100       2.13055873    
   2.54972792      0.507171988     -0.517000020      0.585274100       2.13055873    
   1.84103203      0.366203994     -0.606999993      0.585274100       2.13055873    
   1.84103203      0.366203994     -0.606999993      0.391498566       2.50493836    
   1.33877206      0.266297996     -0.606999993      0.391498566       2.50493836    
   1.26109600      0.522363007     -0.606999993      0.391498566       2.50493836    
   1.73421395      0.718334973     -0.606999993      0.391498566       2.50493836    
   1.84103203      0.366203994     -0.606999993      0.583524227       2.13224554    
   2.54972792      0.507171988     -0.517000020      0.583524227       2.13224554    
   2.59967995       0.00000000     -0.517000020      0.583524227       2.13224554    
   1.87709999       0.00000000     -0.606999993      0.583524227       2.13224554    
   1.87709999       0.00000000     -0.606999993      0.395523936       2.49109030    
   1.36500001       0.00000000     -0.606999993      0.395523936       2.49109030    
   1.33877206      0.266297996     -0.606999993      0.395523936       2.49109030    
   1.84103203      0.366203994     -0.606999993      0.395523936       2.49109030    
   1.87709999       0.00000000     -0.606999993      0.584234893       2.13133669    
   2.59967995       0.00000000     -0.517000020      0.584234893       2.13133669    
   2.54972792     -0.507171988     -0.517000020      0.584234893       2.13133669    
   1.84103203     -0.366203994     -0.606999993      0.584234893       2.13133669    
   1.84103203     -0.366203994     -0.606999993      0.399952024       2.47652793    
   1.33877206     -0.266297996     -0.606999993      0.399952024       2.47652793    
   1.36500001       0.00000000     -0.606999993      0.399952024       2.47652793    
   1.87709999       0.00000000     -0.606999993      0.399952024       2.47652793    
   1.84103203     -0.366203994     -0.606999993      0.586519122       2.12879205    
   2.54972792     -0.507171988     -0.517000020      0.586519122       2.12879205    
   2.40179110     -0.994853973     -0.517000020      0.586519122       2.12879205    
   1.73421395     -0.718334973     -0.606999993      0.586519122       2.12879205    
   1.73421395     -0.718334973     -0.606999993      0.404287279       2.46287751    
   1.26109600     -0.522363007     -0.606999993      0.404287279       2.46287751    
   1.33877206     -0.266297996     -0.606999993      0.404287279       2.46287751    
   1.84103203     -0.366203994     -0.606999993      0.404287279       2.46287751    
   1.73421395     -0.718334973     -0.606999993      0.589265764       2.12580514    
   2.40179110     -0.994853973     -0.517000020      0.589265764       2.12580514    
   2.16155505      -1.44430494     -0.517000020      0.589265764       2.12580514    
   1.56075203      -1.04286098     -0.606999993      0.589265764       2.12580514    
   1.56075203      -1.04286098     -0.606999993      0.408137798       2.45118356    
   1.13495600     -0.758352995     -0.606999993      0.408137798       2.45118356    
   1.26109600     -0.522363007     -0.606999993      0.408137798       2.45118356    