 VARIABLES="X" "Y" "Z" "abs(p) (Pa)" "angle(p) (rad)"
ZONE N=   2709,E =    2358, F=FEPOINT, ET=QUADRILATERAL
   0.00000000      -5.48999977     -0.157000005       4463.83350      -1.60247302    
   0.00000000      -4.76741982     -0.246999994       4463.83350      -1.60247302    
  0.930077016      -4.67581606     -0.246999994       4463.83350      -1.60247302    
   1.07104599      -5.38451099     -0.157000005       4463.83350      -1.60247302    
  -1.07104599      -5.38451099     -0.157000005       4463.50977      -1.60374773    
 -0.930077016      -4.67581606     -0.246999994       4463.50977      -1.60374773    
   0.00000000      -4.76741982     -0.246999994       4463.50977      -1.60374773    
   0.00000000      -5.48999977     -0.157000005       4463.50977      -1.60374773    
  -2.10093188      -5.07209921     -0.157000005       4350.56006      -1.60322309    
  -1.82441294      -4.40452194     -0.246999994       4350.56006      -1.60322309    
 -0.930077016      -4.67581606     -0.246999994       4350.56006      -1.60322309    
  -1.07104599      -5.38451099     -0.157000005       4350.56006      -1.60322309    
  -3.05008101      -4.56476784     -0.157000005       3950.31592      -1.60365093    
  -2.64863706      -3.96396494     -0.246999994       3950.31592      -1.60365093    
  -1.82441294      -4.40452194     -0.246999994       3950.31592      -1.60365093    
  -2.10093188      -5.07209921     -0.157000005       3950.31592      -1.60365093    
  -3.88201594      -3.88201594     -0.157000005       3463.50732      -1.60118723    
  -3.37107491      -3.37107491     -0.246999994       3463.50732      -1.60118723    
  -2.64863706      -3.96396494     -0.246999994       3463.50732      -1.60118723    
  -3.05008101      -4.56476784     -0.157000005       3463.50732      -1.60118723    
  -4.56476784      -3.05008101     -0.157000005       2898.83887      -1.59696698    
  -3.96396494      -2.64863706     -0.246999994       2898.83887      -1.59696698    
  -3.37107491      -3.37107491     -0.246999994       2898.83887      -1.59696698    
  -3.88201594      -3.88201594     -0.157000005       2898.83887      -1.59696698    
  -5.07209921      -2.10093188     -0.157000005       2120.04834      -1.59671617    
  -4.40452194      -1.82441294     -0.246999994       2120.04834      -1.59671617    
  -3.96396494      -2.64863706     -0.246999994       2120.04834      -1.59671617    
  -4.56476784      -3.05008101     -0.157000005       2120.04834      -1.59671617    
  -5.38451099      -1.07104599     -0.157000005       1292.43494      -1.59933472    
  -4.67581606     -0.930077016     -0.246999994       1292.43494      -1.59933472    
  -4.40452194      -1.82441294     -0.246999994       1292.43494      -1.59933472    
  -5.07209921      -2.10093188     -0.157000005       1292.43494      -1.59933472    
  -5.48999977       0.00000000     -0.157000005       432.324036      -1.61015630    
  -4.76741982       0.00000000     -0.246999994       432.324036      -1.61015630    
  -4.67581606     -0.930077016     -0.246999994       432.324036      -1.61015630    
  -5.38451099      -1.07104599     -0.157000005       432.324036      -1.61015630    
  -5.38451099       1.07104599     -0.157000005       456.846588       1.55427885    
  -4.67581606      0.930077016     -0.246999994       456.846588       1.55427885    
  -4.76741982       0.00000000     -0.246999994       456.846588       1.55427885    
  -5.48999977       0.00000000     -0.157000005       456.846588       1.55427885    
  -5.07209921       2.10093188     -0.157000005       1329.82007       1.54288125    
  -4.40452194       1.82441294     -0.246999994       1329.82007       1.54288125    
  -4.67581606      0.930077016     -0.246999994       1329.82007       1.54288125    
  -5.38451099       1.07104599     -0.157000005       1329.82007       1.54288125    
  -4.56476784       3.05008101     -0.157000005       2152.24609       1.53963161    
  -3.96396494       2.64863706     -0.246999994       2152.24609       1.53963161    
  -4.40452194       1.82441294     -0.246999994       2152.24609       1.53963161    
  -5.07209921       2.10093188     -0.157000005       2152.24609       1.53963161    
  -3.88201594       3.88201594     -0.157000005       2853.44531       1.53773093    
  -3.37107491       3.37107491     -0.246999994       2853.44531       1.53773093    
  -3.96396494       2.64863706     -0.246999994       2853.44531       1.53773093    
  -4.56476784       3.05008101     -0.157000005       2853.44531       1.53773093    
  -3.05008101       4.56476784     -0.157000005       3527.35352       1.53949142    
  -2.64863706       3.96396494     -0.246999994       3527.35352       1.53949142    
  -3.37107491       3.37107491     -0.246999994       3527.35352       1.53949142    
  -3.88201594       3.88201594     -0.157000005       3527.35352       1.53949142    
  -2.10093188       5.07209921     -0.157000005       3970.07983       1.53885055    
  -1.82441294       4.40452194     -0.246999994       3970.07983       1.53885055    
  -2.64863706       3.96396494     -0.246999994       3970.07983       1.53885055    
  -3.05008101       4.56476784     -0.157000005       3970.07983       1.53885055    
  -1.07104599       5.38451099     -0.157000005       4366.68652       1.53977346    
 -0.930077016       4.67581606     -0.246999994       4366.68652       1.53977346    
  -1.82441294       4.40452194     -0.246999994       4366.68652       1.53977346    
  -2.10093188       5.07209921     -0.157000005       4366.68652       1.53977346    
   0.00000000       5.48999977     -0.157000005       4478.94678       1.53771770    
   0.00000000       4.76741982     -0.246999994       4478.94678       1.53771770    
 -0.930077016       4.67581606     -0.246999994       4478.94678       1.53771770    
  -1.07104599       5.38451099     -0.157000005       4478.94678       1.53771770    
   1.07104599       5.38451099     -0.157000005       4535.17334       1.53803563    
  0.930077016       4.67581606     -0.246999994       4535.17334       1.53803563    
   0.00000000       4.76741982     -0.246999994       4535.17334       1.53803563    
   0.00000000       5.48999977     -0.157000005       4535.17334       1.53803563    
   2.10093188       5.07209921     -0.157000005       4293.87207       1.53686225    
   1.82441294       4.40452194     -0.246999994       4293.87207       1.53686225    
  0.930077016       4.67581606     -0.246999994       4293.87207       1.53686225    
   1.07104599       5.38451099     -0.157000005       4293.87207       1.53686225    
   3.05008101       4.56476784     -0.157000005       3949.05103       1.53849149    
   2.64863706       3.96396494     -0.246999994       3949.05103       1.53849149    
   1.82441294       4.40452194     -0.246999994       3949.05103       1.53849149    
   2.10093188       5.07209921     -0.157000005       3949.05103       1.53849149    
   3.88201594       3.88201594     -0.157000005       3517.82861       1.54277790    
   3.37107491       3.37107491     -0.246999994       3517.82861       1.54277790    
   2.64863706       3.96396494     -0.246999994       3517.82861       1.54277790    
   3.05008101       4.56476784     -0.157000005       3517.82861       1.54277790    
   4.56476784       3.05008101     -0.157000005       2879.33716       1.54556894    
   3.96396494       2.64863706     -0.246999994       2879.33716       1.54556894    
   3.37107491       3.37107491     -0.246999994       2879.33716       1.54556894    
   3.88201594       3.88201594     -0.157000005       2879.33716       1.54556894    
   5.07209921       2.10093188     -0.157000005       2150.30859       1.54712427    
   4.40452194       1.82441294     -0.246999994       2150.30859       1.54712427    
   3.96396494       2.64863706     -0.246999994       2150.30859       1.54712427    
   4.56476784       3.05008101     -0.157000005       2150.30859       1.54712427    
   5.38451099       1.07104599     -0.157000005       1297.16125       1.54318106    
   4.67581606      0.930077016     -0.246999994       1297.16125       1.54318106    
   4.40452194       1.82441294     -0.246999994       1297.16125       1.54318106    
   5.07209921       2.10093188     -0.157000005       1297.16125       1.54318106    
   5.48999977       0.00000000     -0.157000005       431.228058       1.52694368    
   4.76741982       0.00000000     -0.246999994       431.228058       1.52694368    
   4.67581606      0.930077016     -0.246999994       431.228058       1.52694368    
   5.38451099       1.07104599     -0.157000005       431.228058       1.52694368    
   5.38451099      -1.07104599     -0.157000005       443.158875      -1.58024430    
   4.67581606     -0.930077016     -0.246999994       443.158875      -1.58024430    
   4.76741982       0.00000000     -0.246999994       443.158875      -1.58024430    
   5.48999977       0.00000000     -0.157000005       443.158875      -1.58024430    
   5.07209921      -2.10093188     -0.157000005       1301.08398      -1.59696507    
   4.40452194      -1.82441294     -0.246999994       1301.08398      -1.59696507    
   4.67581606     -0.930077016     -0.246999994       1301.08398      -1.59696507    
   5.38451099      -1.07104599     -0.157000005       1301.08398      -1.59696507    
   4.56476784      -3.05008101     -0.157000005       2111.31543      -1.60209167    
   3.96396494      -2.64863706     -0.246999994       2111.31543      -1.60209167    
   4.40452194      -1.82441294     -0.246999994       2111.31543      -1.60209167    
   5.07209921      -2.10093188     -0.157000005       2111.31543      -1.60209167    
   3.88201594      -3.88201594     -0.157000005       2844.65576      -1.60364950    
   3.37107491      -3.37107491     -0.246999994       2844.65576      -1.60364950    
   3.96396494      -2.64863706     -0.246999994       2844.65576      -1.60364950    
   4.56476784      -3.05008101     -0.157000005       2844.65576      -1.60364950    
   3.05008101      -4.56476784     -0.157000005       3519.64941      -1.60196865    
   2.64863706      -3.96396494     -0.246999994       3519.64941      -1.60196865    
   3.37107491      -3.37107491     -0.246999994       3519.64941      -1.60196865    
   3.88201594      -3.88201594     -0.157000005       3519.64941      -1.60196865    
   2.10093188      -5.07209921     -0.157000005       3958.23975      -1.60215783    
   1.82441294      -4.40452194     -0.246999994       3958.23975      -1.60215783    
   2.64863706      -3.96396494     -0.246999994       3958.23975      -1.60215783    
   3.05008101      -4.56476784     -0.157000005       3958.23975      -1.60215783    
   1.07104599      -5.38451099     -0.157000005       4291.91260      -1.60179794    
  0.930077016      -4.67581606     -0.246999994       4291.91260      -1.60179794    
   1.82441294      -4.40452194     -0.246999994       4291.91260      -1.60179794    
   2.10093188      -5.07209921     -0.157000005       4291.91260      -1.60179794    
   0.00000000      -1.87709999     -0.606999993       4095.13477      -1.57499528    
   0.00000000      -1.36500001     -0.606999993       4095.13477      -1.57499528    
  0.266297996      -1.33877206     -0.606999993       4095.13477      -1.57499528    
  0.366203994      -1.84103203     -0.606999993       4095.13477      -1.57499528    
   0.00000000      -1.87709999     -0.606999993       3876.39600      -1.57569575    
   0.00000000      -2.59967995     -0.517000020       3876.39600      -1.57569575    
 -0.507171988      -2.54972792     -0.517000020       3876.39600      -1.57569575    
 -0.366203994      -1.84103203     -0.606999993       3876.39600      -1.57569575    
 -0.366203994      -1.84103203     -0.606999993       4096.41064      -1.57505929    
 -0.266297996      -1.33877206     -0.606999993       4096.41064      -1.57505929    
   0.00000000      -1.36500001     -0.606999993       4096.41064      -1.57505929    
   0.00000000      -1.87709999     -0.606999993       4096.41064      -1.57505929    
 -0.366203994      -1.84103203     -0.606999993       3718.08911      -1.57573402    
 -0.507171988      -2.54972792     -0.517000020       3718.08911      -1.57573402    
 -0.994853973      -2.40179110     -0.517000020       3718.08911      -1.57573402    
 -0.718334973      -1.73421395     -0.606999993       3718.08911      -1.57573402    
 -0.718334973      -1.73421395     -0.606999993       3935.66992      -1.57512903    
 -0.522363007      -1.26109600     -0.606999993       3935.66992      -1.57512903    
 -0.266297996      -1.33877206     -0.606999993       3935.66992      -1.57512903    
 -0.366203994      -1.84103203     -0.606999993       3935.66992      -1.57512903    
 -0.718334973      -1.73421395     -0.606999993       3419.33252      -1.57576048    
 -0.994853973      -2.40179110     -0.517000020       3419.33252      -1.57576048    
  -1.44430494      -2.16155505     -0.517000020       3419.33252      -1.57576048    
  -1.04286098      -1.56075203     -0.606999993       3419.33252      -1.57576048    
  -1.04286098      -1.56075203     -0.606999993       3624.27002      -1.57518947    
 -0.758352995      -1.13495600     -0.606999993       3624.27002      -1.57518947    
 -0.522363007      -1.26109600     -0.606999993       3624.27002      -1.57518947    
 -0.718334973      -1.73421395     -0.606999993       3624.27002      -1.57518947    
  -1.04286098      -1.56075203     -0.606999993       2998.78223      -1.57575417    
  -1.44430494      -2.16155505     -0.517000020       2998.78223      -1.57575417    
  -1.83825099      -1.83825099     -0.517000020       2998.78223      -1.57575417    
  -1.32730997      -1.32730997     -0.606999993       2998.78223      -1.57575417    
  -1.32730997      -1.32730997     -0.606999993       3177.18237      -1.57524538    
 -0.965201020     -0.965201020     -0.606999993       3177.18237      -1.57524538    
 -0.758352995      -1.13495600     -0.606999993       3177.18237      -1.57524538    
  -1.04286098      -1.56075203     -0.606999993       3177.18237      -1.57524538    
  -1.32730997      -1.32730997     -0.606999993       2467.46265      -1.57571256    
  -1.83825099      -1.83825099     -0.517000020       2467.46265      -1.57571256    
  -2.16155505      -1.44430494     -0.517000020       2467.46265      -1.57571256    
  -1.56075203      -1.04286098     -0.606999993       2467.46265      -1.57571256    
  -1.56075203      -1.04286098     -0.606999993       2610.05054      -1.57527375    
  -1.13495600     -0.758352995     -0.606999993       2610.05054      -1.57527375    
 -0.965201020     -0.965201020     -0.606999993       2610.05054      -1.57527375    
  -1.32730997      -1.32730997     -0.606999993       2610.05054      -1.57527375    
  -1.56075203      -1.04286098     -0.606999993       1837.14514      -1.57563734    
  -2.16155505      -1.44430494     -0.517000020       1837.14514      -1.57563734    
  -2.40179110     -0.994853973     -0.517000020       1837.14514      -1.57563734    
  -1.73421395     -0.718334973     -0.606999993       1837.14514      -1.57563734    
  -1.73421395     -0.718334973     -0.606999993       1940.93457      -1.57527828    
  -1.26109600     -0.522363007     -0.606999993       1940.93457      -1.57527828    
  -1.13495600     -0.758352995     -0.606999993       1940.93457      -1.57527828    
  -1.56075203      -1.04286098     -0.606999993       1940.93457      -1.57527828    
  -1.73421395     -0.718334973     -0.606999993       1130.07068      -1.57553804    
  -2.40179110     -0.994853973     -0.517000020       1130.07068      -1.57553804    
  -2.54972792     -0.507171988     -0.517000020       1130.07068      -1.57553804    
  -1.84103203     -0.366203994     -0.606999993       1130.07068      -1.57553804    
  -1.84103203     -0.366203994     -0.606999993       1193.95105      -1.57525957    
  -1.33877206     -0.266297996     -0.606999993       1193.95105      -1.57525957    
  -1.26109600     -0.522363007     -0.606999993       1193.95105      -1.57525957    
  -1.73421395     -0.718334973     -0.606999993       1193.95105      -1.57525957    
  -1.84103203     -0.366203994     -0.606999993       378.798798      -1.57531250    
  -2.54972792     -0.507171988     -0.517000020       378.798798      -1.57531250    
  -2.59967995       0.00000000     -0.517000020       378.798798      -1.57531250    
  -1.87709999       0.00000000     -0.606999993       378.798798      -1.57531250    
  -1.87709999       0.00000000     -0.606999993       399.318176      -1.57516098    
  -1.36500001       0.00000000     -0.606999993       399.318176      -1.57516098    
  -1.33877206     -0.266297996     -0.606999993       399.318176      -1.57516098    
  -1.84103203     -0.366203994     -0.606999993       399.318176      -1.57516098    
  -1.87709999       0.00000000     -0.606999993       385.349640       1.56562233    
  -2.59967995       0.00000000     -0.517000020       385.349640       1.56562233    
  -2.54972792      0.507171988     -0.517000020       385.349640       1.56562233    
  -1.84103203      0.366203994     -0.606999993       385.349640       1.56562233    
  -1.84103203      0.366203994     -0.606999993       410.790436       1.56614542    
  -1.33877206      0.266297996     -0.606999993       410.790436       1.56614542    
  -1.36500001       0.00000000     -0.606999993       410.790436       1.56614542    
  -1.87709999       0.00000000     -0.606999993       410.790436       1.56614542    
  -1.84103203      0.366203994     -0.606999993       1136.23840       1.56575429    
  -2.54972792      0.507171988     -0.517000020       1136.23840       1.56575429    
  -2.40179110      0.994853973     -0.517000020       1136.23840       1.56575429    
  -1.73421395      0.718334973     -0.606999993       1136.23840       1.56575429    
  -1.73421395      0.718334973     -0.606999993       1204.99707       1.56619382    
  -1.26109600      0.522363007     -0.606999993       1204.99707       1.56619382    
  -1.33877206      0.266297996     -0.606999993       1204.99707       1.56619382    
  -1.84103203      0.366203994     -0.606999993       1204.99707       1.56619382    
  -1.73421395      0.718334973     -0.606999993       1844.20813       1.56570435    
  -2.40179110      0.994853973     -0.517000020       1844.20813       1.56570435    
  -2.16155505       1.44430494     -0.517000020       1844.20813       1.56570435    
  -1.56075203       1.04286098     -0.606999993       1844.20813       1.56570435    
  -1.56075203       1.04286098     -0.606999993       1951.87524       1.56617820    
  -1.13495600      0.758352995     -0.606999993       1951.87524       1.56617820    
  -1.26109600      0.522363007     -0.606999993       1951.87524       1.56617820    
  -1.73421395      0.718334973     -0.606999993       1951.87524       1.56617820    
  -1.56075203       1.04286098     -0.606999993       2476.18433       1.56565118    
  -2.16155505       1.44430494     -0.517000020       2476.18433       1.56565118    
  -1.83825099       1.83825099     -0.517000020       2476.18433       1.56565118    
  -1.32730997       1.32730997     -0.606999993       2476.18433       1.56565118    
  -1.32730997       1.32730997     -0.606999993       2621.09351       1.56617308    
 -0.965201020      0.965201020     -0.606999993       2621.09351       1.56617308    
  -1.13495600      0.758352995     -0.606999993       2621.09351       1.56617308    
  -1.56075203       1.04286098     -0.606999993       2621.09351       1.56617308    
  -1.32730997       1.32730997     -0.606999993       3008.16919       1.56564498    
  -1.83825099       1.83825099     -0.517000020       3008.16919       1.56564498    
  -1.44430494       2.16155505     -0.517000020       3008.16919       1.56564498    
  -1.04286098       1.56075203     -0.606999993       3008.16919       1.56564498    
  -1.04286098       1.56075203     -0.606999993       3187.94556       1.56619203    
 -0.758352995       1.13495600     -0.606999993       3187.94556       1.56619203    
 -0.965201020      0.965201020     -0.606999993       3187.94556       1.56619203    
  -1.32730997       1.32730997     -0.606999993       3187.94556       1.56619203    
  -1.04286098       1.56075203     -0.606999993       3428.20288       1.56567478    
  -1.44430494       2.16155505     -0.517000020       3428.20288       1.56567478    
 -0.994853973       2.40179110     -0.517000020       3428.20288       1.56567478    
 -0.718334973       1.73421395     -0.606999993       3428.20288       1.56567478    
 -0.718334973       1.73421395     -0.606999993       3634.39185       1.56624711    
 -0.522363007       1.26109600     -0.606999993       3634.39185       1.56624711    
 -0.758352995       1.13495600     -0.606999993       3634.39185       1.56624711    
  -1.04286098       1.56075203     -0.606999993       3634.39185       1.56624711    
 -0.718334973       1.73421395     -0.606999993       3726.05835       1.56572258    
 -0.994853973       2.40179110     -0.517000020       3726.05835       1.56572258    
 -0.507171988       2.54972792     -0.517000020       3726.05835       1.56572258    
 -0.366203994       1.84103203     -0.606999993       3726.05835       1.56572258    
 -0.366203994       1.84103203     -0.606999993       3945.30078       1.56632113    
 -0.266297996       1.33877206     -0.606999993       3945.30078       1.56632113    
 -0.522363007       1.26109600     -0.606999993       3945.30078       1.56632113    
 -0.718334973       1.73421395     -0.606999993       3945.30078       1.56632113    
 -0.366203994       1.84103203     -0.606999993       3883.94995       1.56578577    
 -0.507171988       2.54972792     -0.517000020       3883.94995       1.56578577    
   0.00000000       2.59967995     -0.517000020       3883.94995       1.56578577    
   0.00000000       1.87709999     -0.606999993       3883.94995       1.56578577    
   0.00000000       1.87709999     -0.606999993       4105.89844       1.56641233    
   0.00000000       1.36500001     -0.606999993       4105.89844       1.56641233    
 -0.266297996       1.33877206     -0.606999993       4105.89844       1.56641233    
 -0.366203994       1.84103203     -0.606999993       4105.89844       1.56641233    
   0.00000000       1.87709999     -0.606999993       3883.65161       1.56584394    
   0.00000000       2.59967995     -0.517000020       3883.65161       1.56584394    
  0.507171988       2.54972792     -0.517000020       3883.65161       1.56584394    
  0.366203994       1.84103203     -0.606999993       3883.65161       1.56584394    
  0.366203994       1.84103203     -0.606999993       4105.19873       1.56650412    
  0.266297996       1.33877206     -0.606999993       4105.19873       1.56650412    
   0.00000000       1.36500001     -0.606999993       4105.19873       1.56650412    
   0.00000000       1.87709999     -0.606999993       4105.19873       1.56650412    
  0.366203994       1.84103203     -0.606999993       3725.27661       1.56589675    
  0.507171988       2.54972792     -0.517000020       3725.27661       1.56589675    
  0.994853973       2.40179110     -0.517000020       3725.27661       1.56589675    
  0.718334973       1.73421395     -0.606999993       3725.27661       1.56589675    
  0.718334973       1.73421395     -0.606999993       3943.40161       1.56660020    
  0.522363007       1.26109600     -0.606999993       3943.40161       1.56660020    
  0.266297996       1.33877206     -0.606999993       3943.40161       1.56660020    
  0.366203994       1.84103203     -0.606999993       3943.40161       1.56660020    
  0.718334973       1.73421395     -0.606999993       3427.27783       1.56598556    
  0.994853973       2.40179110     -0.517000020       3427.27783       1.56598556    
   1.44430494       2.16155505     -0.517000020       3427.27783       1.56598556    
   1.04286098       1.56075203     -0.606999993       3427.27783       1.56598556    
   1.04286098       1.56075203     -0.606999993       3631.85034       1.56670403    
  0.758352995       1.13495600     -0.606999993       3631.85034       1.56670403    
  0.522363007       1.26109600     -0.606999993       3631.85034       1.56670403    
  0.718334973       1.73421395     -0.606999993       3631.85034       1.56670403    
   1.04286098       1.56075203     -0.606999993       3007.48682       1.56609142    
   1.44430494       2.16155505     -0.517000020       3007.48682       1.56609142    
   1.83825099       1.83825099     -0.517000020       3007.48682       1.56609142    
   1.32730997       1.32730997     -0.606999993       3007.48682       1.56609142    
   1.32730997       1.32730997     -0.606999993       3185.27808       1.56681895    
  0.965201020      0.965201020     -0.606999993       3185.27808       1.56681895    
  0.758352995       1.13495600     -0.606999993       3185.27808       1.56681895    
   1.04286098       1.56075203     -0.606999993       3185.27808       1.56681895    
   1.32730997       1.32730997     -0.606999993       2475.92383       1.56623816    
   1.83825099       1.83825099     -0.517000020       2475.92383       1.56623816    
   2.16155505       1.44430494     -0.517000020       2475.92383       1.56623816    
   1.56075203       1.04286098     -0.606999993       2475.92383       1.56623816    
   1.56075203       1.04286098     -0.606999993       2618.82861       1.56694627    
   1.13495600      0.758352995     -0.606999993       2618.82861       1.56694627    
  0.965201020      0.965201020     -0.606999993       2618.82861       1.56694627    
   1.32730997       1.32730997     -0.606999993       2618.82861       1.56694627    
   1.56075203       1.04286098     -0.606999993       1844.41382       1.56639087    
   2.16155505       1.44430494     -0.517000020       1844.41382       1.56639087    
   2.40179110      0.994853973     -0.517000020       1844.41382       1.56639087    
   1.73421395      0.718334973     -0.606999993       1844.41382       1.56639087    
   1.73421395      0.718334973     -0.606999993       1950.08337       1.56708348    
   1.26109600      0.522363007     -0.606999993       1950.08337       1.56708348    
   1.13495600      0.758352995     -0.606999993       1950.08337       1.56708348    
   1.56075203       1.04286098     -0.606999993       1950.08337       1.56708348    
   1.73421395      0.718334973     -0.606999993       1136.87646       1.56652272    
   2.40179110      0.994853973     -0.517000020       1136.87646       1.56652272    
   2.54972792      0.507171988     -0.517000020       1136.87646       1.56652272    
   1.84103203      0.366203994     -0.606999993       1136.87646       1.56652272    
   1.84103203      0.366203994     -0.606999993       1203.95837       1.56724703    
   1.33877206      0.266297996     -0.606999993       1203.95837       1.56724703    
   1.26109600      0.522363007     -0.606999993       1203.95837       1.56724703    
   1.73421395      0.718334973     -0.606999993       1203.95837       1.56724703    
   1.84103203      0.366203994     -0.606999993       386.580750       1.56675220    
   2.54972792      0.507171988     -0.517000020       386.580750       1.56675220    
   2.59967995       0.00000000     -0.517000020       386.580750       1.56675220    
   1.87709999       0.00000000     -0.606999993       386.580750       1.56675220    
   1.87709999       0.00000000     -0.606999993       410.976379       1.56768250    
   1.36500001       0.00000000     -0.606999993       410.976379       1.56768250    
   1.33877206      0.266297996     -0.606999993       410.976379       1.56768250    
   1.84103203      0.366203994     -0.606999993       410.976379       1.56768250    
   1.87709999       0.00000000     -0.606999993       376.807129      -1.57553780    
   2.59967995       0.00000000     -0.517000020       376.807129      -1.57553780    
   2.54972792     -0.507171988     -0.517000020       376.807129      -1.57553780    
   1.84103203     -0.366203994     -0.606999993       376.807129      -1.57553780    
   1.84103203     -0.366203994     -0.606999993       397.582672      -1.57514429    
   1.33877206     -0.266297996     -0.606999993       397.582672      -1.57514429    
   1.36500001       0.00000000     -0.606999993       397.582672      -1.57514429    
   1.87709999       0.00000000     -0.606999993       397.582672      -1.57514429    
   1.84103203     -0.366203994     -0.606999993       1127.23584      -1.57544339    
   2.54972792     -0.507171988     -0.517000020       1127.23584      -1.57544339    
   2.40179110     -0.994853973     -0.517000020       1127.23584      -1.57544339    
   1.73421395     -0.718334973     -0.606999993       1127.23584      -1.57544339    
   1.73421395     -0.718334973     -0.606999993       1190.61401      -1.57478690    
   1.26109600     -0.522363007     -0.606999993       1190.61401      -1.57478690    
   1.33877206     -0.266297996     -0.606999993       1190.61401      -1.57478690    
   1.84103203     -0.366203994     -0.606999993       1190.61401      -1.57478690    
   1.73421395     -0.718334973     -0.606999993       1833.55481      -1.57552266    
   2.40179110     -0.994853973     -0.517000020       1833.55481      -1.57552266    
   2.16155505      -1.44430494     -0.517000020       1833.55481      -1.57552266    
   1.56075203      -1.04286098     -0.606999993       1833.55481      -1.57552266    
   1.56075203      -1.04286098     -0.606999993       1936.22522      -1.57477164    
   1.13495600     -0.758352995     -0.606999993       1936.22522      -1.57477164    
   1.26109600     -0.522363007     -0.606999993       1936.22522      -1.57477164    