 VARIABLES="X" "Y" "Z" "abs(p) (Pa)" "angle(p) (rad)"
ZONE N=   2709,E =    2358, F=FEPOINT, ET=QUADRILATERAL
   0.00000000      -5.48999977     -0.157000005       447.813232      -1.59276342    
   0.00000000      -4.76741982     -0.246999994       447.813232      -1.59276342    
  0.930077016      -4.67581606     -0.246999994       447.813232      -1.59276342    
   1.07104599      -5.38451099     -0.157000005       447.813232      -1.59276342    
  -1.07104599      -5.38451099     -0.157000005       453.460663       1.55085468    
 -0.930077016      -4.67581606     -0.246999994       453.460663       1.55085468    
   0.00000000      -4.76741982     -0.246999994       453.460663       1.55085468    
   0.00000000      -5.48999977     -0.157000005       453.460663       1.55085468    
  -2.10093188      -5.07209921     -0.157000005       1356.06494       1.55565405    
  -1.82441294      -4.40452194     -0.246999994       1356.06494       1.55565405    
 -0.930077016      -4.67581606     -0.246999994       1356.06494       1.55565405    
  -1.07104599      -5.38451099     -0.157000005       1356.06494       1.55565405    
  -3.05008101      -4.56476784     -0.157000005       2171.69849       1.55125988    
  -2.64863706      -3.96396494     -0.246999994       2171.69849       1.55125988    
  -1.82441294      -4.40452194     -0.246999994       2171.69849       1.55125988    
  -2.10093188      -5.07209921     -0.157000005       2171.69849       1.55125988    
  -3.88201594      -3.88201594     -0.157000005       2918.65674       1.55080843    
  -3.37107491      -3.37107491     -0.246999994       2918.65674       1.55080843    
  -2.64863706      -3.96396494     -0.246999994       2918.65674       1.55080843    
  -3.05008101      -4.56476784     -0.157000005       2918.65674       1.55080843    
  -4.56476784      -3.05008101     -0.157000005       3590.63452       1.55439556    
  -3.96396494      -2.64863706     -0.246999994       3590.63452       1.55439556    
  -3.37107491      -3.37107491     -0.246999994       3590.63452       1.55439556    
  -3.88201594      -3.88201594     -0.157000005       3590.63452       1.55439556    
  -5.07209921      -2.10093188     -0.157000005       4056.06616       1.55126345    
  -4.40452194      -1.82441294     -0.246999994       4056.06616       1.55126345    
  -3.96396494      -2.64863706     -0.246999994       4056.06616       1.55126345    
  -4.56476784      -3.05008101     -0.157000005       4056.06616       1.55126345    
  -5.38451099      -1.07104599     -0.157000005       4402.16357       1.55091393    
  -4.67581606     -0.930077016     -0.246999994       4402.16357       1.55091393    
  -4.40452194      -1.82441294     -0.246999994       4402.16357       1.55091393    
  -5.07209921      -2.10093188     -0.157000005       4402.16357       1.55091393    
  -5.48999977       0.00000000     -0.157000005       4638.14502       1.55559325    
  -4.76741982       0.00000000     -0.246999994       4638.14502       1.55559325    
  -4.67581606     -0.930077016     -0.246999994       4638.14502       1.55559325    
  -5.38451099      -1.07104599     -0.157000005       4638.14502       1.55559325    
  -5.38451099       1.07104599     -0.157000005       4643.75732       1.55600381    
  -4.67581606      0.930077016     -0.246999994       4643.75732       1.55600381    
  -4.76741982       0.00000000     -0.246999994       4643.75732       1.55600381    
  -5.48999977       0.00000000     -0.157000005       4643.75732       1.55600381    
  -5.07209921       2.10093188     -0.157000005       4464.91699       1.55595350    
  -4.40452194       1.82441294     -0.246999994       4464.91699       1.55595350    
  -4.67581606      0.930077016     -0.246999994       4464.91699       1.55595350    
  -5.38451099       1.07104599     -0.157000005       4464.91699       1.55595350    
  -4.56476784       3.05008101     -0.157000005       4112.22998       1.55584383    
  -3.96396494       2.64863706     -0.246999994       4112.22998       1.55584383    
  -4.40452194       1.82441294     -0.246999994       4112.22998       1.55584383    
  -5.07209921       2.10093188     -0.157000005       4112.22998       1.55584383    
  -3.88201594       3.88201594     -0.157000005       3560.41675       1.55140305    
  -3.37107491       3.37107491     -0.246999994       3560.41675       1.55140305    
  -3.96396494       2.64863706     -0.246999994       3560.41675       1.55140305    
  -4.56476784       3.05008101     -0.157000005       3560.41675       1.55140305    
  -3.05008101       4.56476784     -0.157000005       2951.03882       1.55534840    
  -2.64863706       3.96396494     -0.246999994       2951.03882       1.55534840    
  -3.37107491       3.37107491     -0.246999994       2951.03882       1.55534840    
  -3.88201594       3.88201594     -0.157000005       2951.03882       1.55534840    
  -2.10093188       5.07209921     -0.157000005       2170.43604       1.55144811    
  -1.82441294       4.40452194     -0.246999994       2170.43604       1.55144811    
  -2.64863706       3.96396494     -0.246999994       2170.43604       1.55144811    
  -3.05008101       4.56476784     -0.157000005       2170.43604       1.55144811    
  -1.07104599       5.38451099     -0.157000005       1348.42810       1.55498362    
 -0.930077016       4.67581606     -0.246999994       1348.42810       1.55498362    
  -1.82441294       4.40452194     -0.246999994       1348.42810       1.55498362    
  -2.10093188       5.07209921     -0.157000005       1348.42810       1.55498362    
   0.00000000       5.48999977     -0.157000005       448.702820       1.55176616    
   0.00000000       4.76741982     -0.246999994       448.702820       1.55176616    
 -0.930077016       4.67581606     -0.246999994       448.702820       1.55176616    
  -1.07104599       5.38451099     -0.157000005       448.702820       1.55176616    
   1.07104599       5.38451099     -0.157000005       460.459778      -1.58571494    
  0.930077016       4.67581606     -0.246999994       460.459778      -1.58571494    
   0.00000000       4.76741982     -0.246999994       460.459778      -1.58571494    
   0.00000000       5.48999977     -0.157000005       460.459778      -1.58571494    
   2.10093188       5.07209921     -0.157000005       1337.48816      -1.58984292    
   1.82441294       4.40452194     -0.246999994       1337.48816      -1.58984292    
  0.930077016       4.67581606     -0.246999994       1337.48816      -1.58984292    
   1.07104599       5.38451099     -0.157000005       1337.48816      -1.58984292    
   3.05008101       4.56476784     -0.157000005       2172.04272      -1.59061205    
   2.64863706       3.96396494     -0.246999994       2172.04272      -1.59061205    
   1.82441294       4.40452194     -0.246999994       2172.04272      -1.59061205    
   2.10093188       5.07209921     -0.157000005       2172.04272      -1.59061205    
   3.88201594       3.88201594     -0.157000005       2958.83228      -1.58604455    
   3.37107491       3.37107491     -0.246999994       2958.83228      -1.58604455    
   2.64863706       3.96396494     -0.246999994       2958.83228      -1.58604455    
   3.05008101       4.56476784     -0.157000005       2958.83228      -1.58604455    
   4.56476784       3.05008101     -0.157000005       3577.13940      -1.58877182    
   3.96396494       2.64863706     -0.246999994       3577.13940      -1.58877182    
   3.37107491       3.37107491     -0.246999994       3577.13940      -1.58877182    
   3.88201594       3.88201594     -0.157000005       3577.13940      -1.58877182    
   5.07209921       2.10093188     -0.157000005       4107.28174      -1.58601558    
   4.40452194       1.82441294     -0.246999994       4107.28174      -1.58601558    
   3.96396494       2.64863706     -0.246999994       4107.28174      -1.58601558    
   4.56476784       3.05008101     -0.157000005       4107.28174      -1.58601558    
   5.38451099       1.07104599     -0.157000005       4404.76270      -1.59079504    
   4.67581606      0.930077016     -0.246999994       4404.76270      -1.59079504    
   4.40452194       1.82441294     -0.246999994       4404.76270      -1.59079504    
   5.07209921       2.10093188     -0.157000005       4404.76270      -1.59079504    
   5.48999977       0.00000000     -0.157000005       4575.04688      -1.59060180    
   4.76741982       0.00000000     -0.246999994       4575.04688      -1.59060180    
   4.67581606      0.930077016     -0.246999994       4575.04688      -1.59060180    
   5.38451099       1.07104599     -0.157000005       4575.04688      -1.59060180    
   5.38451099      -1.07104599     -0.157000005       4572.84180      -1.59077692    
   4.67581606     -0.930077016     -0.246999994       4572.84180      -1.59077692    
   4.76741982       0.00000000     -0.246999994       4572.84180      -1.59077692    
   5.48999977       0.00000000     -0.157000005       4572.84180      -1.59077692    
   5.07209921      -2.10093188     -0.157000005       4397.23047      -1.59110749    
   4.40452194      -1.82441294     -0.246999994       4397.23047      -1.59110749    
   4.67581606     -0.930077016     -0.246999994       4397.23047      -1.59110749    
   5.38451099      -1.07104599     -0.157000005       4397.23047      -1.59110749    
   4.56476784      -3.05008101     -0.157000005       4052.30835      -1.59065986    
   3.96396494      -2.64863706     -0.246999994       4052.30835      -1.59065986    
   4.40452194      -1.82441294     -0.246999994       4052.30835      -1.59065986    
   5.07209921      -2.10093188     -0.157000005       4052.30835      -1.59065986    
   3.88201594      -3.88201594     -0.157000005       3552.55249      -1.59063947    
   3.37107491      -3.37107491     -0.246999994       3552.55249      -1.59063947    
   3.96396494      -2.64863706     -0.246999994       3552.55249      -1.59063947    
   4.56476784      -3.05008101     -0.157000005       3552.55249      -1.59063947    
   3.05008101      -4.56476784     -0.157000005       2950.07275      -1.58654749    
   2.64863706      -3.96396494     -0.246999994       2950.07275      -1.58654749    
   3.37107491      -3.37107491     -0.246999994       2950.07275      -1.58654749    
   3.88201594      -3.88201594     -0.157000005       2950.07275      -1.58654749    
   2.10093188      -5.07209921     -0.157000005       2169.01318      -1.59016514    
   1.82441294      -4.40452194     -0.246999994       2169.01318      -1.59016514    
   2.64863706      -3.96396494     -0.246999994       2169.01318      -1.59016514    
   3.05008101      -4.56476784     -0.157000005       2169.01318      -1.59016514    
   1.07104599      -5.38451099     -0.157000005       1332.21143      -1.59050691    
  0.930077016      -4.67581606     -0.246999994       1332.21143      -1.59050691    
   1.82441294      -4.40452194     -0.246999994       1332.21143      -1.59050691    
   2.10093188      -5.07209921     -0.157000005       1332.21143      -1.59050691    
   0.00000000      -1.87709999     -0.606999993       243.263397      -1.57071054    
   0.00000000      -1.36500001     -0.606999993       243.263397      -1.57071054    
  0.266297996      -1.33877206     -0.606999993       243.263397      -1.57071054    
  0.366203994      -1.84103203     -0.606999993       243.263397      -1.57071054    
   0.00000000      -1.87709999     -0.606999993       127.660431       1.57081544    
   0.00000000      -2.59967995     -0.517000020       127.660431       1.57081544    
 -0.507171988      -2.54972792     -0.517000020       127.660431       1.57081544    
 -0.366203994      -1.84103203     -0.606999993       127.660431       1.57081544    
 -0.366203994      -1.84103203     -0.606999993       249.887924       1.57135022    
 -0.266297996      -1.33877206     -0.606999993       249.887924       1.57135022    
   0.00000000      -1.36500001     -0.606999993       249.887924       1.57135022    
   0.00000000      -1.87709999     -0.606999993       249.887924       1.57135022    
 -0.366203994      -1.84103203     -0.606999993       376.578094       1.57083070    
 -0.507171988      -2.54972792     -0.517000020       376.578094       1.57083070    
 -0.994853973      -2.40179110     -0.517000020       376.578094       1.57083070    
 -0.718334973      -1.73421395     -0.606999993       376.578094       1.57083070    
 -0.718334973      -1.73421395     -0.606999993       733.170715       1.57114112    
 -0.522363007      -1.26109600     -0.606999993       733.170715       1.57114112    
 -0.266297996      -1.33877206     -0.606999993       733.170715       1.57114112    
 -0.366203994      -1.84103203     -0.606999993       733.170715       1.57114112    
 -0.718334973      -1.73421395     -0.606999993       609.011353       1.57082450    
 -0.994853973      -2.40179110     -0.517000020       609.011353       1.57082450    
  -1.44430494      -2.16155505     -0.517000020       609.011353       1.57082450    
  -1.04286098      -1.56075203     -0.606999993       609.011353       1.57082450    
  -1.04286098      -1.56075203     -0.606999993       1188.08105       1.57113600    
 -0.758352995      -1.13495600     -0.606999993       1188.08105       1.57113600    
 -0.522363007      -1.26109600     -0.606999993       1188.08105       1.57113600    
 -0.718334973      -1.73421395     -0.606999993       1188.08105       1.57113600    
  -1.04286098      -1.56075203     -0.606999993       818.905701       1.57076037    
  -1.44430494      -2.16155505     -0.517000020       818.905701       1.57076037    
  -1.83825099      -1.83825099     -0.517000020       818.905701       1.57076037    
  -1.32730997      -1.32730997     -0.606999993       818.905701       1.57076037    
  -1.32730997      -1.32730997     -0.606999993       1597.84241       1.57111466    
 -0.965201020     -0.965201020     -0.606999993       1597.84241       1.57111466    
 -0.758352995      -1.13495600     -0.606999993       1597.84241       1.57111466    
  -1.04286098      -1.56075203     -0.606999993       1597.84241       1.57111466    
  -1.32730997      -1.32730997     -0.606999993       1000.39819       1.57069564    
  -1.83825099      -1.83825099     -0.517000020       1000.39819       1.57069564    
  -2.16155505      -1.44430494     -0.517000020       1000.39819       1.57069564    
  -1.56075203      -1.04286098     -0.606999993       1000.39819       1.57069564    
  -1.56075203      -1.04286098     -0.606999993       1947.39844       1.57110417    
  -1.13495600     -0.758352995     -0.606999993       1947.39844       1.57110417    
 -0.965201020     -0.965201020     -0.606999993       1947.39844       1.57110417    
  -1.32730997      -1.32730997     -0.606999993       1947.39844       1.57110417    
  -1.56075203      -1.04286098     -0.606999993       1144.20947       1.57068419    
  -2.16155505      -1.44430494     -0.517000020       1144.20947       1.57068419    
  -2.40179110     -0.994853973     -0.517000020       1144.20947       1.57068419    
  -1.73421395     -0.718334973     -0.606999993       1144.20947       1.57068419    
  -1.73421395     -0.718334973     -0.606999993       2222.44458       1.57109344    
  -1.26109600     -0.522363007     -0.606999993       2222.44458       1.57109344    
  -1.13495600     -0.758352995     -0.606999993       2222.44458       1.57109344    
  -1.56075203      -1.04286098     -0.606999993       2222.44458       1.57109344    
  -1.73421395     -0.718334973     -0.606999993       1241.11670       1.57074082    
  -2.40179110     -0.994853973     -0.517000020       1241.11670       1.57074082    
  -2.54972792     -0.507171988     -0.517000020       1241.11670       1.57074082    
  -1.84103203     -0.366203994     -0.606999993       1241.11670       1.57074082    
  -1.84103203     -0.366203994     -0.606999993       2410.68066       1.57110107    
  -1.33877206     -0.266297996     -0.606999993       2410.68066       1.57110107    
  -1.26109600     -0.522363007     -0.606999993       2410.68066       1.57110107    
  -1.73421395     -0.718334973     -0.606999993       2410.68066       1.57110107    
  -1.84103203     -0.366203994     -0.606999993       1288.25867       1.57081866    
  -2.54972792     -0.507171988     -0.517000020       1288.25867       1.57081866    
  -2.59967995       0.00000000     -0.517000020       1288.25867       1.57081866    
  -1.87709999       0.00000000     -0.606999993       1288.25867       1.57081866    
  -1.87709999       0.00000000     -0.606999993       2504.89526       1.57111073    
  -1.36500001       0.00000000     -0.606999993       2504.89526       1.57111073    
  -1.33877206     -0.266297996     -0.606999993       2504.89526       1.57111073    
  -1.84103203     -0.366203994     -0.606999993       2504.89526       1.57111073    
  -1.87709999       0.00000000     -0.606999993       1287.43616       1.57083905    
  -2.59967995       0.00000000     -0.517000020       1287.43616       1.57083905    
  -2.54972792      0.507171988     -0.517000020       1287.43616       1.57083905    
  -1.84103203      0.366203994     -0.606999993       1287.43616       1.57083905    
  -1.84103203      0.366203994     -0.606999993       2502.92188       1.57112074    
  -1.33877206      0.266297996     -0.606999993       2502.92188       1.57112074    
  -1.36500001       0.00000000     -0.606999993       2502.92188       1.57112074    
  -1.87709999       0.00000000     -0.606999993       2502.92188       1.57112074    
  -1.84103203      0.366203994     -0.606999993       1239.47729       1.57080150    
  -2.54972792      0.507171988     -0.517000020       1239.47729       1.57080150    
  -2.40179110      0.994853973     -0.517000020       1239.47729       1.57080150    
  -1.73421395      0.718334973     -0.606999993       1239.47729       1.57080150    
  -1.73421395      0.718334973     -0.606999993       2405.41431       1.57112014    
  -1.26109600      0.522363007     -0.606999993       2405.41431       1.57112014    
  -1.33877206      0.266297996     -0.606999993       2405.41431       1.57112014    
  -1.84103203      0.366203994     -0.606999993       2405.41431       1.57112014    
  -1.73421395      0.718334973     -0.606999993       1143.01831       1.57075560    
  -2.40179110      0.994853973     -0.517000020       1143.01831       1.57075560    
  -2.16155505       1.44430494     -0.517000020       1143.01831       1.57075560    
  -1.56075203       1.04286098     -0.606999993       1143.01831       1.57075560    
  -1.56075203       1.04286098     -0.606999993       2215.27271       1.57111859    
  -1.13495600      0.758352995     -0.606999993       2215.27271       1.57111859    
  -1.26109600      0.522363007     -0.606999993       2215.27271       1.57111859    
  -1.73421395      0.718334973     -0.606999993       2215.27271       1.57111859    
  -1.56075203       1.04286098     -0.606999993       999.766357       1.57077241    
  -2.16155505       1.44430494     -0.517000020       999.766357       1.57077241    
  -1.83825099       1.83825099     -0.517000020       999.766357       1.57077241    
  -1.32730997       1.32730997     -0.606999993       999.766357       1.57077241    
  -1.32730997       1.32730997     -0.606999993       1939.39148       1.57113540    
 -0.965201020      0.965201020     -0.606999993       1939.39148       1.57113540    
  -1.13495600      0.758352995     -0.606999993       1939.39148       1.57113540    
  -1.56075203       1.04286098     -0.606999993       1939.39148       1.57113540    
  -1.32730997       1.32730997     -0.606999993       818.080994       1.57085919    
  -1.83825099       1.83825099     -0.517000020       818.080994       1.57085919    
  -1.44430494       2.16155505     -0.517000020       818.080994       1.57085919    
  -1.04286098       1.56075203     -0.606999993       818.080994       1.57085919    
  -1.04286098       1.56075203     -0.606999993       1589.45728       1.57116544    
 -0.758352995       1.13495600     -0.606999993       1589.45728       1.57116544    
 -0.965201020      0.965201020     -0.606999993       1589.45728       1.57116544    
  -1.32730997       1.32730997     -0.606999993       1589.45728       1.57116544    
  -1.04286098       1.56075203     -0.606999993       607.917847       1.57096970    
  -1.44430494       2.16155505     -0.517000020       607.917847       1.57096970    
 -0.994853973       2.40179110     -0.517000020       607.917847       1.57096970    
 -0.718334973       1.73421395     -0.606999993       607.917847       1.57096970    
 -0.718334973       1.73421395     -0.606999993       1179.89197       1.57123208    
 -0.522363007       1.26109600     -0.606999993       1179.89197       1.57123208    
 -0.758352995       1.13495600     -0.606999993       1179.89197       1.57123208    
  -1.04286098       1.56075203     -0.606999993       1179.89197       1.57123208    
 -0.718334973       1.73421395     -0.606999993       375.749359       1.57108557    
 -0.994853973       2.40179110     -0.517000020       375.749359       1.57108557    
 -0.507171988       2.54972792     -0.517000020       375.749359       1.57108557    
 -0.366203994       1.84103203     -0.606999993       375.749359       1.57108557    
 -0.366203994       1.84103203     -0.606999993       725.882935       1.57133114    
 -0.266297996       1.33877206     -0.606999993       725.882935       1.57133114    
 -0.522363007       1.26109600     -0.606999993       725.882935       1.57133114    
 -0.718334973       1.73421395     -0.606999993       725.882935       1.57133114    
 -0.366203994       1.84103203     -0.606999993       127.475052       1.57152343    
 -0.507171988       2.54972792     -0.517000020       127.475052       1.57152343    
   0.00000000       2.59967995     -0.517000020       127.475052       1.57152343    
   0.00000000       1.87709999     -0.606999993       127.475052       1.57152343    
   0.00000000       1.87709999     -0.606999993       243.516327       1.57177114    
   0.00000000       1.36500001     -0.606999993       243.516327       1.57177114    
 -0.266297996       1.33877206     -0.606999993       243.516327       1.57177114    
 -0.366203994       1.84103203     -0.606999993       243.516327       1.57177114    
   0.00000000       1.87709999     -0.606999993       127.122574      -1.57135618    
   0.00000000       2.59967995     -0.517000020       127.122574      -1.57135618    
  0.507171988       2.54972792     -0.517000020       127.122574      -1.57135618    
  0.366203994       1.84103203     -0.606999993       127.122574      -1.57135618    
  0.366203994       1.84103203     -0.606999993       248.759003      -1.57121134    
  0.266297996       1.33877206     -0.606999993       248.759003      -1.57121134    
   0.00000000       1.36500001     -0.606999993       248.759003      -1.57121134    
   0.00000000       1.87709999     -0.606999993       248.759003      -1.57121134    
  0.366203994       1.84103203     -0.606999993       375.759064      -1.57092464    
  0.507171988       2.54972792     -0.517000020       375.759064      -1.57092464    
  0.994853973       2.40179110     -0.517000020       375.759064      -1.57092464    
  0.718334973       1.73421395     -0.606999993       375.759064      -1.57092464    
  0.718334973       1.73421395     -0.606999993       731.501465      -1.57077694    
  0.522363007       1.26109600     -0.606999993       731.501465      -1.57077694    
  0.266297996       1.33877206     -0.606999993       731.501465      -1.57077694    
  0.366203994       1.84103203     -0.606999993       731.501465      -1.57077694    
  0.718334973       1.73421395     -0.606999993       608.546387      -1.57086074    
  0.994853973       2.40179110     -0.517000020       608.546387      -1.57086074    
   1.44430494       2.16155505     -0.517000020       608.546387      -1.57086074    
   1.04286098       1.56075203     -0.606999993       608.546387      -1.57086074    
   1.04286098       1.56075203     -0.606999993       1186.49121      -1.57064569    
  0.758352995       1.13495600     -0.606999993       1186.49121      -1.57064569    
  0.522363007       1.26109600     -0.606999993       1186.49121      -1.57064569    
  0.718334973       1.73421395     -0.606999993       1186.49121      -1.57064569    
   1.04286098       1.56075203     -0.606999993       819.396851      -1.57088923    
   1.44430494       2.16155505     -0.517000020       819.396851      -1.57088923    
   1.83825099       1.83825099     -0.517000020       819.396851      -1.57088923    
   1.32730997       1.32730997     -0.606999993       819.396851      -1.57088923    
   1.32730997       1.32730997     -0.606999993       1596.93970      -1.57061601    
  0.965201020      0.965201020     -0.606999993       1596.93970      -1.57061601    
  0.758352995       1.13495600     -0.606999993       1596.93970      -1.57061601    
   1.04286098       1.56075203     -0.606999993       1596.93970      -1.57061601    
   1.32730997       1.32730997     -0.606999993       1001.51514      -1.57093537    
   1.83825099       1.83825099     -0.517000020       1001.51514      -1.57093537    
   2.16155505       1.44430494     -0.517000020       1001.51514      -1.57093537    
   1.56075203       1.04286098     -0.606999993       1001.51514      -1.57093537    
   1.56075203       1.04286098     -0.606999993       1947.20911      -1.57059860    
   1.13495600      0.758352995     -0.606999993       1947.20911      -1.57059860    
  0.965201020      0.965201020     -0.606999993       1947.20911      -1.57059860    
   1.32730997       1.32730997     -0.606999993       1947.20911      -1.57059860    
   1.56075203       1.04286098     -0.606999993       1144.61182      -1.57093716    
   2.16155505       1.44430494     -0.517000020       1144.61182      -1.57093716    
   2.40179110      0.994853973     -0.517000020       1144.61182      -1.57093716    
   1.73421395      0.718334973     -0.606999993       1144.61182      -1.57093716    
   1.73421395      0.718334973     -0.606999993       2221.68848      -1.57058537    
   1.26109600      0.522363007     -0.606999993       2221.68848      -1.57058537    
   1.13495600      0.758352995     -0.606999993       2221.68848      -1.57058537    
   1.56075203       1.04286098     -0.606999993       2221.68848      -1.57058537    
   1.73421395      0.718334973     -0.606999993       1240.32922      -1.57088697    
   2.40179110      0.994853973     -0.517000020       1240.32922      -1.57088697    
   2.54972792      0.507171988     -0.517000020       1240.32922      -1.57088697    
   1.84103203      0.366203994     -0.606999993       1240.32922      -1.57088697    
   1.84103203      0.366203994     -0.606999993       2409.01196      -1.57056034    
   1.33877206      0.266297996     -0.606999993       2409.01196      -1.57056034    
   1.26109600      0.522363007     -0.606999993       2409.01196      -1.57056034    
   1.73421395      0.718334973     -0.606999993       2409.01196      -1.57056034    
   1.84103203      0.366203994     -0.606999993       1287.35583      -1.57083106    
   2.54972792      0.507171988     -0.517000020       1287.35583      -1.57083106    
   2.59967995       0.00000000     -0.517000020       1287.35583      -1.57083106    
   1.87709999       0.00000000     -0.606999993       1287.35583      -1.57083106    
   1.87709999       0.00000000     -0.606999993       2503.43921      -1.57054663    
   1.36500001       0.00000000     -0.606999993       2503.43921      -1.57054663    
   1.33877206      0.266297996     -0.606999993       2503.43921      -1.57054663    
   1.84103203      0.366203994     -0.606999993       2503.43921      -1.57054663    
   1.87709999       0.00000000     -0.606999993       1287.36194      -1.57083869    
   2.59967995       0.00000000     -0.517000020       1287.36194      -1.57083869    
   2.54972792     -0.507171988     -0.517000020       1287.36194      -1.57083869    
   1.84103203     -0.366203994     -0.606999993       1287.36194      -1.57083869    
   1.84103203     -0.366203994     -0.606999993       2502.48462      -1.57054436    
   1.33877206     -0.266297996     -0.606999993       2502.48462      -1.57054436    
   1.36500001       0.00000000     -0.606999993       2502.48462      -1.57054436    
   1.87709999       0.00000000     -0.606999993       2502.48462      -1.57054436    
   1.84103203     -0.366203994     -0.606999993       1239.68494      -1.57088494    
   2.54972792     -0.507171988     -0.517000020       1239.68494      -1.57088494    
   2.40179110     -0.994853973     -0.517000020       1239.68494      -1.57088494    
   1.73421395     -0.718334973     -0.606999993       1239.68494      -1.57088494    
   1.73421395     -0.718334973     -0.606999993       2405.87598      -1.57053828    
   1.26109600     -0.522363007     -0.606999993       2405.87598      -1.57053828    
   1.33877206     -0.266297996     -0.606999993       2405.87598      -1.57053828    
   1.84103203     -0.366203994     -0.606999993       2405.87598      -1.57053828    
   1.73421395     -0.718334973     -0.606999993       1142.52051      -1.57090855    
   2.40179110     -0.994853973     -0.517000020       1142.52051      -1.57090855    
   2.16155505      -1.44430494     -0.517000020       1142.52051      -1.57090855    
   1.56075203      -1.04286098     -0.606999993       1142.52051      -1.57090855    
   1.56075203      -1.04286098     -0.606999993       2216.07202      -1.57053852    
   1.13495600     -0.758352995     -0.606999993       2216.07202      -1.57053852    
   1.26109600     -0.522363007     -0.606999993       2216.07202      -1.57053852    