 VARIABLES="X" "Y" "Z" "abs(p) (Pa)" "angle(p) (rad)"
ZONE N=   2709,E =    2358, F=FEPOINT, ET=QUADRILATERAL
   0.00000000      -5.48999977     -0.157000005       3607.13184      -1.54087949    
   0.00000000      -4.76741982     -0.246999994       3607.13184      -1.54087949    
  0.930077016      -4.67581606     -0.246999994       3607.13184      -1.54087949    
   1.07104599      -5.38451099     -0.157000005       3607.13184      -1.54087949    
  -1.07104599      -5.38451099     -0.157000005       3607.86450      -1.54202139    
 -0.930077016      -4.67581606     -0.246999994       3607.86450      -1.54202139    
   0.00000000      -4.76741982     -0.246999994       3607.86450      -1.54202139    
   0.00000000      -5.48999977     -0.157000005       3607.86450      -1.54202139    
  -2.10093188      -5.07209921     -0.157000005       3497.18213      -1.53574681    
  -1.82441294      -4.40452194     -0.246999994       3497.18213      -1.53574681    
 -0.930077016      -4.67581606     -0.246999994       3497.18213      -1.53574681    
  -1.07104599      -5.38451099     -0.157000005       3497.18213      -1.53574681    
  -3.05008101      -4.56476784     -0.157000005       3200.04004      -1.54213381    
  -2.64863706      -3.96396494     -0.246999994       3200.04004      -1.54213381    
  -1.82441294      -4.40452194     -0.246999994       3200.04004      -1.54213381    
  -2.10093188      -5.07209921     -0.157000005       3200.04004      -1.54213381    
  -3.88201594      -3.88201594     -0.157000005       2797.37793      -1.54040158    
  -3.37107491      -3.37107491     -0.246999994       2797.37793      -1.54040158    
  -2.64863706      -3.96396494     -0.246999994       2797.37793      -1.54040158    
  -3.05008101      -4.56476784     -0.157000005       2797.37793      -1.54040158    
  -4.56476784      -3.05008101     -0.157000005       2324.42041      -1.53922307    
  -3.96396494      -2.64863706     -0.246999994       2324.42041      -1.53922307    
  -3.37107491      -3.37107491     -0.246999994       2324.42041      -1.53922307    
  -3.88201594      -3.88201594     -0.157000005       2324.42041      -1.53922307    
  -5.07209921      -2.10093188     -0.157000005       1707.29565      -1.54042590    
  -4.40452194      -1.82441294     -0.246999994       1707.29565      -1.54042590    
  -3.96396494      -2.64863706     -0.246999994       1707.29565      -1.54042590    
  -4.56476784      -3.05008101     -0.157000005       1707.29565      -1.54042590    
  -5.38451099      -1.07104599     -0.157000005       1049.49353      -1.54488742    
  -4.67581606     -0.930077016     -0.246999994       1049.49353      -1.54488742    
  -4.40452194      -1.82441294     -0.246999994       1049.49353      -1.54488742    
  -5.07209921      -2.10093188     -0.157000005       1049.49353      -1.54488742    
  -5.48999977       0.00000000     -0.157000005       355.475769      -1.52660465    
  -4.76741982       0.00000000     -0.246999994       355.475769      -1.52660465    
  -4.67581606     -0.930077016     -0.246999994       355.475769      -1.52660465    
  -5.38451099      -1.07104599     -0.157000005       355.475769      -1.52660465    
  -5.38451099       1.07104599     -0.157000005       362.815094       1.62342238    
  -4.67581606      0.930077016     -0.246999994       362.815094       1.62342238    
  -4.76741982       0.00000000     -0.246999994       362.815094       1.62342238    
  -5.48999977       0.00000000     -0.157000005       362.815094       1.62342238    
  -5.07209921       2.10093188     -0.157000005       1066.26233       1.59936452    
  -4.40452194       1.82441294     -0.246999994       1066.26233       1.59936452    
  -4.67581606      0.930077016     -0.246999994       1066.26233       1.59936452    
  -5.38451099       1.07104599     -0.157000005       1066.26233       1.59936452    
  -4.56476784       3.05008101     -0.157000005       1728.40845       1.61043251    
  -3.96396494       2.64863706     -0.246999994       1728.40845       1.61043251    
  -4.40452194       1.82441294     -0.246999994       1728.40845       1.61043251    
  -5.07209921       2.10093188     -0.157000005       1728.40845       1.61043251    
  -3.88201594       3.88201594     -0.157000005       2303.27637       1.59680545    
  -3.37107491       3.37107491     -0.246999994       2303.27637       1.59680545    
  -3.96396494       2.64863706     -0.246999994       2303.27637       1.59680545    
  -4.56476784       3.05008101     -0.157000005       2303.27637       1.59680545    
  -3.05008101       4.56476784     -0.157000005       2829.04395       1.60900152    
  -2.64863706       3.96396494     -0.246999994       2829.04395       1.60900152    
  -3.37107491       3.37107491     -0.246999994       2829.04395       1.60900152    
  -3.88201594       3.88201594     -0.157000005       2829.04395       1.60900152    
  -2.10093188       5.07209921     -0.157000005       3200.71460       1.59734547    
  -1.82441294       4.40452194     -0.246999994       3200.71460       1.59734547    
  -2.64863706       3.96396494     -0.246999994       3200.71460       1.59734547    
  -3.05008101       4.56476784     -0.157000005       3200.71460       1.59734547    
  -1.07104599       5.38451099     -0.157000005       3500.15161       1.60834372    
 -0.930077016       4.67581606     -0.246999994       3500.15161       1.60834372    
  -1.82441294       4.40452194     -0.246999994       3500.15161       1.60834372    
  -2.10093188       5.07209921     -0.157000005       3500.15161       1.60834372    
   0.00000000       5.48999977     -0.157000005       3610.35229       1.59781635    
   0.00000000       4.76741982     -0.246999994       3610.35229       1.59781635    
 -0.930077016       4.67581606     -0.246999994       3610.35229       1.59781635    
  -1.07104599       5.38451099     -0.157000005       3610.35229       1.59781635    
   1.07104599       5.38451099     -0.157000005       3639.48389       1.60760748    
  0.930077016       4.67581606     -0.246999994       3639.48389       1.60760748    
   0.00000000       4.76741982     -0.246999994       3639.48389       1.60760748    
   0.00000000       5.48999977     -0.157000005       3639.48389       1.60760748    
   2.10093188       5.07209921     -0.157000005       3469.54468       1.59876251    
   1.82441294       4.40452194     -0.246999994       3469.54468       1.59876251    
  0.930077016       4.67581606     -0.246999994       3469.54468       1.59876251    
   1.07104599       5.38451099     -0.157000005       3469.54468       1.59876251    
   3.05008101       4.56476784     -0.157000005       3197.53052       1.60156405    
   2.64863706       3.96396494     -0.246999994       3197.53052       1.60156405    
   1.82441294       4.40452194     -0.246999994       3197.53052       1.60156405    
   2.10093188       5.07209921     -0.157000005       3197.53052       1.60156405    
   3.88201594       3.88201594     -0.157000005       2822.53857       1.60368729    
   3.37107491       3.37107491     -0.246999994       2822.53857       1.60368729    
   2.64863706       3.96396494     -0.246999994       2822.53857       1.60368729    
   3.05008101       4.56476784     -0.157000005       2822.53857       1.60368729    
   4.56476784       3.05008101     -0.157000005       2317.08667       1.60222208    
   3.96396494       2.64863706     -0.246999994       2317.08667       1.60222208    
   3.37107491       3.37107491     -0.246999994       2317.08667       1.60222208    
   3.88201594       3.88201594     -0.157000005       2317.08667       1.60222208    
   5.07209921       2.10093188     -0.157000005       1717.84094       1.60340834    
   4.40452194       1.82441294     -0.246999994       1717.84094       1.60340834    
   3.96396494       2.64863706     -0.246999994       1717.84094       1.60340834    
   4.56476784       3.05008101     -0.157000005       1717.84094       1.60340834    
   5.38451099       1.07104599     -0.157000005       1053.89783       1.60016870    
   4.67581606      0.930077016     -0.246999994       1053.89783       1.60016870    
   4.40452194       1.82441294     -0.246999994       1053.89783       1.60016870    
   5.07209921       2.10093188     -0.157000005       1053.89783       1.60016870    
   5.48999977       0.00000000     -0.157000005       350.529053       1.60054719    
   4.76741982       0.00000000     -0.246999994       350.529053       1.60054719    
   4.67581606      0.930077016     -0.246999994       350.529053       1.60054719    
   5.38451099       1.07104599     -0.157000005       350.529053       1.60054719    
   5.38451099      -1.07104599     -0.157000005       355.115601      -1.53793144    
   4.67581606     -0.930077016     -0.246999994       355.115601      -1.53793144    
   4.76741982       0.00000000     -0.246999994       355.115601      -1.53793144    
   5.48999977       0.00000000     -0.157000005       355.115601      -1.53793144    
   5.07209921      -2.10093188     -0.157000005       1056.52332      -1.54211688    
   4.40452194      -1.82441294     -0.246999994       1056.52332      -1.54211688    
   4.67581606     -0.930077016     -0.246999994       1056.52332      -1.54211688    
   5.38451099      -1.07104599     -0.157000005       1056.52332      -1.54211688    
   4.56476784      -3.05008101     -0.157000005       1708.83350      -1.54016435    
   3.96396494      -2.64863706     -0.246999994       1708.83350      -1.54016435    
   4.40452194      -1.82441294     -0.246999994       1708.83350      -1.54016435    
   5.07209921      -2.10093188     -0.157000005       1708.83350      -1.54016435    
   3.88201594      -3.88201594     -0.157000005       2302.98730      -1.54207718    
   3.37107491      -3.37107491     -0.246999994       2302.98730      -1.54207718    
   3.96396494      -2.64863706     -0.246999994       2302.98730      -1.54207718    
   4.56476784      -3.05008101     -0.157000005       2302.98730      -1.54207718    
   3.05008101      -4.56476784     -0.157000005       2828.22632      -1.53574145    
   2.64863706      -3.96396494     -0.246999994       2828.22632      -1.53574145    
   3.37107491      -3.37107491     -0.246999994       2828.22632      -1.53574145    
   3.88201594      -3.88201594     -0.157000005       2828.22632      -1.53574145    
   2.10093188      -5.07209921     -0.157000005       3200.17920      -1.54130685    
   1.82441294      -4.40452194     -0.246999994       3200.17920      -1.54130685    
   2.64863706      -3.96396494     -0.246999994       3200.17920      -1.54130685    
   3.05008101      -4.56476784     -0.157000005       3200.17920      -1.54130685    
   1.07104599      -5.38451099     -0.157000005       3468.61157      -1.54122961    
  0.930077016      -4.67581606     -0.246999994       3468.61157      -1.54122961    
   1.82441294      -4.40452194     -0.246999994       3468.61157      -1.54122961    
   2.10093188      -5.07209921     -0.157000005       3468.61157      -1.54122961    
   0.00000000      -1.87709999     -0.606999993       184.737061       1.60157466    
   0.00000000      -1.36500001     -0.606999993       184.737061       1.60157466    
  0.266297996      -1.33877206     -0.606999993       184.737061       1.60157466    
  0.366203994      -1.84103203     -0.606999993       184.737061       1.60157466    
   0.00000000      -1.87709999     -0.606999993       1861.15076       1.57233787    
   0.00000000      -2.59967995     -0.517000020       1861.15076       1.57233787    
 -0.507171988      -2.54972792     -0.517000020       1861.15076       1.57233787    
 -0.366203994      -1.84103203     -0.606999993       1861.15076       1.57233787    
 -0.366203994      -1.84103203     -0.606999993       166.682327       1.60843754    
 -0.266297996      -1.33877206     -0.606999993       166.682327       1.60843754    
   0.00000000      -1.36500001     -0.606999993       166.682327       1.60843754    
   0.00000000      -1.87709999     -0.606999993       166.682327       1.60843754    
 -0.366203994      -1.84103203     -0.606999993       1778.08398       1.57234943    
 -0.507171988      -2.54972792     -0.517000020       1778.08398       1.57234943    
 -0.994853973      -2.40179110     -0.517000020       1778.08398       1.57234943    
 -0.718334973      -1.73421395     -0.606999993       1778.08398       1.57234943    
 -0.718334973      -1.73421395     -0.606999993       141.345352       1.61436903    
 -0.522363007      -1.26109600     -0.606999993       141.345352       1.61436903    
 -0.266297996      -1.33877206     -0.606999993       141.345352       1.61436903    
 -0.366203994      -1.84103203     -0.606999993       141.345352       1.61436903    
 -0.718334973      -1.73421395     -0.606999993       1630.53308       1.57223713    
 -0.994853973      -2.40179110     -0.517000020       1630.53308       1.57223713    
  -1.44430494      -2.16155505     -0.517000020       1630.53308       1.57223713    
  -1.04286098      -1.56075203     -0.606999993       1630.53308       1.57223713    
  -1.04286098      -1.56075203     -0.606999993       116.948204       1.61593115    
 -0.758352995      -1.13495600     -0.606999993       116.948204       1.61593115    
 -0.522363007      -1.26109600     -0.606999993       116.948204       1.61593115    
 -0.718334973      -1.73421395     -0.606999993       116.948204       1.61593115    
  -1.04286098      -1.56075203     -0.606999993       1427.39905       1.57202590    
  -1.44430494      -2.16155505     -0.517000020       1427.39905       1.57202590    
  -1.83825099      -1.83825099     -0.517000020       1427.39905       1.57202590    
  -1.32730997      -1.32730997     -0.606999993       1427.39905       1.57202590    
  -1.32730997      -1.32730997     -0.606999993       99.3949738       1.61135185    
 -0.965201020     -0.965201020     -0.606999993       99.3949738       1.61135185    
 -0.758352995      -1.13495600     -0.606999993       99.3949738       1.61135185    
  -1.04286098      -1.56075203     -0.606999993       99.3949738       1.61135185    
  -1.32730997      -1.32730997     -0.606999993       1176.06982       1.57172275    
  -1.83825099      -1.83825099     -0.517000020       1176.06982       1.57172275    
  -2.16155505      -1.44430494     -0.517000020       1176.06982       1.57172275    
  -1.56075203      -1.04286098     -0.606999993       1176.06982       1.57172275    
  -1.56075203      -1.04286098     -0.606999993       89.3843918       1.59997988    
  -1.13495600     -0.758352995     -0.606999993       89.3843918       1.59997988    
 -0.965201020     -0.965201020     -0.606999993       89.3843918       1.59997988    
  -1.32730997      -1.32730997     -0.606999993       89.3843918       1.59997988    
  -1.56075203      -1.04286098     -0.606999993       882.394165       1.57135403    
  -2.16155505      -1.44430494     -0.517000020       882.394165       1.57135403    
  -2.40179110     -0.994853973     -0.517000020       882.394165       1.57135403    
  -1.73421395     -0.718334973     -0.606999993       882.394165       1.57135403    
  -1.73421395     -0.718334973     -0.606999993       82.3212204       1.58548439    
  -1.26109600     -0.522363007     -0.606999993       82.3212204       1.58548439    
  -1.13495600     -0.758352995     -0.606999993       82.3212204       1.58548439    
  -1.56075203      -1.04286098     -0.606999993       82.3212204       1.58548439    
  -1.73421395     -0.718334973     -0.606999993       553.438843       1.57081068    
  -2.40179110     -0.994853973     -0.517000020       553.438843       1.57081068    
  -2.54972792     -0.507171988     -0.517000020       553.438843       1.57081068    
  -1.84103203     -0.366203994     -0.606999993       553.438843       1.57081068    
  -1.84103203     -0.366203994     -0.606999993       71.0694809       1.57244074    
  -1.33877206     -0.266297996     -0.606999993       71.0694809       1.57244074    
  -1.26109600     -0.522363007     -0.606999993       71.0694809       1.57244074    
  -1.73421395     -0.718334973     -0.606999993       71.0694809       1.57244074    
  -1.84103203     -0.366203994     -0.606999993       199.797028       1.56949246    
  -2.54972792     -0.507171988     -0.517000020       199.797028       1.56949246    
  -2.59967995       0.00000000     -0.517000020       199.797028       1.56949246    
  -1.87709999       0.00000000     -0.606999993       199.797028       1.56949246    
  -1.87709999       0.00000000     -0.606999993       50.9902306       1.55833936    
  -1.36500001       0.00000000     -0.606999993       50.9902306       1.55833936    
  -1.33877206     -0.266297996     -0.606999993       50.9902306       1.55833936    
  -1.84103203     -0.366203994     -0.606999993       50.9902306       1.55833936    
  -1.87709999       0.00000000     -0.606999993       166.293518      -1.56846011    
  -2.59967995       0.00000000     -0.517000020       166.293518      -1.56846011    
  -2.54972792      0.507171988     -0.517000020       166.293518      -1.56846011    
  -1.84103203      0.366203994     -0.606999993       166.293518      -1.56846011    
  -1.84103203      0.366203994     -0.606999993       19.3557453       1.51691186    
  -1.33877206      0.266297996     -0.606999993       19.3557453       1.51691186    
  -1.36500001       0.00000000     -0.606999993       19.3557453       1.51691186    
  -1.87709999       0.00000000     -0.606999993       19.3557453       1.51691186    
  -1.84103203      0.366203994     -0.606999993       530.888672      -1.56995881    
  -2.54972792      0.507171988     -0.517000020       530.888672      -1.56995881    
  -2.40179110      0.994853973     -0.517000020       530.888672      -1.56995881    
  -1.73421395      0.718334973     -0.606999993       530.888672      -1.56995881    
  -1.73421395      0.718334973     -0.606999993       22.8944016      -1.51483047    
  -1.26109600      0.522363007     -0.606999993       22.8944016      -1.51483047    
  -1.33877206      0.266297996     -0.606999993       22.8944016      -1.51483047    
  -1.84103203      0.366203994     -0.606999993       22.8944016      -1.51483047    
  -1.73421395      0.718334973     -0.606999993       878.041199      -1.57008862    
  -2.40179110      0.994853973     -0.517000020       878.041199      -1.57008862    
  -2.16155505       1.44430494     -0.517000020       878.041199      -1.57008862    
  -1.56075203       1.04286098     -0.606999993       878.041199      -1.57008862    
  -1.56075203       1.04286098     -0.606999993       70.5790176      -1.54844236    
  -1.13495600      0.758352995     -0.606999993       70.5790176      -1.54844236    
  -1.26109600      0.522363007     -0.606999993       70.5790176      -1.54844236    
  -1.73421395      0.718334973     -0.606999993       70.5790176      -1.54844236    
  -1.56075203       1.04286098     -0.606999993       1191.00391      -1.57001579    
  -2.16155505       1.44430494     -0.517000020       1191.00391      -1.57001579    
  -1.83825099       1.83825099     -0.517000020       1191.00391      -1.57001579    
  -1.32730997       1.32730997     -0.606999993       1191.00391      -1.57001579    
  -1.32730997       1.32730997     -0.606999993       116.895088      -1.55290663    
 -0.965201020      0.965201020     -0.606999993       116.895088      -1.55290663    
  -1.13495600      0.758352995     -0.606999993       116.895088      -1.55290663    
  -1.56075203       1.04286098     -0.606999993       116.895088      -1.55290663    
  -1.32730997       1.32730997     -0.606999993       1455.82458      -1.56987548    
  -1.83825099       1.83825099     -0.517000020       1455.82458      -1.56987548    
  -1.44430494       2.16155505     -0.517000020       1455.82458      -1.56987548    
  -1.04286098       1.56075203     -0.606999993       1455.82458      -1.56987548    
  -1.04286098       1.56075203     -0.606999993       155.099365      -1.55224967    
 -0.758352995       1.13495600     -0.606999993       155.099365      -1.55224967    
 -0.965201020      0.965201020     -0.606999993       155.099365      -1.55224967    
  -1.32730997       1.32730997     -0.606999993       155.099365      -1.55224967    
  -1.04286098       1.56075203     -0.606999993       1662.36121      -1.56970739    
  -1.44430494       2.16155505     -0.517000020       1662.36121      -1.56970739    
 -0.994853973       2.40179110     -0.517000020       1662.36121      -1.56970739    
 -0.718334973       1.73421395     -0.606999993       1662.36121      -1.56970739    
 -0.718334973       1.73421395     -0.606999993       181.013977      -1.54908216    
 -0.522363007       1.26109600     -0.606999993       181.013977      -1.54908216    
 -0.758352995       1.13495600     -0.606999993       181.013977      -1.54908216    
  -1.04286098       1.56075203     -0.606999993       181.013977      -1.54908216    
 -0.718334973       1.73421395     -0.606999993       1802.42859      -1.56953144    
 -0.994853973       2.40179110     -0.517000020       1802.42859      -1.56953144    
 -0.507171988       2.54972792     -0.517000020       1802.42859      -1.56953144    
 -0.366203994       1.84103203     -0.606999993       1802.42859      -1.56953144    
 -0.366203994       1.84103203     -0.606999993       191.049133      -1.54490793    
 -0.266297996       1.33877206     -0.606999993       191.049133      -1.54490793    
 -0.522363007       1.26109600     -0.606999993       191.049133      -1.54490793    
 -0.718334973       1.73421395     -0.606999993       191.049133      -1.54490793    
 -0.366203994       1.84103203     -0.606999993       1869.65601      -1.56937802    
 -0.507171988       2.54972792     -0.517000020       1869.65601      -1.56937802    
   0.00000000       2.59967995     -0.517000020       1869.65601      -1.56937802    
   0.00000000       1.87709999     -0.606999993       1869.65601      -1.56937802    
   0.00000000       1.87709999     -0.606999993       185.388138      -1.53942108    
   0.00000000       1.36500001     -0.606999993       185.388138      -1.53942108    
 -0.266297996       1.33877206     -0.606999993       185.388138      -1.53942108    
 -0.366203994       1.84103203     -0.606999993       185.388138      -1.53942108    
   0.00000000       1.87709999     -0.606999993       1860.44055      -1.56928563    
   0.00000000       2.59967995     -0.517000020       1860.44055      -1.56928563    
  0.507171988       2.54972792     -0.517000020       1860.44055      -1.56928563    
  0.366203994       1.84103203     -0.606999993       1860.44055      -1.56928563    
  0.366203994       1.84103203     -0.606999993       167.120590      -1.53351355    
  0.266297996       1.33877206     -0.606999993       167.120590      -1.53351355    
   0.00000000       1.36500001     -0.606999993       167.120590      -1.53351355    
   0.00000000       1.87709999     -0.606999993       167.120590      -1.53351355    
  0.366203994       1.84103203     -0.606999993       1777.73181      -1.56927001    
  0.507171988       2.54972792     -0.517000020       1777.73181      -1.56927001    
  0.994853973       2.40179110     -0.517000020       1777.73181      -1.56927001    
  0.718334973       1.73421395     -0.606999993       1777.73181      -1.56927001    
  0.718334973       1.73421395     -0.606999993       143.058670      -1.52790594    
  0.522363007       1.26109600     -0.606999993       143.058670      -1.52790594    
  0.266297996       1.33877206     -0.606999993       143.058670      -1.52790594    
  0.366203994       1.84103203     -0.606999993       143.058670      -1.52790594    
  0.718334973       1.73421395     -0.606999993       1630.47595      -1.56933057    
  0.994853973       2.40179110     -0.517000020       1630.47595      -1.56933057    
   1.44430494       2.16155505     -0.517000020       1630.47595      -1.56933057    
   1.04286098       1.56075203     -0.606999993       1630.47595      -1.56933057    
   1.04286098       1.56075203     -0.606999993       119.517693      -1.52592158    
  0.758352995       1.13495600     -0.606999993       119.517693      -1.52592158    
  0.522363007       1.26109600     -0.606999993       119.517693      -1.52592158    
  0.718334973       1.73421395     -0.606999993       119.517693      -1.52592158    
   1.04286098       1.56075203     -0.606999993       1427.61768      -1.56949389    
   1.44430494       2.16155505     -0.517000020       1427.61768      -1.56949389    
   1.83825099       1.83825099     -0.517000020       1427.61768      -1.56949389    
   1.32730997       1.32730997     -0.606999993       1427.61768      -1.56949389    
   1.32730997       1.32730997     -0.606999993       102.219467      -1.52984142    
  0.965201020      0.965201020     -0.606999993       102.219467      -1.52984142    
  0.758352995       1.13495600     -0.606999993       102.219467      -1.52984142    
   1.04286098       1.56075203     -0.606999993       102.219467      -1.52984142    
   1.32730997       1.32730997     -0.606999993       1176.05493      -1.56971824    
   1.83825099       1.83825099     -0.517000020       1176.05493      -1.56971824    
   2.16155505       1.44430494     -0.517000020       1176.05493      -1.56971824    
   1.56075203       1.04286098     -0.606999993       1176.05493      -1.56971824    
   1.56075203       1.04286098     -0.606999993       91.3653793      -1.53937018    
   1.13495600      0.758352995     -0.606999993       91.3653793      -1.53937018    
  0.965201020      0.965201020     -0.606999993       91.3653793      -1.53937018    
   1.32730997       1.32730997     -0.606999993       91.3653793      -1.53937018    
   1.56075203       1.04286098     -0.606999993       881.962830      -1.57004499    
   2.16155505       1.44430494     -0.517000020       881.962830      -1.57004499    
   2.40179110      0.994853973     -0.517000020       881.962830      -1.57004499    
   1.73421395      0.718334973     -0.606999993       881.962830      -1.57004499    
   1.73421395      0.718334973     -0.606999993       83.0843582      -1.55301297    
   1.26109600      0.522363007     -0.606999993       83.0843582      -1.55301297    
   1.13495600      0.758352995     -0.606999993       83.0843582      -1.55301297    
   1.56075203       1.04286098     -0.606999993       83.0843582      -1.55301297    
   1.73421395      0.718334973     -0.606999993       552.783813      -1.57062161    
   2.40179110      0.994853973     -0.517000020       552.783813      -1.57062161    
   2.54972792      0.507171988     -0.517000020       552.783813      -1.57062161    
   1.84103203      0.366203994     -0.606999993       552.783813      -1.57062161    
   1.84103203      0.366203994     -0.606999993       71.9144974      -1.56605113    
   1.33877206      0.266297996     -0.606999993       71.9144974      -1.56605113    
   1.26109600      0.522363007     -0.606999993       71.9144974      -1.56605113    
   1.73421395      0.718334973     -0.606999993       71.9144974      -1.56605113    
   1.84103203      0.366203994     -0.606999993       199.024078      -1.57214117    
   2.54972792      0.507171988     -0.517000020       199.024078      -1.57214117    
   2.59967995       0.00000000     -0.517000020       199.024078      -1.57214117    
   1.87709999       0.00000000     -0.606999993       199.024078      -1.57214117    
   1.87709999       0.00000000     -0.606999993       52.0639992      -1.57930279    
   1.36500001       0.00000000     -0.606999993       52.0639992      -1.57930279    
   1.33877206      0.266297996     -0.606999993       52.0639992      -1.57930279    
   1.84103203      0.366203994     -0.606999993       52.0639992      -1.57930279    
   1.87709999       0.00000000     -0.606999993       166.983261       1.57346058    
   2.59967995       0.00000000     -0.517000020       166.983261       1.57346058    
   2.54972792     -0.507171988     -0.517000020       166.983261       1.57346058    
   1.84103203     -0.366203994     -0.606999993       166.983261       1.57346058    
   1.84103203     -0.366203994     -0.606999993       20.7391205      -1.61102879    
   1.33877206     -0.266297996     -0.606999993       20.7391205      -1.61102879    
   1.36500001       0.00000000     -0.606999993       20.7391205      -1.61102879    
   1.87709999       0.00000000     -0.606999993       20.7391205      -1.61102879    
   1.84103203     -0.366203994     -0.606999993       531.485535       1.57176244    
   2.54972792     -0.507171988     -0.517000020       531.485535       1.57176244    
   2.40179110     -0.994853973     -0.517000020       531.485535       1.57176244    
   1.73421395     -0.718334973     -0.606999993       531.485535       1.57176244    
   1.73421395     -0.718334973     -0.606999993       21.4691792       1.62023866    
   1.26109600     -0.522363007     -0.606999993       21.4691792       1.62023866    
   1.33877206     -0.266297996     -0.606999993       21.4691792       1.62023866    
   1.84103203     -0.366203994     -0.606999993       21.4691792       1.62023866    
   1.73421395     -0.718334973     -0.606999993       878.241516       1.57148373    
   2.40179110     -0.994853973     -0.517000020       878.241516       1.57148373    
   2.16155505      -1.44430494     -0.517000020       878.241516       1.57148373    
   1.56075203      -1.04286098     -0.606999993       878.241516       1.57148373    
   1.56075203      -1.04286098     -0.606999993       69.0644760       1.59144688    
   1.13495600     -0.758352995     -0.606999993       69.0644760       1.59144688    
   1.26109600     -0.522363007     -0.606999993       69.0644760       1.59144688    